9
Lattice="6.433485872946571 1.1410985809698032e-07 3.7143749300242215 2.1444953678035046 6.0655487425845624 3.7143749833064326 -4.346881692404261e-08 3.451995456291894e-08 7.4287499353386215" Properties=species:S:1:pos:R:3:forces:R:3 energy=-29.037315368652344 free_energy=-29.037315368652344 stress="0.00016509478155057877 7.216273356647207e-09 -8.679442942138849e-09 7.216273356647207e-09 0.00016509482520632446 9.727664895819998e-09 -8.679442942138849e-09 9.727664895819998e-09 0.00016509670240338892" pbc="T T T"
In       2.14449546       1.51638733       3.71437472       0.00000015       0.00000017       0.00000001
In       6.43348574       4.54916170      11.14312466      -0.00000009       0.00000014      -0.00000004
Ru      -0.00000011      -0.00000016       0.00000034      -0.00000035       0.00000292      -0.00000508
Br       2.04440564       1.44561317       7.42875000       0.00073093       0.00051731       0.00000019
Br       6.53357567       4.61993569       7.42874988      -0.00073251      -0.00051761       0.00000070
Br       5.41128301       1.44561319       5.48488235      -0.00036622       0.00051757       0.00063371
Br       3.16669808       4.61993575       9.37261778       0.00036594      -0.00051756      -0.00063384
Br       3.16669814       4.61993582       5.48488209       0.00036762      -0.00052013       0.00063697
Br       5.41128312       1.44561305       9.37261769      -0.00036538       0.00051720      -0.00063265
