9
Lattice="6.152952636732904 -1.4002032500516602e-07 3.5524089097141216 2.050984143032504 5.801059224252013 3.552408800940305 7.844193511810827e-08 -7.775337106185263e-08 7.104817683562875" Properties=species:S:1:pos:R:3:forces:R:3 energy=-30.187376022338867 free_energy=-30.187376022338867 stress="5.065304503659718e-05 -2.9282094970994876e-08 1.569873830931101e-08 -2.9282094970994876e-08 5.0696653488557786e-05 -1.8792512435084063e-08 1.569873830931101e-08 -1.8792512435084063e-08 5.0703783927019686e-05" pbc="T T T"
In       2.05098461       1.45026415       3.55240864       0.00000027      -0.00000035      -0.00000025
In       6.15295296       4.35079382      10.65722562       0.00000070      -0.00000051      -0.00000093
Rh      -0.00000009       0.00000020       0.00000086      -0.00000054       0.00000034      -0.00001456
Cl       1.92860892       1.36373228       7.10481820       0.00111829       0.00079046      -0.00000000
Cl       6.27532774       4.43732692       7.10481783      -0.00111909      -0.00078964       0.00000009
Cl       5.18864825       1.36373265       5.22263332      -0.00056028       0.00079185       0.00096929
Cl       3.01528869       4.43732607       8.98700193       0.00055607      -0.00078574      -0.00096339
Cl       3.01528818       4.43732665       5.22263344       0.00055889      -0.00079040       0.00096968
Cl       5.18864808       1.36373329       8.98700163      -0.00055420       0.00078401      -0.00095956
