9
Lattice="7.011772672913848 7.217174613342296e-08 4.048248815027597 2.3372576031995806 6.610762664593775 4.048248853968481 -1.6618254161596302e-08 3.594183974135147e-08 8.096497658838818" Properties=species:S:1:pos:R:3:forces:R:3 energy=-21.831018447875977 free_energy=-21.831018447875977 stress="4.154279668000527e-05 7.315281269626439e-09 3.46002582141125e-09 7.315281269626439e-09 4.154020643909462e-05 8.109991789240212e-09 3.46002582141125e-09 8.109991789240212e-09 4.154027556069195e-05" pbc="T T T"
In       2.33725752       1.65269067       4.04824881      -0.00000001      -0.00000006       0.00000009
In       7.01177275       4.95807210      12.14474648       0.00000012       0.00000003       0.00000028
Sb       0.00000008       0.00000022      -0.00000098       0.00000027      -0.00000129       0.00000657
I        2.43024733       1.71844433       8.09649762      -0.00029723      -0.00021020      -0.00000014
I        6.91878276       4.89231822       8.09649760       0.00029866       0.00021094       0.00000042
I        5.79664886       1.71844457       6.15290484       0.00014918      -0.00021186      -0.00025889
I        3.55238103       4.89231861      10.04009099      -0.00014808       0.00020932       0.00025617
I        3.55238135       4.89231825       6.15290483      -0.00014961       0.00021078      -0.00025938
I        5.79664934       1.71844412      10.04009109       0.00014664      -0.00020766       0.00025490
