9
Lattice="5.423936590358903 2.0334483210553346e-08 3.1315109932273604 1.807978889881672 5.113736336624378 3.131510980657521 -1.0613194050970136e-07 -9.044141715516509e-08 6.2630221702805935" Properties=species:S:1:pos:R:3:forces:R:3 energy=-39.27332305908203 free_energy=-39.27332305908203 stress="6.360597762977704e-05 5.390059243381984e-08 -2.9013496050112053e-09 5.390059243381984e-08 6.3538653193973e-05 -1.2474247412797013e-08 -2.9013496050112053e-09 -1.2474247412797013e-08 6.349014438455924e-05" pbc="T T T"
In       1.80797874       1.27843412       3.13151079       0.00000038      -0.00000031      -0.00000009
In       5.42393663       3.83530243       9.39453389       0.00000015       0.00000026      -0.00000200
Sb       0.00000024       0.00000016      -0.00000030      -0.00000556      -0.00000159       0.00000728
F        1.66952502       1.18053233       6.26302198      -0.00418508      -0.00295937       0.00000031
F        5.56239036       3.93320384       6.26302177       0.00418848       0.00296158      -0.00000059
F        4.58917419       1.18053188       4.57736178       0.00209153      -0.00295642      -0.00362206
F        2.64274109       3.93320413       7.94868245      -0.00208959       0.00295472       0.00361887
F        2.64274108       3.93320409       4.57736173      -0.00209062       0.00295731      -0.00362223
F        4.58917421       1.18053223       7.94868232       0.00209029      -0.00295633       0.00362059
