9
Lattice="6.307491267213081 -1.0463284117799906e-07 3.6416319264593358 2.102496994325637 5.946759849044339 3.6416319196984306 1.9944585286868888e-08 5.822559606118783e-09 7.28326381837365" Properties=species:S:1:pos:R:3:forces:R:3 energy=-27.912330627441406 free_energy=-27.912330627441406 stress="-6.652170122833923e-05 -3.631723810570975e-09 3.104459189717801e-10 -3.631723810570975e-09 -6.651916919508949e-05 5.9873550561917455e-09 3.104459189717801e-10 5.9873550561917455e-09 -6.65115294395946e-05" pbc="T T T"
In       2.10249714       1.48668991       3.64163180      -0.00000002      -0.00000008      -0.00000015
In       6.30749129       4.46006969      10.92489573      -0.00000003       0.00000003      -0.00000005
Sb      -0.00000003      -0.00000019       0.00000093      -0.00000101       0.00000281      -0.00001237
Cl       2.05339876       1.45197219       7.28326377      -0.00234213      -0.00165644       0.00000083
Cl       6.35658953       4.49478778       7.28326390       0.00234173       0.00165588       0.00000071
Cl       5.28079206       1.45197201       5.41992742       0.00117009      -0.00165506      -0.00202661
Cl       3.12919654       4.49478730       9.14659990      -0.00117228       0.00165784       0.00203143
Cl       3.12919614       4.49478770       5.41992738      -0.00116882       0.00165316      -0.00202499
Cl       5.28079167       1.45197258       9.14659972       0.00117246      -0.00165813       0.00203105
