9
Lattice="6.573962050421345 8.140997860218684e-08 3.795478794569949 2.1913207895160354 6.197990867115549 3.7954787438412723 1.8807913285588586e-09 -6.079977526451409e-08 7.590957585882242" Properties=species:S:1:pos:R:3:forces:R:3 energy=-24.876386642456055 free_energy=-24.876386642456055 stress="0.00010479262709850445 1.820625961101996e-08 4.308404299990798e-09 1.820625961101996e-08 0.00010475824819877744 -1.5437548128716116e-08 4.308404299990798e-09 -1.5437548128716116e-08 0.00010475959425093606" pbc="T T T"
In       2.19132083       1.54949768       3.79547881       0.00000014      -0.00000014       0.00000024
In       6.57396206       4.64849325      11.38643636       0.00000002       0.00000010       0.00000003
Sb      -0.00000033       0.00000071      -0.00000196       0.00000280      -0.00000733       0.00001832
Br       2.22346843       1.57222947       7.59095729      -0.00362168      -0.00256012      -0.00000036
Br       6.54181419       4.62576110       7.59095760       0.00362225       0.00256193      -0.00000048
Br       5.46222781       1.57222960       5.72105887       0.00181120      -0.00256106      -0.00313720
Br       3.30305458       4.62576197       9.46085687      -0.00180857       0.00255762       0.00313173
Br       3.30305541       4.62576082       5.72105953      -0.00181338       0.00256407      -0.00314084
Br       5.46222842       1.57222895       9.46085714       0.00180723      -0.00255506       0.00312858
