9
Lattice="6.3127802732726135 1.3496834411806313e-07 3.644685152742421 2.1042602235348618 5.951746143649719 3.6446851437451118 4.5009873722207204e-08 2.080739471346354e-08 7.289370227525515" Properties=species:S:1:pos:R:3:forces:R:3 energy=-27.912328720092773 free_energy=-27.912328720092773 stress="0.00017024653789121658 6.343964997768126e-08 1.0144811213308458e-08 6.343964997768126e-08 0.00017019003280438483 -4.248671636730705e-09 1.0144811213308458e-08 -4.248671636730705e-09 0.00017015484627336264" pbc="T T T"
In       2.10426002       1.48793654       3.64468526       0.00000012      -0.00000006       0.00000011
In       6.31278049       4.46380980      10.93405547      -0.00000019       0.00000010       0.00000003
Sb       0.00000005       0.00000018      -0.00000194       0.00000122      -0.00000004       0.00002352
Cl       2.05351317       1.45205302       7.28937023      -0.00214993      -0.00151997      -0.00000087
Cl       6.36352708       4.49969328       7.28937030       0.00214969       0.00151967      -0.00000087
Cl       5.28602388       1.45205257       5.42307894       0.00107346      -0.00151812      -0.00186003
Cl       3.13101633       4.49969426       9.15566230      -0.00106906       0.00151113       0.00184938
Cl       3.13101650       4.49969359       5.42307912      -0.00107432       0.00151872      -0.00186109
Cl       5.28602467       1.45205197       9.15566250       0.00106901      -0.00151145       0.00184991
