9
Lattice="5.426798080249044 -7.30642530789603e-08 3.133163179744426 1.808932774019379 5.116433331035723 3.1331629208224934 4.344416201853614e-07 -9.91672238769639e-09 6.266325607013985" Properties=species:S:1:pos:R:3:forces:R:3 energy=-39.27332305908203 free_energy=-39.27332305908203 stress="-0.00018694979371502995 -1.1939182087417066e-08 3.3139413435634424e-09 -1.1939182087417066e-08 -0.00018694897880777717 2.099591789317401e-08 3.3139413435634424e-09 2.099591789317401e-08 -0.00018696277402341366" pbc="T T T"
In       1.80893286       1.27910828       3.13316284       0.00000018      -0.00000019      -0.00000024
In       5.42679820       3.83732543       9.39948897      -0.00000051       0.00000061      -0.00000018
Sb      -0.00000009       0.00000015      -0.00000043       0.00000022      -0.00000053       0.00001537
F        1.66792705       1.17940139       6.26632599       0.00544786       0.00385258      -0.00000119
F        5.56780450       3.93703128       6.26632616      -0.00544751      -0.00385216      -0.00000024
F        4.59283487       1.17940185       4.57762982      -0.00272198       0.00384918       0.00471359
F        2.64289653       3.93703123       7.95502215       0.00272489      -0.00385380      -0.00472045
F        2.64289621       3.93703135       4.57762917       0.00272220      -0.00385025       0.00471488
F        4.59283509       1.17940203       7.95502222      -0.00272538       0.00385460      -0.00472149
