9
Lattice="7.011821269955584 6.7956144957052655e-09 4.048276866113783 2.3372738121672283 6.610808421128927 4.048276781055495 4.992426267188262e-08 -6.887292926534844e-08 8.096553645756275" Properties=species:S:1:pos:R:3:forces:R:3 energy=-21.831016540527344 free_energy=-21.831016540527344 stress="6.738327647326514e-05 2.0340094053494795e-08 1.3445666802169853e-10 2.0340094053494795e-08 6.737086368957534e-05 5.129617175470003e-09 1.3445666802169853e-10 5.129617175470003e-09 6.735857459716499e-05" pbc="T T T"
In       2.33727381       1.65270208       4.04827684      -0.00000038       0.00000014      -0.00000004
In       7.01182135       4.95810641      12.14483053       0.00000026       0.00000013       0.00000015
Sb      -0.00000085      -0.00000012      -0.00000084       0.00000519       0.00000100       0.00000608
I        2.43059765       1.71869185       8.09655367      -0.00224929      -0.00159026      -0.00000033
I        6.91849810       4.89211675       8.09655366       0.00224600       0.00158808      -0.00000045
I        5.79652278       1.71869150       6.15323567       0.00112331      -0.00158904      -0.00194629
I        3.55257236       4.89211700      10.03987188      -0.00112318       0.00158773       0.00194433
I        3.55257250       4.89211652       6.15323588      -0.00112396       0.00158942      -0.00194681
I        5.79652284       1.71869147      10.03987185       0.00112206      -0.00158726       0.00194347
