9
Lattice="6.574401332249476 -7.37417155967124e-08 3.7957324353705166 2.1914671124141347 6.198405034088158 3.795732312068097 6.309515890701336e-08 -1.0639892960725616e-07 7.591464761457037" Properties=species:S:1:pos:R:3:forces:R:3 energy=-24.87639808654785 free_energy=-24.87639808654785 stress="7.808195368852466e-05 2.414425326335845e-10 1.0996080490599525e-08 2.414425326335845e-10 7.80830014264211e-05 -2.0830151825634857e-08 1.0996080490599525e-08 -2.0830151825634857e-08 7.808383088558912e-05" pbc="T T T"
In       2.19146713       1.54960106       3.79573241      -0.00000009       0.00000001       0.00000009
In       6.57440138       4.64880379      11.38719713       0.00000002       0.00000026       0.00000021
Sb      -0.00000038       0.00000149       0.00000000       0.00000423      -0.00001492      -0.00000138
Br       2.22266500       1.57166127       7.59146475      -0.00062319      -0.00044008       0.00000020
Br       6.54320331       4.62674304       7.59146467       0.00062574       0.00044375       0.00000013
Br       5.46306896       1.57166111       5.72061637       0.00030983      -0.00043782      -0.00053675
Br       3.30279975       4.62674333       9.46231288      -0.00031332       0.00044331       0.00054235
Br       3.30279999       4.62674306       5.72061689      -0.00031430       0.00044533      -0.00054396
Br       5.46306893       1.57166123       9.46231298       0.00031107      -0.00043987       0.00053902
