9
Lattice="6.288011153668865 4.731303511708318e-08 3.6303850516315617 2.096003746875576 5.928393804448478 3.630385078688377 -3.840180279935568e-08 5.983555212838601e-09 7.260770169777083" Properties=species:S:1:pos:R:3:forces:R:3 energy=-38.651248931884766 free_energy=-38.651248931884766 stress="-0.0001927809207700193 3.860980157810445e-08 -3.332948494971788e-08 3.860980157810445e-08 -0.00019277355750091374 3.869300257974828e-08 -3.332948494971788e-08 3.869300257974828e-08 -0.0001928008859977126" pbc="T T T"
In       2.09600387       1.48209804       3.63038522      -0.00000012       0.00000005      -0.00000013
In       6.28801098       4.44629560      10.89115494       0.00000015      -0.00000026       0.00000017
Ta      -0.00000016       0.00000019      -0.00000026       0.00000122      -0.00000441       0.00000466
Cl       1.94829360       1.37765185       7.26077007       0.00388324       0.00274503       0.00000039
Cl       6.43572150       4.55074175       7.26077027      -0.00388193      -0.00274351      -0.00000018
Cl       5.31386455       1.37765188       5.31765686      -0.00194240       0.00274536       0.00336295
Cl       3.07015031       4.55074226       9.20388339       0.00194231      -0.00274622      -0.00336227
Cl       3.07015011       4.55074234       5.31765681       0.00194338      -0.00274631       0.00336319
Cl       5.31386471       1.37765156       9.20388370      -0.00194591       0.00275034      -0.00336865
