9
Lattice="6.979549660202305 -3.832631621615353e-08 4.029644938961979 2.326516512505187 6.580382535003729 4.029644947208597 1.2981925891561422e-08 1.9279619124352684e-08 8.059289855438637" Properties=species:S:1:pos:R:3:forces:R:3 energy=-30.569242477416992 free_energy=-30.569242477416992 stress="0.00012718391371890903 -7.084589359607207e-09 -1.631015100755917e-09 -7.084589359607207e-09 0.00012716632045339793 5.996576568634282e-09 -1.631015100755917e-09 5.996576568634282e-09 0.00012716308992821723" pbc="T T T"
In       2.32651654       1.64509554       4.02964491       0.00000022       0.00000052       0.00000002
In       6.97954967       4.93528694      12.08893475      -0.00000020      -0.00000046       0.00000007
Ta       0.00000019       0.00000018       0.00000003      -0.00000349      -0.00000033       0.00000072
I        2.26844053       1.60402963       8.05928979      -0.00111297      -0.00078675       0.00000001
I        7.03762544       4.97635271       8.05928980       0.00111678       0.00078878       0.00000024
I        5.84532924       1.60402983       5.99417226       0.00055797      -0.00078918      -0.00096585
I        3.46073689       4.97635283      10.12440755      -0.00055791       0.00078771       0.00096484
I        3.46073690       4.97635270       5.99417227      -0.00055788       0.00078782      -0.00096478
I        5.84532934       1.60402972      10.12440759       0.00055746      -0.00078815       0.00096479
