9
Lattice="6.583071437268987 -7.476264644463313e-08 3.8007380252140606 2.1943570777085983 6.2065792342264166 3.8007380209892636 1.3413512310185343e-08 4.310507020811215e-09 7.601476027195244" Properties=species:S:1:pos:R:3:forces:R:3 energy=-34.797569274902344 free_energy=-34.797569274902344 stress="-6.67516633257037e-06 7.925000933273196e-11 -3.227000444638861e-09 7.925000933273196e-11 -6.680209935439052e-06 1.8343683239052666e-09 -3.227000444638861e-09 1.8343683239052666e-09 -6.658206075371709e-06" pbc="T T T"
In       2.19435709       1.55164451       3.80073811      -0.00000007      -0.00000001      -0.00000011
In       6.58307143       4.65493470      11.40221376       0.00000014      -0.00000031       0.00000006
Ta       0.00000053      -0.00000008       0.00000055      -0.00000780       0.00000036      -0.00000905
Br       2.07922516       1.47023397       7.60147614       0.00364727       0.00257984      -0.00000005
Br       6.69820289       4.73634496       7.60147631      -0.00364146      -0.00257522      -0.00000039
Br       5.54345865       1.47023383       5.60139988      -0.00182305       0.00257805       0.00315642
Br       3.23397012       4.73634522       9.60155195       0.00182085      -0.00257635      -0.00315398
Br       3.23396954       4.73634528       5.60139976       0.00182435      -0.00258073       0.00315908
Br       5.54345869       1.47023437       9.60155186      -0.00182022       0.00257427      -0.00315198
