9
Lattice="7.0857819992680815 -1.4322250477375619e-08 4.090978252116159 2.361927379200752 6.680539248041587 4.090978148860701 1.0779195023173455e-07 -5.024104144755753e-08 8.181956317531125" Properties=species:S:1:pos:R:3:forces:R:3 energy=-28.57203483581543 free_energy=-28.57203483581543 stress="5.342941949493252e-05 1.390875770113098e-08 5.6408770987559365e-09 1.390875770113098e-08 5.342734220903367e-05 -7.069241192425579e-09 5.6408770987559365e-09 -7.069241192425579e-09 5.340734787750989e-05" pbc="T T T"
In       2.36192725       1.67013490       4.09097821      -0.00000001      -0.00000015       0.00000028
In       7.08578213       5.01040427      12.27293443       0.00000009       0.00000019      -0.00000033
Y        0.00000021       0.00000034       0.00000016      -0.00000056      -0.00000282       0.00000014
I        2.43933433       1.72486973       8.18195607      -0.00103178      -0.00072965       0.00000007
I        7.00837481       4.95566911       8.18195677       0.00103374       0.00073187       0.00000001
I        5.86611501       1.72486995       6.20350333       0.00051501      -0.00072914      -0.00089252
I        3.58159463       4.95566930      10.16040911      -0.00051605       0.00072919       0.00089273
I        3.58159434       4.95566916       6.20350368      -0.00051603       0.00073017      -0.00089350
I        5.86611525       1.72486998      10.16040911       0.00051562      -0.00072965       0.00089319
