9
Lattice="6.335800107643073 6.351174506292198e-08 3.657975816833033 2.1119334254390645 5.973449696159759 3.657975823163238 3.4694688306474748e-09 1.0206140028185705e-08 7.315951627656824" Properties=species:S:1:pos:R:3:forces:R:3 energy=-35.63031005859375 free_energy=-35.63031005859375 stress="0.00015147600788623095 -2.1875563582796076e-09 -2.055830883307408e-08 -2.1875563582796076e-09 0.00015149227692745626 1.0374779257915634e-08 -2.055830883307408e-08 1.0374779257915634e-08 0.00015150447143241763" pbc="T T T"
In       2.11193349       1.49336232       3.65797569      -0.00000038      -0.00000023      -0.00000031
In       6.33580010       4.48008738      10.97392738       0.00000023       0.00000050      -0.00000033
Y       -0.00000000      -0.00000003       0.00000005      -0.00000166      -0.00000032      -0.00000333
Cl       2.12671458       1.50381432       7.31595183      -0.00100204      -0.00070889       0.00000070
Cl       6.32101891       4.46963542       7.31595175       0.00100501       0.00071131       0.00000088
Cl       5.27244298       1.50381450       5.49976522       0.00050260      -0.00071156      -0.00087186
Cl       3.17529079       4.46963498       9.13213794      -0.00050336       0.00071160       0.00087211
Cl       3.17529062       4.46963545       5.49976495      -0.00050280       0.00070830      -0.00086818
Cl       5.27244266       1.50381470       9.13213820       0.00050238      -0.00071061       0.00087057
