9
Lattice="5.208616585712588 5.314071749946277e-08 3.00719629814602 1.7362055525986602 4.910731081443786 3.0071963433070388 4.1036845851984846e-08 8.432820749501755e-08 6.01439252521409" Properties=species:S:1:pos:R:3:forces:R:3 energy=-46.742916107177734 free_energy=-46.742916107177734 stress="0.00011711542174452916 -3.474346499388048e-08 -4.1800866767971456e-08 -3.474346499388048e-08 0.00011714370339177549 2.0027558278457036e-08 -4.1800866767971456e-08 2.0027558278457036e-08 0.00011717384040821344" pbc="T T T"
In       1.73620608       1.22768285       3.00719628       0.00000113      -0.00000003      -0.00000040
In       5.20861624       3.68304873       9.02158892      -0.00000144       0.00000165       0.00000098
Y       -0.00000003       0.00000005      -0.00000009       0.00000253      -0.00000517      -0.00000038
F        1.75015640       1.23754693       6.01439264       0.00140142       0.00098904       0.00000070
F        5.19466592       3.67318421       6.01439263      -0.00140065      -0.00098962      -0.00000103
F        4.33353832       1.23754738       4.52287623      -0.00069875       0.00098818       0.00120981
F        2.61128374       3.67318369       7.50590908       0.00069660      -0.00098541      -0.00120620
F        2.61128380       3.67318368       4.52287618       0.00069957      -0.00098866       0.00120936
F        4.33353830       1.23754731       7.50590895      -0.00070049       0.00098987      -0.00121264
