9
Lattice="5.891069519590574 4.842831107929414e-08 3.401210823581314 1.96368989260613 5.554153637948436 3.401210811311568 1.425317818118589e-07 8.575786840511291e-08 6.802421400290336" Properties=species:S:1:pos:R:3:forces:R:3 energy=-23.600948333740234 free_energy=-23.600948333740234 stress="0.000377965479856357 -1.6833370253266366e-08 -2.3916175706517606e-08 -1.6833370253266366e-08 0.000378037104383111 -5.721561535665387e-08 -2.3916175706517606e-08 -5.721561535665387e-08 0.0003779343387577683" pbc="T T T"
Ir       1.96368941       1.38853808       3.40121152      -0.00000377      -0.00000213       0.00000618
Ir       5.89106841       4.16561557      10.20363111      -0.00000749       0.00000004      -0.00000786
As      -0.00000009      -0.00000011       0.00000021       0.00000243      -0.00000105      -0.00000022
Br       2.01120815       1.42213863       6.80242109       0.00612507       0.00432783      -0.00000071
Br       5.84355170       4.13201519       6.80242179      -0.00612340      -0.00432977       0.00000246
Br       4.88546569       1.42213852       5.14296824      -0.00306184       0.00432918       0.00530341
Br       2.96929473       4.13201506       8.46187521       0.00306624      -0.00432696      -0.00530194
Br       2.96929421       4.13201513       5.14296820       0.00306182      -0.00432700       0.00530096
Br       4.88546597       1.42213904       8.46187483      -0.00305894       0.00432994      -0.00530230
