9
Lattice="4.961464750924934 7.151013384164155e-08 2.8645031633036706 1.653821734225367 4.677713698366257 2.8645030192605327 3.983320292211125e-07 1.0524719729052015e-07 5.729005636676041" Properties=species:S:1:pos:R:3:forces:R:3 energy=-37.3436164855957 free_energy=-37.3436164855957 stress="0.0001384546048939228 2.0240875642230094e-07 -1.3640670886161388e-06 2.0240875642230094e-07 0.00013879388279747218 -8.77014201705606e-07 -1.3640670886161388e-06 -8.77014201705606e-07 0.000139193405630067" pbc="T T T"
Ir       1.65383061       1.16942969       2.86450156       0.00027951       0.00004241      -0.00011162
Ir       4.96146712       3.50828481       8.59354082       0.00005289      -0.00002754       0.00105283
As       0.00000018       0.00000013       0.00000003      -0.00000128      -0.00000006      -0.00000277
S        1.80403223       1.27564389       5.72901015       0.00095347       0.00069334       0.00016382
S        4.81125329       3.40207134       5.72898671      -0.00100693      -0.00063680      -0.00061749
S        4.05944967       1.27565070       4.42683469      -0.00043678       0.00093514       0.00064594
S        2.55582895       3.40206731       7.03116794       0.00018477      -0.00080734      -0.00093085
S        2.55584521       3.40207054       4.42683590       0.00073768      -0.00066175       0.00068372
S        4.05944044       1.27563718       7.03116959      -0.00076349       0.00046271      -0.00088343
