9
Lattice="5.548625058042047 1.614348753296565e-08 3.203500119701973 1.8495417088619197 5.231293580478451 3.2035001064904436 7.867027148151703e-08 3.944753590126279e-08 6.407000103143046" Properties=species:S:1:pos:R:3:forces:R:3 energy=-26.63760757446289 free_energy=-26.63760757446289 stress="0.00019737205002456903 3.156067629461745e-09 3.78314624072118e-09 3.156067629461745e-09 0.00019741017604246736 5.908654010511327e-09 3.78314624072118e-09 5.908654010511327e-09 0.00019741195137612522" pbc="T T T"
Ir       1.84954152       1.30782396       3.20349954      -0.00000130       0.00000308      -0.00000320
Ir       5.54862442       3.92346940       9.61049979      -0.00000333      -0.00000493      -0.00000351
As       0.00000009      -0.00000001       0.00000018       0.00000203       0.00000154       0.00000091
Cl       1.89401994       1.33927438       6.40700012       0.00291312       0.00206118      -0.00000022
Cl       5.50414701       3.89201917       6.40700058      -0.00291476      -0.00206379       0.00000350
Cl       4.60161544       1.33927468       4.84376949      -0.00145442       0.00206102       0.00252264
Cl       2.79655196       3.89201904       7.97023112       0.00145697      -0.00206046      -0.00252211
Cl       2.79655201       3.89201943       4.84376945       0.00145806      -0.00206043       0.00252425
Cl       4.60161504       1.33927453       7.97023112      -0.00145657       0.00206265      -0.00252225
