9
Lattice="6.383498483890372 -5.448358343837707e-08 3.685514354677329 2.1278327764619647 6.018419564925634 3.685514354909147 -1.3167777916262605e-07 -9.28263039681553e-08 7.371028937427258" Properties=species:S:1:pos:R:3:forces:R:3 energy=-21.01656150817871 free_energy=-21.01656150817871 stress="2.961176141980104e-05 2.375901431150851e-08 5.4663895632245385e-09 2.375901431150851e-08 2.9656166589120403e-05 4.082453930465135e-09 5.4663895632245385e-09 4.082453930465135e-09 2.9618697226396762e-05" pbc="T T T"
Ir       2.12783347       1.50459837       3.68551827       0.00000309      -0.00003689       0.00002234
Ir       6.38349720       4.51381421      11.05654564      -0.00000741      -0.00000392       0.00001247
As       0.00000020       0.00000034       0.00000018      -0.00000188      -0.00000074      -0.00000433
I        2.24715941       1.58898193       7.37102766      -0.00066866      -0.00047243      -0.00000972
I        6.26416992       4.42943919       7.37102781       0.00066754       0.00048752      -0.00000391
I        5.25991852       1.58898282       5.63161030       0.00033131      -0.00046826      -0.00058506
I        3.25141364       4.42943983       9.11044438      -0.00033092       0.00048828       0.00057267
I        3.25141360       4.42943921       5.63161099      -0.00032977       0.00047969      -0.00058103
I        5.25991853       1.58898177       9.11044533       0.00033676      -0.00047336       0.00057649
