9
Lattice="4.39485828849829 2.0683069228079373e-08 2.537372636565958 1.4649527656426284 4.143512183499924 2.5373726654744404 -6.77385325021026e-09 3.0615683786339055e-08 5.074745284864591" Properties=species:S:1:pos:R:3:forces:R:3 energy=-49.128013610839844 free_energy=-49.128013610839844 stress="1.4404016837943345e-05 -1.783351066819705e-08 3.09222265570952e-08 -1.783351066819705e-08 1.4411464690056164e-05 4.960237376394616e-08 3.09222265570952e-08 4.960237376394616e-08 1.4474774616246577e-05" pbc="T T T"
Ir       1.46495223       1.03587842       2.53737080      -0.00000731       0.00000733      -0.00003706
Ir       4.39485802       3.10763486       7.61211585      -0.00000860       0.00001161      -0.00004039
As       0.00000009       0.00000025       0.00000010       0.00000131      -0.00001585       0.00001647
O        1.44433307       1.02129703       5.07474583      -0.00233650      -0.00166309       0.00001428
O        4.41547841       3.12221464       5.07474572       0.00235116       0.00165653       0.00001180
O        3.67269190       1.02129659       3.78820254       0.00118130      -0.00167388      -0.00201976
O        2.18711933       3.12221397       6.36128966      -0.00117153       0.00165236       0.00204748
O        2.18711914       3.12221505       3.78820226      -0.00117981       0.00167090      -0.00203204
O        3.67269202       1.02129817       6.36128978       0.00116915      -0.00164604       0.00203657
