9
Lattice="4.104351638986652 1.0004923294694785 3.4817033415718375 -1.7750535529057025 4.985952239303373 1.6584556322687725 -4.384422352028453 1.5573606541041696 2.8690640823794005" Properties=species:S:1:pos:R:3:forces:R:3 energy=-5940140.0 free_energy=-5940140.0 stress="128944.6015625 60148.52734375 -75436.6015625 60148.52734375 47582.828125 -4089.601806640625 -75436.6015625 -4089.601806640625 73567.8828125" pbc="T T T"
Ir       4.00188271       1.62068783       2.61237780  145867.09375000 -740832.06250000 -1500418.62500000
Ir       1.46353258       8.23243834       9.30319912  976173.50000000 5869316.50000000 -7475309.00000000
B        3.76075324       0.51028061       2.08925328 -399507.12500000  400123.12500000 1670668.00000000
F        2.26104642       7.47216337       6.39941212  183462.54687500  172250.75000000  400841.09375000
F        1.47367238       8.00466294       6.44183758  104412.17968750   94982.96875000  139786.45312500
F        4.18395853       3.56760401       6.90768391 -201874000.00000000 -170502656.00000000 -43000688.00000000
F       -4.29836475       4.12250358       6.27494390 188533408.00000000 164145424.00000000 50431184.00000000
F        6.17013748       3.93223327       3.79592154 -130683.46093750  129446.88281250  123809.69531250
F        3.03107269       3.16400816       7.84062222 12460862.00000000  431952.25000000 -789855.56250000
