9
Lattice="4.368596768912823 -3.961386166608942e-07 2.5222102920045097 1.456198677166001 4.118751627744876 2.5222100708594914 -2.0331011857345307e-08 -2.8522240412480516e-07 5.044420619223346" Properties=species:S:1:pos:R:3:forces:R:3 energy=-41.168087005615234 free_energy=-41.168087005615234 stress="0.0003793225041590631 7.066189056104122e-08 2.7430839821818154e-08 7.066189056104122e-08 0.00037940675974823534 -3.7172828371012656e-08 2.7430839821818154e-08 -3.7172828371012656e-08 0.00037931909901089966" pbc="T T T"
Ir       1.45619767       1.02969117       2.52221023      -0.00000911       0.00002540       0.00000337
Ir       4.36859775       3.08906188       7.56662768       0.00000965      -0.00000724      -0.00001943
Be      -0.00000132      -0.00000150       0.00001007      -0.00000037      -0.00000127       0.00000008
F        1.40767645       0.99537755       5.04441875       0.00374982       0.00265220       0.00000088
F        4.41712022       3.12337319       5.04441941      -0.00375381      -0.00265908       0.00000649
F        3.66475906       0.99537577       3.74129199      -0.00187550       0.00264949       0.00324979
F        2.16003700       3.12337330       6.34754697       0.00188078      -0.00265986      -0.00324935
F        2.16003649       3.12337570       3.74129180       0.00187796      -0.00265244       0.00325519
F        3.66475821       0.99537664       6.34754650      -0.00187963       0.00265273      -0.00324726
