9
Lattice="5.971745075585221 2.6758850503877573e-08 3.447788657688643 1.9905816727920205 5.63021460134009 3.4477887344154245 -4.962264803751638e-08 5.8882198310756e-08 6.895577401326279" Properties=species:S:1:pos:R:3:forces:R:3 energy=-21.76505470275879 free_energy=-21.76505470275879 stress="0.0002190952654927969 -2.6982506895478764e-08 1.2839379559537178e-09 -2.6982506895478764e-08 0.0002192527026636526 -1.653201842088947e-08 1.2839379559537178e-09 -1.653201842088947e-08 0.00021905146422795951" pbc="T T T"
Ir       1.99058255       1.40755845       3.44778922       0.00000807       0.00005473       0.00001075
Ir       5.97174299       4.22265558      10.34336355      -0.00001994      -0.00006005      -0.00002667
Be       0.00000009       0.00000020      -0.00000070       0.00000281      -0.00000206       0.00001097
I        1.94938209       1.37842310       6.89557719      -0.00310081      -0.00217326      -0.00000169
I        6.01294458       4.25179174       6.89557836       0.00310028       0.00217165       0.00001284
I        4.99705320       1.37842331       5.13600346       0.00154926      -0.00217602      -0.00269216
I        2.96527370       4.25179207       8.65515238      -0.00153725       0.00216897       0.00269136
I        2.96527305       4.25179093       5.13600350      -0.00155377       0.00217409      -0.00269404
I        4.99705448       1.37842349       8.65515231       0.00155126      -0.00215806       0.00268850
