9
Lattice="5.729405295352563 2.684042690999889e-08 3.307874028438338 1.9098017966399612 5.401734706660639 3.307874017670092 3.202946601018012e-07 2.1329418274695307e-07 6.615747502110029" Properties=species:S:1:pos:R:3:forces:R:3 energy=-24.510921478271484 free_energy=-24.510921478271484 stress="-2.9443752282531932e-05 2.1153174767363225e-09 -1.0435311992296192e-07 2.1153174767363225e-09 -2.935445445473306e-05 -1.1159281854133951e-07 -1.0435311992296192e-07 -1.1159281854133951e-07 -2.956120624730829e-05" pbc="T T T"
Ir       1.90980127       1.35043548       3.30787767      -0.00000112       0.00002082       0.00003603
Ir       5.72940493       4.05129751       9.92361450      -0.00000758      -0.00003120      -0.00006187
Be      -0.00000013      -0.00000005       0.00000041       0.00000225       0.00000064       0.00000138
Br       1.86133803       1.31616541       6.61574651       0.00028759       0.00021172      -0.00001128
Br       5.77787025       4.08557002       6.61575090      -0.00029245      -0.00021289       0.00002005
Br       4.79873595       1.31616447       4.91983940      -0.00014995       0.00020958       0.00025600
Br       2.84047217       4.08557075       8.31165669       0.00015777      -0.00020609      -0.00025029
Br       2.84046927       4.08556955       4.91983974       0.00013807      -0.00021555       0.00025725
Br       4.79873791       1.31616654       8.31165667      -0.00013460       0.00022312      -0.00024733
