9
Lattice="5.4311966158275355 -8.358335860730522e-08 3.135702958412811 1.8103987863435145 5.120581306660289 3.13570297018364 -2.672365281940614e-08 -4.4802353435348e-09 6.271405963112368" Properties=species:S:1:pos:R:3:forces:R:3 energy=-28.089439392089844 free_energy=-28.089439392089844 stress="6.975333235459402e-05 4.2077239470472705e-08 1.9666359207803907e-08 4.2077239470472705e-08 6.968335947021842e-05 -8.864527778484899e-09 1.9666359207803907e-08 -8.864527778484899e-09 6.972503615543246e-05" pbc="T T T"
Ir       1.81039896       1.28014527       3.13570376       0.00000070       0.00000004       0.00000580
Ir       5.43119624       3.84043549       9.40710890      -0.00000259      -0.00000237       0.00000166
B       -0.00000132       0.00000025       0.00000288      -0.00001493       0.00000145       0.00003143
Cl       1.68128348       1.18884713       6.27140539      -0.00151862      -0.00107536      -0.00000413
Cl       5.56031248       3.93173481       6.27140534       0.00152747       0.00107944      -0.00000269
Cl       4.59055550       1.18884650       4.59173653       0.00076488      -0.00108002      -0.00132807
Cl       2.65104140       3.93173371       7.95107391      -0.00075537       0.00107137       0.00130956
Cl       2.65104028       3.93173435       4.59173663      -0.00076183       0.00107829      -0.00132614
Cl       4.59055454       1.18884738       7.95107422       0.00076005      -0.00107286       0.00131256
