9
Lattice="5.274770849529619 1.099576481876234e-08 3.045390757419791 1.7582570043525412 4.9731017375084905 3.045390680962825 6.157627788188319e-08 -5.009929501410403e-08 6.090781408186394" Properties=species:S:1:pos:R:3:forces:R:3 energy=-27.58859634399414 free_energy=-27.58859634399414 stress="0.0002497789973858744 1.965329055053644e-08 2.7182387896118598e-08 1.965329055053644e-08 0.00024980283342301846 2.645450969396279e-08 2.7182387896118598e-08 2.645450969396279e-08 0.00024979395675472915" pbc="T T T"
Ir       1.75825653       1.24327568       3.04539024      -0.00000431       0.00000259      -0.00000642
Ir       5.27477044       3.72982637       9.13617296      -0.00000423       0.00000082       0.00000867
Be       0.00000008       0.00000011      -0.00000018       0.00000051       0.00000113       0.00000076
Cl       1.69985075       1.20197585       6.09078150       0.00277360       0.00195755       0.00000138
Cl       5.33317745       3.77112585       6.09078130      -0.00277244      -0.00196156      -0.00000187
Cl       4.42484605       1.20197590       4.51750462      -0.00138314       0.00196196       0.00240168
Cl       2.60818217       3.77112563       7.66405836       0.00138650      -0.00196145      -0.00240205
Cl       2.60818265       3.77112572       4.51750424       0.00138920      -0.00196099       0.00239882
Cl       4.42484559       1.20197576       7.66405832      -0.00138566       0.00196002      -0.00240117
