9
Lattice="5.499756606091938 1.337512047380962e-07 3.175286187491238 1.8332523234582776 5.185220984331813 3.1752861955871987 6.181281731192748e-08 5.362377885697725e-08 6.350572267919535" Properties=species:S:1:pos:R:3:forces:R:3 energy=-24.990371704101562 free_energy=-24.990371704101562 stress="-7.073198503348976e-05 -5.2814769446740684e-08 -2.094856199619244e-08 -5.2814769446740684e-08 -7.081560033839196e-05 -9.6008951899762e-09 -2.094856199619244e-08 -9.6008951899762e-09 -7.085025572450832e-05" pbc="T T T"
Ir       1.83325300       1.29630542       3.17528682       0.00000639      -0.00000107       0.00000168
Ir       5.49975570       3.88891680       9.52585796      -0.00000448       0.00000090      -0.00000568
C       -0.00000271       0.00000669       0.00000459      -0.00004247       0.00010511       0.00007270
Cl       1.80532946       1.27656026       6.35057234       0.00002690       0.00001180      -0.00000304
Cl       5.52767911       3.90865947       6.35057265      -0.00003998      -0.00003470      -0.00000203
Cl       4.59709275       1.27655879       4.73874504       0.00000231      -0.00000936      -0.00000671
Cl       2.73591886       3.90865833       7.96239476       0.00003802      -0.00005320      -0.00006415
Cl       2.73591775       3.90865894       4.73874723       0.00002355      -0.00003393       0.00003318
Cl       4.59709211       1.27656001       7.96239692      -0.00001004       0.00001439      -0.00002590
