9
Lattice="4.298316871667535 2.058760298240849e-07 2.4816350982541686 1.4327723996881705 4.052492558281048 2.4816352454255783 3.5890125570486465e-09 1.8278524401791063e-07 4.9632701902920155" Properties=species:S:1:pos:R:3:forces:R:3 energy=-37.627174377441406 free_energy=-37.627174377441406 stress="-1.526339656265918e-05 -1.240140363734099e-07 -2.7807040225980018e-08 -1.240140363734099e-07 -1.558873918838799e-05 -8.43393763716449e-08 -2.7807040225980018e-08 -8.43393763716449e-08 -1.6211602996918373e-05" pbc="T T T"
Ir       1.43276108       1.01311288       2.48162379      -0.00009469      -0.00008971      -0.00009598
Ir       4.29833306       3.03936997       7.44491554       0.00014030      -0.00000007       0.00008851
C       -0.00000048       0.00000132       0.00000067      -0.00001153       0.00001319      -0.00000358
F        1.27666997       0.90274393       4.96327044       0.00094634       0.00068510      -0.00000345
F        4.45441783       3.14975189       4.96327059      -0.00095671      -0.00066376       0.00000312
F        3.65998012       0.90274378       3.58726394      -0.00048962       0.00068921       0.00083339
F        2.07110765       3.14975203       6.33927669       0.00047749      -0.00066316      -0.00082463
F        2.07110697       3.14975088       3.58726357       0.00046873      -0.00066602       0.00082606
F        3.65998085       0.90274480       6.33927667      -0.00048059       0.00069481      -0.00082427
