9
Lattice="5.789047118162064 5.1384553051506214e-08 3.342307788164103 1.929682393330811 5.45796598060196 3.3423078363769996 -4.6875696830145305e-08 2.59023338566551e-08 6.68461565751935" Properties=species:S:1:pos:R:3:forces:R:3 energy=-23.52202606201172 free_energy=-23.52202606201172 stress="0.00018209357222076505 -1.7579601774286857e-08 3.584571217629673e-08 -1.7579601774286857e-08 0.00018200492195319384 3.123129488358245e-08 3.584571217629673e-08 3.123129488358245e-08 0.00018208345863968134" pbc="T T T"
Ir       1.92968377       1.36449168       3.34230637       0.00000700      -0.00000196      -0.00000936
Ir       5.78904699       4.09347575      10.02692494      -0.00000221       0.00000859       0.00000992
C        0.00000090       0.00000067       0.00000013       0.00000602       0.00000227       0.00000085
Br       1.88805783       1.33505782       6.68461594       0.00211477       0.00149240       0.00000111
Br       5.83067099       4.12290744       6.68461519      -0.00211959      -0.00149684      -0.00000263
Br       4.84501826       1.33505824       4.97741418      -0.00105864       0.00149728       0.00183281
Br       2.87371074       4.12290700       8.39181728       0.00105477      -0.00149845      -0.00183263
Br       2.87371130       4.12290726       4.97741373       0.00105896      -0.00149648       0.00182986
Br       4.84501708       1.33505838       8.39181754      -0.00106107       0.00149300      -0.00182992
