9
Lattice="5.9648798288506155 -2.1261530383661973e-07 3.443825277178072 1.988293096828251 5.623743111640943 3.4438252408044825 -5.3760701976938494e-08 -8.256297424884332e-08 6.887650647472461" Properties=species:S:1:pos:R:3:forces:R:3 energy=-22.404111862182617 free_energy=-22.404111862182617 stress="0.000122113706311211 3.3904423712982634e-09 -1.7918477368539243e-08 3.3904423712982634e-09 0.00012203394726384431 -1.2303229546262173e-08 -1.7918477368539243e-08 -1.2303229546262173e-08 0.00012200805940665305" pbc="T T T"
Ir       1.98829773       1.40593785       3.44382391       0.00004952       0.00001658      -0.00001514
Ir       5.96487877       4.21780894      10.33147089      -0.00001732       0.00001707      -0.00004871
C        0.00000011       0.00000022      -0.00000077       0.00000222       0.00000231      -0.00000528
I        1.94009437       1.37185238       6.88765145       0.00699043       0.00492941       0.00000676
I        6.01307812       4.25188951       6.88765233      -0.00699103      -0.00493529       0.00002256
I        4.99483121       1.37185213       5.12399578      -0.00351216       0.00492874       0.00605270
I        2.95834050       4.25188780       8.65130775       0.00350265      -0.00495467      -0.00603037
I        2.95833931       4.25188895       5.12399622       0.00348502      -0.00494868       0.00605199
I        4.99483132       1.37185353       8.65130726      -0.00350960       0.00494464      -0.00603478
