9
Lattice="4.429913796530865 -5.4676306484823684e-08 2.5576120525752755 1.4766378972830065 4.176562850533831 2.5576120237274185 5.060173258947432e-08 4.495039441792571e-10 5.1152240175058274" Properties=species:S:1:pos:R:3:forces:R:3 energy=-44.09661102294922 free_energy=-44.09661102294922 stress="0.00030184374190866947 1.8169727944439273e-09 -5.474616671108379e-08 1.8169727944439273e-09 0.00030199100729078054 -1.8957148739673357e-08 -5.474616671108379e-08 -1.8957148739673357e-08 0.0003016453410964459" pbc="T T T"
Ir       1.47664210       1.04413729       2.55761449       0.00010865      -0.00007693       0.00006436
Ir       4.42991972       3.13242058       7.67283908       0.00013435      -0.00004010       0.00006871
Ga       0.00000062      -0.00000033       0.00000049       0.00000807       0.00000167       0.00000847
O        1.50209097       1.06213780       5.11522004      -0.00192207      -0.00133991      -0.00006375
O        4.40445796       3.11442817       5.11522297       0.00184947       0.00142515      -0.00002896
O        3.67887039       1.06213969       3.85846080       0.00095883      -0.00132394      -0.00167018
O        2.22767896       3.11442512       6.37198484      -0.00103757       0.00136095       0.00159001
O        2.22768007       3.11442350       3.85846091      -0.00100565       0.00133157      -0.00164294
O        3.67886606       1.06213908       6.37198904       0.00090632      -0.00133824       0.00167406
