9
Lattice="6.2740200455443675 -6.36070148007611e-08 3.6223071657584076 2.091339945877065 5.91520293880499 3.622307181927365 -3.51306093875564e-08 -5.038282202037952e-09 7.244614392364908" Properties=species:S:1:pos:R:3:forces:R:3 energy=-20.3934268951416 free_energy=-20.3934268951416 stress="0.00011217087740078568 -1.5554270094142453e-09 -4.337471271043114e-09 -1.5554270094142453e-09 0.0001121612949646078 2.302093654593662e-10 -4.337471271043114e-09 2.302093654593662e-10 0.00011215249833185226" pbc="T T T"
Ir       2.09134143       1.47880113       3.62230632       0.00001217       0.00000472      -0.00000707
Ir       6.27401868       4.43640033      10.86692393      -0.00000928      -0.00001346       0.00001935
Ga      -0.00000017      -0.00000013       0.00000007       0.00000165      -0.00000025      -0.00000016
I        2.19438327       1.55166368       7.24461502      -0.00002615      -0.00001554       0.00000328
I        6.17097667       4.36353986       7.24461312       0.00002304       0.00001745      -0.00000749
I        5.17682803       1.55166422       5.52269816       0.00001158      -0.00000997      -0.00002708
I        3.18853145       4.36353925       8.96652979      -0.00001379       0.00001502       0.00002240
I        3.18853247       4.36353944       5.52269834      -0.00000773       0.00001642      -0.00002596
I        5.17682793       1.55166367       8.96653012       0.00000849      -0.00001441       0.00002271
