9
Lattice="4.974954950094654 -2.9822876518977054e-07 2.8722911033684553 1.6583180215807296 4.690431830982178 2.8722911275214305 -7.769576368616688e-09 2.4087313674921775e-08 5.744582220194197" Properties=species:S:1:pos:R:3:forces:R:3 energy=-36.1729736328125 free_energy=-36.1729736328125 stress="-0.00030164484633132815 1.7252497208630757e-09 3.171429909798462e-07 1.7252497208630757e-09 -0.00030087699997238815 2.11263056826283e-07 3.171429909798462e-07 2.11263056826283e-07 -0.00030152680119499564" pbc="T T T"
Ir       1.65830393       1.17260404       2.87229003      -0.00039642      -0.00012916      -0.00000431
Ir       4.97494114       3.51783067       8.61686318      -0.00037820       0.00021448      -0.00030671
Ga       0.00000151      -0.00000009       0.00000060       0.00005032      -0.00000351       0.00002744
S        1.80004000       1.27281259       5.74458104      -0.00052227      -0.00060663      -0.00003053
S        4.83323808       3.41761340       5.74458801       0.00067260       0.00044685       0.00016360
S        4.07494053       1.27281401       4.43117278       0.00041278      -0.00057423      -0.00042429
S        2.55834469       3.41761715       7.05799878      -0.00008471       0.00056149       0.00060357
S        2.55833982       3.41761652       4.43116873      -0.00022989       0.00053605      -0.00052883
S        4.07494214       1.27281804       7.05799466       0.00047541      -0.00044501       0.00050037
