9
Lattice="5.3522207337144305 8.266467435533279e-07 3.090107497303384 1.7840743628733189 5.04612136697765 3.0901074876065326 5.948960309487347e-08 3.018930970398252e-08 6.180214891567761" Properties=species:S:1:pos:R:3:forces:R:3 energy=-34.227996826171875 free_energy=-34.227996826171875 stress="7.917315815575421e-05 -2.487277924956288e-06 -2.624341846058087e-07 -2.487277924956288e-06 8.242003968916833e-05 -1.583647133429622e-07 -2.624341846058087e-07 -1.583647133429622e-07 7.226925663417205e-05" pbc="T T T"
Ir       1.78402197       1.26148270       3.09012756      -0.00158741      -0.00145508       0.00052123
Ir       5.35227429       3.78464013       9.27034942       0.00161884       0.00147247       0.00073270
Ga       0.00000001      -0.00000005      -0.00000090      -0.00000058       0.00000150      -0.00003751
Se       1.99687355       1.41199601       6.18020613       0.00163028       0.00097138      -0.00023494
Se       5.13942174       3.63412639       6.18020201      -0.00163853      -0.00097020      -0.00035621
Se       4.35379653       1.41198134       4.81947018      -0.00042766       0.00048211       0.00202072
Se       2.78249132       3.63414971       7.54094741       0.00024985      -0.00025667      -0.00233813
Se       2.78249989       3.63414193       4.81947010       0.00048307      -0.00044686       0.00202587
Se       4.35380131       1.41197072       7.54094765      -0.00032781       0.00020155      -0.00233360
