9
Lattice="5.4008007038464 7.747877349558381e-08 3.1181537546674396 1.8002669799919524 5.091923773399974 3.118153744860265 6.454885907818855e-08 3.363162665504793e-08 6.236307397533008" Properties=species:S:1:pos:R:3:forces:R:3 energy=-24.757761001586914 free_energy=-24.757761001586914 stress="-0.00036021647974848747 7.656023370827825e-09 1.8225490450163306e-08 7.656023370827825e-09 -0.00036021857522428036 2.5959096205951937e-08 1.8225490450163306e-08 2.5959096205951937e-08 -0.00036025381996296346" pbc="T T T"
Ir       1.80026704       1.27298096       3.11815365       0.00000093      -0.00000061       0.00000001
Ir       5.40080111       3.81894280       9.35446252       0.00000152      -0.00000076       0.00000814
N        0.00000040      -0.00000026       0.00000178       0.00000266      -0.00000136       0.00000737
Cl       1.78278507       1.26061904       6.23630744      -0.00185943      -0.00131518      -0.00000150
Cl       5.41828255       3.83130485       6.23630705       0.00185969       0.00131635      -0.00000382
Cl       4.50940833       1.26061949       4.66208989       0.00092995      -0.00131394      -0.00161487
Cl       2.69165910       3.83130458       7.81052361      -0.00093120       0.00131625       0.00161034
Cl       2.69165905       3.83130474       4.66208991      -0.00093250       0.00131409      -0.00161305
Cl       4.50940836       1.26061934       7.81052361       0.00092816      -0.00131501       0.00160760
