9
Lattice="3.6208530113748414 0.00012622368064625264 2.0910142438138055 1.206916598429965 3.4141864887362425 2.090344785271025 0.0028425460366400448 0.002820303647758973 4.17559865803269" Properties=species:S:1:pos:R:3:forces:R:3 energy=-66.94995880126953 free_energy=-66.94995880126953 stress="-0.0007359322044067085 -3.46025699400343e-05 7.387678238046647e-07 -3.46025699400343e-05 -0.0008158212876878679 -2.575317239461583e-06 7.387678238046647e-07 -2.575317239461583e-06 -0.0006746696308255196" pbc="T T T"
Ir       1.08275654       0.76600582       2.30551510      -0.00319290      -0.00139236       0.00617409
Ir       3.46312750       2.44989696       6.54449473      -0.00437069      -0.00329685       0.00753212
N        0.01812237       0.01280642      -0.03138234       0.00014210       0.00070477      -0.00031567
F        1.29227702       0.91450619       4.08707997       0.00015068      -0.00125408      -0.00221801
F        3.63320817       2.56967868       4.12119207       0.00233316       0.00184274      -0.00312948
F        3.04085915       0.89404917       3.09526853       0.00235224      -0.00014162      -0.00257683
F        1.88011734       2.57739572       5.10518465       0.00057793       0.00263119      -0.00020051
F        1.85614234       2.56962073       3.09495452       0.00063825       0.00205398      -0.00453186
F        3.05584405       0.91456527       5.10549852       0.00137854      -0.00113964      -0.00072885
