9
Lattice="4.026645658607793 8.219374446606447e-09 2.324784952140807 1.3422152250170925 3.796357941934023 2.324784956069334 1.5257193313183796e-08 1.559990874146033e-08 4.6495698778553844" Properties=species:S:1:pos:R:3:forces:R:3 energy=-40.10527038574219 free_energy=-40.10527038574219 stress="0.000746962265111506 3.213919086419992e-08 6.835836074969848e-08 3.213919086419992e-08 0.0007467854884453118 -5.311756368087117e-08 6.835836074969848e-08 -5.311756368087117e-08 0.0007468704134225845" pbc="T T T"
Ir       1.34221524       0.94908946       2.32478497      -0.00000195       0.00000081      -0.00000258
Ir       4.02664570       2.84726844       6.97435484       0.00000043      -0.00000253       0.00000435
P        0.00000007       0.00000001       0.00000010      -0.00000144       0.00000465      -0.00000367
F        1.32661712       0.93805998       4.64956987      -0.00528577      -0.00373292       0.00000068
F        4.04224371       2.85829800       4.64956988       0.00528717       0.00373608      -0.00000294
F        3.36333707       0.93805999       3.47366909       0.00264427      -0.00373796      -0.00457934
F        2.00552385       2.85829799       5.82547070      -0.00264686       0.00373533       0.00457448
F        2.00552374       2.85829802       3.47366906      -0.00264014       0.00373456      -0.00457227
F        3.36333708       0.93805995       5.82547060       0.00264414      -0.00373840       0.00458205
