9
Lattice="5.606203141137339 1.8098975248979257e-07 3.2367430351070774 1.868734573197362 5.285579259001427 3.236742996691081 8.550164776721347e-08 1.3408999237703638e-08 6.473485922120934" Properties=species:S:1:pos:R:3:forces:R:3 energy=-27.203073501586914 free_energy=-27.203073501586914 stress="6.419216515496373e-05 3.4415922889330375e-10 9.81459002957763e-09 3.4415922889330375e-10 6.425901665352285e-05 -1.6330925944885166e-08 9.81459002957763e-09 -1.6330925944885166e-08 6.427544576581568e-05" pbc="T T T"
Ir       1.86873461       1.32139482       3.23674301      -0.00000030      -0.00000090      -0.00000065
Ir       5.60620317       3.96418450       9.71022943      -0.00000035      -0.00000170       0.00000440
P       -0.00000006       0.00000017       0.00000014       0.00000155      -0.00000149      -0.00000051
Cl       1.83123307       1.29487726       6.47348603      -0.00013487      -0.00009463      -0.00000105
Cl       5.64370461       3.99070205       6.47348601       0.00013594       0.00009566      -0.00000205
Cl       4.69058685       1.29487755       4.82263712       0.00006713      -0.00009443      -0.00011803
Cl       2.78435097       3.99070190       8.12433428      -0.00006871       0.00009721       0.00011800
Cl       2.78435112       3.99070197       4.82263719      -0.00006786       0.00009732      -0.00011868
Cl       4.69058681       1.29487766       8.12433467       0.00006765      -0.00009717       0.00011846
