9
Lattice="6.213915823533025 -1.5781788689742294e-08 3.5876058999764955 2.0713052332030024 5.858535818449491 3.5876059457525584 -1.5632111450875187e-07 -5.4471724741122235e-08 7.175212070709097" Properties=species:S:1:pos:R:3:forces:R:3 energy=-21.575061798095703 free_energy=-21.575061798095703 stress="9.549641981720924e-05 8.547681673576335e-09 9.779395959697013e-09 8.547681673576335e-09 9.551359107717872e-05 -3.0439233356105433e-09 9.779395959697013e-09 -3.0439233356105433e-09 9.550841787131503e-05" pbc="T T T"
Ir       2.07130243       1.46463016       3.58760564      -0.00002320      -0.00003104      -0.00000543
Ir       6.21392176       4.39390285      10.76282546       0.00004854       0.00000942       0.00005835
P       -0.00000019      -0.00000004      -0.00000010      -0.00000152       0.00000140      -0.00000251
I        2.15476393       1.52364931       7.17521214      -0.00228997      -0.00161070       0.00000039
I        6.13045581       4.33488816       7.17520858       0.00228102       0.00162106      -0.00002359
I        5.13653451       1.52364892       5.45368689       0.00115157      -0.00161350      -0.00197660
I        3.14868454       4.33488804       8.89673437      -0.00116475       0.00162571       0.00195754
I        3.14868735       4.33488856       5.45368776      -0.00114504       0.00162803      -0.00197184
I        5.13653342       1.52364704       8.89673498       0.00114334      -0.00163038       0.00196367
