9
Lattice="4.897056867342504 8.799958029001342e-07 2.827317618993611 1.6323527791776988 4.616990744294197 2.827318207206016 3.1794107950835116e-07 9.452282148016821e-07 5.6546346872971025" Properties=species:S:1:pos:R:3:forces:R:3 energy=-39.3428840637207 free_energy=-39.3428840637207 stress="-0.0002712444693315774 4.7252029844457866e-07 -7.194520179609754e-08 4.7252029844457866e-07 -0.0002715599548537284 -5.0773856230534875e-08 -7.194520179609754e-08 -5.0773856230534875e-08 -0.0002699937904253602" pbc="T T T"
Ir       1.63236885       1.15426627       2.82735149       0.00010300       0.00010357       0.00016107
Ir       4.89703510       3.46273596       8.48199262      -0.00013283      -0.00005658       0.00019547
Ru      -0.00000063       0.00000072       0.00000205      -0.00000060      -0.00000759       0.00000193
F        1.59944599       1.13097668       5.65462627      -0.00021489      -0.00016880      -0.00005162
F        4.92996423       3.48601188       5.65461674       0.00023620       0.00015560      -0.00009111
F        4.09733311       1.13097750       4.21246501       0.00008983      -0.00014174      -0.00025894
F        2.43207951       3.48601387       7.09678228      -0.00010459       0.00015624       0.00016110
F        2.43207626       3.48600463       4.21246213      -0.00009302       0.00011137      -0.00027868
F        4.09733791       1.13098260       7.09678500       0.00011693      -0.00015230       0.00016074
