9
Lattice="5.910178528850794 -2.393322290448754e-08 3.4122431566609 1.970059507418708 5.572169619084046 3.4122431213855395 7.764986441524027e-08 1.1703440975311366e-08 6.824486178828267" Properties=species:S:1:pos:R:3:forces:R:3 energy=-27.625911712646484 free_energy=-27.625911712646484 stress="0.00017907106666825712 -8.576196641740808e-09 2.031318580009156e-08 -8.576196641740808e-09 0.00017901569663081318 1.1879741634857055e-08 2.031318580009156e-08 1.1879741634857055e-08 0.00017908914014697075" pbc="T T T"
Ir       1.97005913       1.39304165       3.41224352      -0.00000263      -0.00000665       0.00000368
Ir       5.91017970       4.17912820      10.23672823       0.00000697       0.00000551      -0.00000553
Rh       0.00000004       0.00000006      -0.00000014      -0.00000163      -0.00000186      -0.00000117
Br       1.97577546       1.39708410       6.82448610       0.00507078       0.00358640      -0.00000223
Br       5.90446242       4.17508555       6.82448666      -0.00506933      -0.00358400       0.00000211
Br       4.92229058       1.39708378       5.12331528      -0.00253674       0.00358294       0.00439304
Br       2.95794731       4.17508572       8.52565743       0.00253378      -0.00358122      -0.00439118
Br       2.95794688       4.17508533       5.12331524       0.00253171      -0.00358412       0.00439226
Br       4.92229083       1.39708408       8.52565751      -0.00253288       0.00358298      -0.00439094
