9
Lattice="5.618011419161012 -1.0293393220473721e-07 3.243560377249563 1.872670449930178 5.29671144087878 3.2435602492102262 1.4982242170808412e-07 -5.0875065278718535e-08 6.487120494999071" Properties=species:S:1:pos:R:3:forces:R:3 energy=-29.46358871459961 free_energy=-29.46358871459961 stress="0.00013718727859668434 4.473742265531655e-08 -1.219895207071886e-08 4.473742265531655e-08 0.0001371420657960698 -1.614849809428165e-09 -1.219895207071886e-08 -1.614849809428165e-09 0.0001371619146084413" pbc="T T T"
Ir       1.87267013       1.32417778       3.24356102      -0.00000188       0.00000072       0.00000490
Ir       5.61801246       3.97253387       9.73067882       0.00000579       0.00000203      -0.00001390
Rh      -0.00000000      -0.00000010      -0.00000011       0.00000095       0.00000159       0.00000701
Cl       1.87974407       1.32917935       6.48712024       0.00290826       0.00205766      -0.00000058
Cl       5.61093808       3.96753170       6.48712141      -0.00291184      -0.00205830       0.00000571
Cl       4.67813955       1.32917907       4.87146648      -0.00145541       0.00205541       0.00252292
Cl       2.81254229       3.96753207       8.10277520       0.00145791      -0.00206187      -0.00252715
Cl       2.81254187       3.96753175       4.87146624       0.00145362      -0.00205922       0.00252557
Cl       4.67813970       1.32917953       8.10277514      -0.00145745       0.00206207      -0.00252426
