9
Lattice="5.680526279767947 3.46006427752269e-08 3.2796535133298015 1.8935087739513163 5.355651264156891 3.2796535455340337 2.7976996791875063e-08 5.92247190176424e-08 6.559306978202023" Properties=species:S:1:pos:R:3:forces:R:3 energy=-30.558025360107422 free_energy=-30.558025360107422 stress="0.00035235771792940795 7.29291693701839e-09 1.0538689032557613e-08 7.29291693701839e-09 0.00035234581446275115 1.3041020707760254e-08 1.0538689032557613e-08 1.3041020707760254e-08 0.00035233571543358266" pbc="T T T"
Ir       1.89350843       1.33891305       3.27965369      -0.00000262       0.00000022       0.00000093
Ir       5.68052657       4.01673855       9.83896183       0.00000322      -0.00000018       0.00000720
Ru       0.00000000      -0.00000011      -0.00000018      -0.00000070      -0.00000033       0.00000089
Cl       1.89081274       1.33700657       6.55930692       0.00389513       0.00275600      -0.00000079
Cl       5.68322223       4.01864479       6.55930637      -0.00389558      -0.00275505      -0.00000319
Cl       4.73511994       1.33700638       4.91714537      -0.00194727       0.00275528       0.00337324
Cl       2.83891495       4.01864505       8.20146843       0.00194772      -0.00275573      -0.00337589
Cl       2.83891526       4.01864471       4.91714524       0.00194764      -0.00275487       0.00337225
Cl       4.73512013       1.33700640       8.20146847      -0.00194764       0.00275448      -0.00337434
