9
Lattice="4.642900542382688 2.0405081329534823e-07 2.680579799120761 1.5476335876218696 4.377369322991611 2.6805800050385007 4.114800993081595e-08 2.812927330318409e-07 5.361159526971101" Properties=species:S:1:pos:R:3:forces:R:3 energy=-38.42376708984375 free_energy=-38.42376708984375 stress="-2.417261930531822e-05 2.418189737340981e-08 -3.5140455878490684e-08 2.418189737340981e-08 -2.417275209154468e-05 -4.082012949879754e-08 -3.5140455878490684e-08 -4.082012949879754e-08 -2.4089275029837154e-05" pbc="T T T"
Ir       1.54763492       1.09434263       2.68057936       0.00001153       0.00000393      -0.00000411
Ir       4.64290108       3.28302738       8.04173978       0.00000233      -0.00000151       0.00000257
Rh      -0.00000008      -0.00000009       0.00000008      -0.00000144      -0.00000071       0.00000095
F        1.61851860       1.14446615       5.36115894      -0.00106686      -0.00075491      -0.00000358
F        4.57201482       3.23290382       5.36116015       0.00106288       0.00075614       0.00000414
F        3.83364138       1.14446659       4.08225849       0.00053579      -0.00075520      -0.00092576
F        2.35689222       3.23290312       6.64006094      -0.00053960       0.00075277       0.00092469
F        2.35689328       3.23290303       4.08225816      -0.00053412       0.00075720      -0.00092738
F        3.83364019       1.14446641       6.64006098       0.00052935      -0.00075780       0.00092851
