9
Lattice="5.970788342718176 8.004287612022904e-09 3.4472362682181195 1.990262830866649 5.629313026635757 3.4472361947547876 8.311232939103656e-08 -3.120455230797091e-08 6.894472392481446" Properties=species:S:1:pos:R:3:forces:R:3 energy=-28.56939697265625 free_energy=-28.56939697265625 stress="-7.460269443981815e-06 -1.5630400085342444e-08 1.9264117412376436e-08 -1.5630400085342444e-08 -7.447457846865291e-06 4.04287092692357e-09 1.9264117412376436e-08 4.04287092692357e-09 -7.476700830011396e-06" pbc="T T T"
Ir       1.99026385       1.40732818       3.44723653       0.00000660      -0.00000080       0.00000209
Ir       5.97078775       4.22198457      10.34170850      -0.00000515      -0.00000365      -0.00000218
Ru      -0.00000007      -0.00000019      -0.00000004      -0.00000018       0.00000127      -0.00000319
Br       1.99651650       1.41175024       6.89447250       0.00047611       0.00033534       0.00000029
Br       5.96453463       4.21756299       6.89447254      -0.00047801      -0.00033581       0.00000017
Br       4.97252986       1.41175025       5.17626982      -0.00023987       0.00033871       0.00041145
Br       2.98852114       4.21756271       8.61267493       0.00023834      -0.00033476      -0.00041007
Br       2.98852119       4.21756272       5.17626979       0.00023910      -0.00033728       0.00041084
Br       4.97253017       1.41175051       8.61267488      -0.00023693       0.00033694      -0.00040933
