9
Lattice="6.259343691479221 -5.570980127589591e-08 3.6138337314150157 2.086447849483738 5.901365787941698 3.6138337230185154 2.714989652035051e-08 8.914286476773007e-09 7.227667415805077" Properties=species:S:1:pos:R:3:forces:R:3 energy=-26.181642532348633 free_energy=-26.181642532348633 stress="0.00010384398774476722 2.1749309908614123e-08 -4.727434887996651e-09 2.1749309908614123e-08 0.00010382010805187747 -1.5517136020548605e-08 -4.727434887996651e-09 -1.5517136020548605e-08 0.00010381015454186127" pbc="T T T"
Ir       2.08644866       1.47534240       3.61383333       0.00000521       0.00000664      -0.00000300
Ir       6.25934293       4.42602386      10.84150208      -0.00000290      -0.00000326       0.00000792
Ru       0.00000022       0.00000019       0.00000006      -0.00000314      -0.00000310      -0.00000093
I        2.13191727       1.50749316       7.22766764       0.00116029       0.00082062       0.00000084
I        6.21387440       4.39387234       7.22766700      -0.00115640      -0.00081890      -0.00000262
I        5.19338500       1.50749340       5.46012800      -0.00058104       0.00082259       0.00100351
I        3.15240633       4.39387213       8.99520682       0.00057934      -0.00082233      -0.00100410
I        3.15240675       4.39387235       5.46012794       0.00058065      -0.00082197       0.00100186
I        5.19338471       1.50749314       8.99520663      -0.00058203       0.00081970      -0.00100332
