9
Lattice="6.190880691641772 1.398392385935535e-08 3.574306665195225 2.063626923123159 5.836818373114692 3.574306643154754 1.9097135225179827e-08 -1.3490242965099927e-08 7.148613297313226" Properties=species:S:1:pos:R:3:forces:R:3 energy=-25.555931091308594 free_energy=-25.555931091308594 stress="6.594162550754845e-05 -1.152744477650458e-08 6.829325105428552e-09 -1.152744477650458e-08 6.592375575564802e-05 -8.674323481727697e-09 6.829325105428552e-09 -8.674323481727697e-09 6.592731369892135e-05" pbc="T T T"
Ir       2.06362624       1.45920609       3.57430660      -0.00000568       0.00001171       0.00000020
Ir       6.19088153       4.37761220      10.72292022       0.00000745      -0.00001220       0.00000181
Rh      -0.00000011      -0.00000005      -0.00000011      -0.00000167       0.00000009      -0.00000304
I        2.10698820       1.48986628       7.14861323       0.00046082       0.00033199       0.00000066
I        6.14751944       4.34695218       7.14861329      -0.00046057      -0.00033069      -0.00000021
I        5.13738691       1.48986631       5.39901201      -0.00022876       0.00033066       0.00040022
I        3.11712066       4.34695223       8.89821456       0.00022836      -0.00032988      -0.00040101
I        3.11712086       4.34695217       5.39901222       0.00022914      -0.00033032       0.00040052
I        5.13738682       1.48986607       8.89821438      -0.00022909       0.00032863      -0.00039921
