9
Lattice="6.217442636980628 3.917695698039181e-08 3.5896420171498407 2.072480892658519 5.861860114012737 3.5896420574570373 1.6450099123423153e-08 6.099797723163059e-08 7.179284005807264" Properties=species:S:1:pos:R:3:forces:R:3 energy=-19.396923065185547 free_energy=-19.396923065185547 stress="5.594169124378823e-05 1.956751205511864e-08 3.923914804193629e-10 1.956751205511864e-08 5.6128152209566906e-05 -4.3257561088694274e-08 3.923914804193629e-10 -4.3257561088694274e-08 5.599767609965056e-05" pbc="T T T"
Ir       2.07248520       1.46546051       3.58964031       0.00003066      -0.00003633      -0.00001297
Ir       6.21744076       4.39640141      10.76892899      -0.00001507       0.00005167       0.00002029
S       -0.00000044       0.00000050      -0.00000084      -0.00000133      -0.00000125      -0.00000112
I        2.18413017       1.54440958       7.17928523      -0.00036082      -0.00028170       0.00000784
I        6.10579453       4.31744949       7.17928224       0.00035940       0.00027797      -0.00000999
I        5.12537613       1.54441078       5.48115329       0.00017455      -0.00027549      -0.00032182
I        3.16454525       4.31744990       8.87741477      -0.00018189       0.00027003       0.00031865
I        3.16454676       4.31744852       5.48115351      -0.00017395       0.00027330      -0.00032282
I        5.12537576       1.54441019       8.87741484       0.00016844      -0.00027824       0.00032191
