9
Lattice="5.610064715995647 -5.746567002228028e-09 3.2389720311458854 1.8700215592401268 5.2892198030795585 3.2389720438600422 5.1402213366823094e-08 5.19184352740674e-08 6.477943973260519" Properties=species:S:1:pos:R:3:forces:R:3 energy=-24.327964782714844 free_energy=-24.327964782714844 stress="0.00011285311484243721 -1.9444971854909454e-08 -1.3520215169648964e-08 -1.9444971854909454e-08 0.0001129345764638856 -6.37457198138236e-09 -1.3520215169648964e-08 -6.37457198138236e-09 0.00011283066851319745" pbc="T T T"
Ir       1.87002178       1.32230533       3.23897218       0.00000145       0.00000423       0.00000088
Ir       5.61006482       3.96691487       9.71691626       0.00000194      -0.00000252      -0.00000002
S       -0.00000011      -0.00000011      -0.00000008       0.00000074       0.00000073       0.00000122
Cl       1.88832529       1.33524794       6.47794389      -0.00170681      -0.00120841      -0.00000023
Cl       5.59176113       3.95397181       6.47794382       0.00170651       0.00120710       0.00000017
Cl       4.66590189       1.33524829       4.87430965       0.00085256      -0.00120921      -0.00147785
Cl       2.81418437       3.95397154       8.08157841      -0.00085390       0.00120643       0.00147928
Cl       2.81418416       3.95397192       4.87430995      -0.00085432       0.00120904      -0.00147933
Cl       4.66590196       1.33524783       8.08157800       0.00085195      -0.00120740       0.00147596
