9
Lattice="5.8802626180414554 -9.948793978471752e-08 3.394971200739067 1.9600874461631022 5.543964740671349 3.3949711996754477 -6.144655586072127e-08 -4.4751923229545295e-08 6.789942507906698" Properties=species:S:1:pos:R:3:forces:R:3 energy=-21.980789184570312 free_energy=-21.980789184570312 stress="0.00013438911992125213 1.571550711787495e-08 -1.9315409716114118e-08 1.571550711787495e-08 0.00013442058116197586 1.2612614064266836e-08 -1.9315409716114118e-08 1.2612614064266836e-08 0.00013439358735922724" pbc="T T T"
Ir       1.96008756       1.38599085       3.39497080      -0.00000133      -0.00000192      -0.00000320
Ir       5.88026301       4.15797319      10.18491380       0.00000374      -0.00000012       0.00000088
S       -0.00000024      -0.00000004       0.00000026      -0.00000178      -0.00000031      -0.00000122
Br       1.98943636       1.40674463       6.78994257       0.00485449       0.00343776       0.00000004
Br       5.85091345       4.13722061       6.78994213      -0.00485775      -0.00343420      -0.00000015
Br       4.88554413       1.40674405       5.11787415      -0.00242911       0.00343573       0.00420676
Br       2.95480574       4.13722029       8.46201096       0.00243025      -0.00343694      -0.00420690
Br       2.95480585       4.13722067       5.11787418       0.00242857      -0.00343373       0.00420932
Br       4.88554419       1.40674415       8.46201077      -0.00242706       0.00343385      -0.00420566
