9
Lattice="7.083719730347809 -8.417441912095611e-08 4.089787466148706 2.361239753464418 6.6785952679372285 4.08978760002085 -1.6896292525629628e-07 4.4484430431589433e-08 8.179575224949586" Properties=species:S:1:pos:R:3:forces:R:3 energy=-22.85594940185547 free_energy=-22.85594940185547 stress="0.00011182959860889241 2.2418934264578638e-08 -8.212058810741496e-10 2.2418934264578638e-08 0.00011180873116245493 2.1256989501949874e-09 -8.212058810741496e-10 2.1256989501949874e-09 0.00011178934073541313" pbc="T T T"
K        2.36124062       1.66964889       4.08978714       0.00000008      -0.00000017       0.00000052
K        7.08371859       5.00894623      12.26936310      -0.00000014       0.00000004      -0.00000052
As      -0.00000010       0.00000028       0.00000063       0.00000038      -0.00000139      -0.00000428
I        2.32357000       1.64301275       8.17957500      -0.00329728      -0.00233210       0.00000064
I        7.12138933       5.03558272       8.17957509       0.00329748       0.00233217      -0.00000015
I        5.92193492       1.64301154       6.10205717       0.00164724      -0.00232907      -0.00285081
I        3.52302476       5.03558317      10.25709286      -0.00164871       0.00233171       0.00285346
I        3.52302457       5.03558343       6.10205737      -0.00164717       0.00232952      -0.00285240
I        5.92193458       1.64301191      10.25709276       0.00164815      -0.00233069       0.00285352
