9
Lattice="6.56488381213496 2.487131382156418e-07 3.790237030671295 2.188294600053119 6.189432044633387 3.7902374437321456 -3.1569070434327133e-07 2.826672229383008e-07 7.580474608134842" Properties=species:S:1:pos:R:3:forces:R:3 energy=-26.030881881713867 free_energy=-26.030881881713867 stress="0.0001357717119390145 -5.563355331972275e-10 -1.3279390920217793e-08 -5.563355331972275e-10 0.00013577030040323734 3.411055615742953e-08 -1.3279390920217793e-08 3.411055615742953e-08 0.00013576727360486984" pbc="T T T"
K        2.18829464       1.54735810       3.79023735       0.00000033      -0.00000015      -0.00000034
K        6.56488352       4.64207443      11.37071169      -0.00000044       0.00000006      -0.00000010
As      -0.00000055      -0.00000107      -0.00000340       0.00000532       0.00000817       0.00003038
Br       2.14207650       1.51467736       7.58047536      -0.00305478      -0.00215954      -0.00000188
Br       6.61110235       4.67475596       7.58047413       0.00304767       0.00215425      -0.00000026
Br       5.49384507       1.51467750       5.64533046       0.00152960      -0.00216378      -0.00265086
Br       3.25933237       4.67475572       9.51562004      -0.00152190       0.00215325       0.00263579
Br       3.25933313       4.67475592       5.64533035      -0.00152805       0.00215915      -0.00264633
Br       5.49384547       1.51467649       9.51562062       0.00152235      -0.00215141       0.00263356
