9
Lattice="5.146179787972651 -2.393142876625679e-09 2.9711482578447823 1.7153932429284724 4.851864826615623 2.9711482881086226 -5.408100432944614e-08 -1.1756659877464768e-09 5.942296609360612" Properties=species:S:1:pos:R:3:forces:R:3 energy=-40.77580261230469 free_energy=-40.77580261230469 stress="0.00018460843421053141 3.1691904212038935e-08 -3.5921601693189587e-08 3.1691904212038935e-08 0.00018458912381902337 5.2528417171515684e-08 -3.5921601693189587e-08 5.2528417171515684e-08 0.00018456604448147118" pbc="T T T"
K        1.71539327       1.21296653       2.97114855      -0.00000008      -0.00000034      -0.00000027
K        5.14617991       3.63889842       8.91344520      -0.00000066       0.00000030      -0.00000104
As      -0.00000001       0.00000014      -0.00000002       0.00000455      -0.00000170       0.00000394
F        1.57344706       1.11259507       5.94229673      -0.00093752      -0.00066257       0.00000011
F        5.28812587       3.73926981       5.94229670       0.00093561       0.00066260      -0.00000022
F        4.35945604       1.11259514       4.33379303       0.00046858      -0.00066265      -0.00081143
F        2.50211664       3.73926963       7.55079963      -0.00046813       0.00066265       0.00080976
F        2.50211669       3.73926967       4.33379292      -0.00046715       0.00066066      -0.00080746
F        4.35945634       1.11259490       7.55079975       0.00046507      -0.00065905       0.00080618
