9
Lattice="6.199150146047621 -3.322229708285788e-08 3.5790810668739086 2.06638322721786 5.844614830197036 3.579081280740083 -3.310076093428235e-08 2.3852582090035286e-07 7.158162191080018" Properties=species:S:1:pos:R:3:forces:R:3 energy=-29.083141326904297 free_energy=-29.083141326904297 stress="0.00010344525799155235 -1.6817558901038865e-08 -2.2549997424903268e-08 -1.6817558901038865e-08 0.00010347741044824943 3.2130547111819396e-08 -2.2549997424903268e-08 3.2130547111819396e-08 0.00010345977352699265" pbc="T T T"
K        2.06638340       1.46115383       3.57908114      -0.00000012      -0.00000002       0.00000003
K        6.19915000       4.38346131      10.73724319      -0.00000011      -0.00000028      -0.00000003
As       0.00000048      -0.00000007      -0.00000065      -0.00000386      -0.00000035       0.00000413
Cl       1.99300694       1.40926913       7.15816249      -0.00168508      -0.00119187      -0.00000116
Cl       6.27252635       4.43534551       7.15816236       0.00168663       0.00119360      -0.00000009
Cl       5.20264622       1.40926967       5.30507660       0.00084528      -0.00119518      -0.00146466
Cl       3.06288700       4.43534570       9.01124894      -0.00084387       0.00119470       0.00146076
Cl       3.06288665       4.43534597       5.30507556      -0.00084254       0.00119194      -0.00145879
Cl       5.20264646       1.40926914       9.01124857       0.00084378      -0.00119257       0.00145990
