9
Lattice="7.299831156985213 1.1563626533878905e-07 4.214559369098136 2.433276939221893 6.882347238904164 4.214559753837444 -2.695674332582594e-07 2.805946438125406e-07 8.42911920510057" Properties=species:S:1:pos:R:3:forces:R:3 energy=-23.08118438720703 free_energy=-23.08118438720703 stress="0.00014555368397850543 1.7539509400421593e-08 -6.557629994574654e-09 1.7539509400421593e-08 0.00014555180678144097 -3.098208356533405e-09 -6.557629994574654e-09 -3.098208356533405e-09 0.0001455452584195882" pbc="T T T"
K        2.43327731       1.72058622       4.21455817      -0.00000093       0.00000201       0.00000104
K        7.29983047       5.16176127      12.64368015       0.00000092      -0.00000179      -0.00000088
Bi       0.00000164       0.00000115      -0.00000112      -0.00000876      -0.00000579       0.00000577
I        2.50450605       1.77095337       8.42911928      -0.00442998      -0.00313159       0.00000182
I        7.22860080       5.11139341       8.42911940       0.00443715       0.00313712      -0.00000234
I        6.04757790       1.77095304       6.38352578       0.00221632      -0.00313089      -0.00383945
I        3.68552911       5.11139469      10.47471291      -0.00221445       0.00312898       0.00383559
I        3.68552966       5.11139417       6.38352609      -0.00221504       0.00313398      -0.00383784
I        6.04757838       1.77095321      10.47471262       0.00221469      -0.00313204       0.00383623
