9
Lattice="5.571003984422127 -3.1664869566045577e-08 3.2164208828422742 1.8570012628851256 5.252393115927236 3.216420944159817 -2.0917151540889716e-08 6.030768492494683e-08 6.432841801913983" Properties=species:S:1:pos:R:3:forces:R:3 energy=-39.3758544921875 free_energy=-39.3758544921875 stress="-8.540029375581071e-05 6.055105217228629e-08 9.975660475447512e-08 6.055105217228629e-08 -8.548270125174895e-05 -4.5655720981585546e-08 9.975660475447512e-08 -4.5655720981585546e-08 -8.549242920707911e-05" pbc="T T T"
K        1.85700062       1.31309788       3.21642061       0.00000013       0.00000133       0.00000213
K        5.57100336       3.93929499       9.64926309       0.00000127      -0.00000077      -0.00000222
Bi      -0.00000009       0.00000043       0.00000002       0.00000077      -0.00000599       0.00000853
F        1.76507089       1.24809348       6.43284171       0.00022596       0.00015813       0.00000027
F        5.66293498       4.00429953       6.43284202      -0.00022495      -0.00015783      -0.00000137
F        4.68846958       1.24809328       4.74501706      -0.00011683       0.00016546       0.00020170
F        2.73953632       4.00430019       8.12066742       0.00011554      -0.00016540      -0.00020403
F        2.73953661       4.00429986       4.74501683       0.00011170      -0.00015467       0.00019157
F        4.68846861       1.24809366       8.12066626      -0.00011367       0.00015992      -0.00019640
