9
Lattice="6.443366729470424 1.6291276789011654e-07 3.720079385668461 2.1477890059602793 6.074864831614831 3.7200794851899777 -1.2275629394008076e-07 3.508672372289171e-08 7.440158983956986" Properties=species:S:1:pos:R:3:forces:R:3 energy=-29.25945472717285 free_energy=-29.25945472717285 stress="0.00016340968431904912 4.173643652904957e-09 -8.085152991554878e-09 4.173643652904957e-09 0.00016343141032848507 1.1489112439200255e-10 -8.085152991554878e-09 1.1489112439200255e-10 0.00016340508591383696" pbc="T T T"
K        2.14778903       1.51871605       3.72007947       0.00000027       0.00000045      -0.00000026
K        6.44336649       4.55614886      11.16023845      -0.00000032      -0.00000004       0.00000015
Bi      -0.00000070      -0.00000037      -0.00000042       0.00000692       0.00000870       0.00000259
Cl       2.16213614       1.52886104       7.44015886      -0.00291798      -0.00206347      -0.00000020
Cl       6.42902045       4.54600434       7.44015906       0.00291017       0.00205806      -0.00000003
Cl       5.36229875       1.52886108       5.59254346       0.00145702      -0.00206098      -0.00252360
Cl       3.22885676       4.54600392       9.28777458      -0.00145614       0.00205889       0.00252038
Cl       3.22885664       4.54600371       5.59254331      -0.00145717       0.00205962      -0.00252193
Cl       5.36229877       1.52886143       9.28777444       0.00145726      -0.00206113       0.00252303
