9
Lattice="6.77638932933615 -2.8742976553349483e-07 3.912350165153058 2.2587962555176326 6.388840636763545 3.912350020705318 8.764073465569145e-08 -1.1494023157830748e-07 7.824700178507892" Properties=species:S:1:pos:R:3:forces:R:3 energy=-26.28263282775879 free_energy=-26.28263282775879 stress="7.073456072248518e-05 -4.89018958660381e-08 1.610930766560159e-08 -4.89018958660381e-08 7.07726358086802e-05 -2.6818220533186832e-08 1.610930766560159e-08 -2.6818220533186832e-08 7.081568764988333e-05" pbc="T T T"
K        2.25879665       1.59721007       3.91235021      -0.00000011      -0.00000079      -0.00000027
K        6.77638906       4.79162992      11.73705001      -0.00000015      -0.00000003       0.00000042
Bi      -0.00000256      -0.00000030      -0.00000022       0.00002303       0.00000391      -0.00000042
Br       2.31392731       1.63619364       7.82469996      -0.00093609      -0.00066178       0.00000032
Br       6.72125938       4.75264744       7.82470000       0.00092162       0.00065234       0.00000003
Br       5.61942583       1.63619337       5.91626984       0.00046421      -0.00065807      -0.00080584
Br       3.41576038       4.75264662       9.73313047      -0.00046816       0.00066102       0.00081024
Br       3.41576056       4.75264650       5.91627084      -0.00047062       0.00066401      -0.00081331
Br       5.61942615       1.63619360       9.73313034       0.00046623      -0.00066057       0.00080878
