9
Lattice="6.50672397506197 -2.0101434973569512e-07 3.756659141488924 2.168907961306228 6.1345980502466375 3.7566588658554236 1.3087537074922238e-07 -2.450378337268971e-07 7.513318056295178" Properties=species:S:1:pos:R:3:forces:R:3 energy=-25.481035232543945 free_energy=-25.481035232543945 stress="0.00013509247219190001 -6.771018856710498e-09 4.104395046056197e-09 -6.771018856710498e-09 0.00013510412827599794 -2.1978788566912044e-08 4.104395046056197e-09 -2.1978788566912044e-08 0.0001350985112367198" pbc="T T T"
K        2.16890754       1.53364939       3.75665917       0.00000036       0.00000001      -0.00000011
K        6.50672427       4.60094817      11.26997714      -0.00000024      -0.00000046      -0.00000024
Ga       0.00000039       0.00000090       0.00000011      -0.00000212      -0.00000273       0.00000285
Br       2.08344460       1.47321750       7.51331773      -0.00426275      -0.00301379       0.00000117
Br       6.59218717       4.66137971       7.51331779       0.00426468       0.00301659       0.00000062
Br       5.46500164       1.47321806       5.56097532       0.00213327      -0.00301677      -0.00369447
Br       3.21063060       4.66137981       9.46566081      -0.00213110       0.00301418       0.00369155
Br       3.21063089       4.66137909       5.56097620      -0.00213419       0.00301892      -0.00369564
Br       5.46500125       1.47321795       9.46566017       0.00213212      -0.00301594       0.00369439
