9
Lattice="5.364995498945625 4.497063111088212e-07 3.097480929184304 1.7883319354552007 5.058164950956232 3.0974814860627755 1.5594238055061608e-07 7.92301782110238e-07 6.194961588268347" Properties=species:S:1:pos:R:3:forces:R:3 energy=-39.672237396240234 free_energy=-39.672237396240234 stress="-0.00017911333998199552 -1.7354096826238674e-08 -2.8650168459876113e-08 -1.7354096826238674e-08 -0.00017921286053024232 1.0278559159360157e-07 -2.8650168459876113e-08 1.0278559159360157e-07 -0.0001789515372365713" pbc="T T T"
K        1.78833168       1.26454116       3.09748017       0.00000091      -0.00000089      -0.00000295
K        5.36499606       3.79362513       9.29244246      -0.00000123       0.00000015      -0.00000132
Ga      -0.00000113       0.00000013      -0.00000347       0.00001142       0.00000418       0.00008079
F        1.56744150       1.10834795       6.19496204       0.00502300       0.00355607      -0.00000075
F        5.58588628       3.94981741       6.19496137      -0.00503230      -0.00355810       0.00000392
F        4.58127486       1.10835040       4.45492762      -0.00250137       0.00353211       0.00432777
F        2.57205197       3.94981892       7.93500008       0.00252432      -0.00356942      -0.00437069
F        2.57205289       3.94981750       4.45492594       0.00250202      -0.00354123       0.00433767
F        4.58127496       1.10834766       7.93499933      -0.00252676       0.00357717      -0.00437450
