9
Lattice="7.007624039481818 -1.6227925974900382e-07 4.04585384882986 2.3358742553217233 6.60685201225878 4.045854319094304 -3.1716992735196726e-07 3.5168087294927196e-07 8.091708247014216" Properties=species:S:1:pos:R:3:forces:R:3 energy=-21.92182731628418 free_energy=-21.92182731628418 stress="0.00019421942124608904 -3.86326526324865e-09 -1.5311890422253782e-08 -3.86326526324865e-09 0.0001942030357895419 1.2905935875551222e-08 -1.5311890422253782e-08 1.2905935875551222e-08 0.000194207503227517" pbc="T T T"
K        2.33587382       1.65171221       4.04585434      -0.00000075      -0.00000021      -0.00000012
K        7.00762370       4.95513965      12.13756219       0.00000057       0.00000038       0.00000026
Ga       0.00000082       0.00000029      -0.00000045      -0.00000261      -0.00000044       0.00000095
I        2.28694132       1.61711283       8.09170801      -0.00764437      -0.00540398       0.00000025
I        7.05655603       4.98973908       8.09170862       0.00764783       0.00540769      -0.00000060
I        5.86415190       1.61711255       6.02640431       0.00382404      -0.00540765      -0.00662263
I        3.47934574       4.98973989      10.15701229      -0.00382401       0.00540556       0.00662023
I        3.47934615       4.98973976       6.02640407      -0.00382338       0.00540546      -0.00662005
I        5.86415252       1.61711258      10.15701224       0.00382270      -0.00540672       0.00662160
