9
Lattice="6.129677713484632 8.404001429573224e-07 3.5389697186205193 2.0432260969658658 5.779110866195549 3.538970757618691 -1.7071782001674748e-06 6.535002513549894e-08 7.077942394159952" Properties=species:S:1:pos:R:3:forces:R:3 energy=-24.829689025878906 free_energy=-24.829689025878906 stress="-0.00029008457204326987 1.8639840959622234e-07 7.93969245904691e-09 1.8639840959622234e-07 -0.00029025907861068845 2.1399425520485238e-07 7.93969245904691e-09 2.1399425520485238e-07 -0.0002901454281527549" pbc="T T T"
K        2.04322449       1.44478157       3.53897356      -0.00000016      -0.00000166      -0.00000227
K        6.12967454       4.33433429      10.61691034       0.00000068      -0.00000044      -0.00000079
N       -0.00001102      -0.00001617      -0.00003052       0.00005026       0.00006019       0.00010793
Cl       1.76642720       1.24905703       7.07793991      -0.00080633      -0.00057712       0.00001585
Cl       6.40649354       4.53007201       7.07793642       0.00066508       0.00045925       0.00002956
Cl       5.24646648       1.24904746       5.06874071       0.00041103      -0.00053724      -0.00066024
Cl       2.92642807       4.53006666       9.08715693      -0.00030509       0.00048616       0.00059588
Cl       2.92643482       4.53006838       5.06873689      -0.00035697       0.00054232      -0.00064682
Cl       5.24647010       1.24903565       9.08716511       0.00034134      -0.00043131       0.00056067
