9
Lattice="4.836657885803757 -7.364547532143677e-08 2.7924459085245097 1.612219243405543 4.560044943218671 2.792445878090208 9.453637541609704e-08 2.9573063386449743e-08 5.584891653307148" Properties=species:S:1:pos:R:3:forces:R:3 energy=-33.591426849365234 free_energy=-33.591426849365234 stress="0.00022703615832142532 3.4420311045835206e-09 4.590176772012455e-08 3.4420311045835206e-09 0.00022730800264980644 1.0935493577335365e-07 4.590176772012455e-08 1.0935493577335365e-07 0.0002270929835503921" pbc="T T T"
K        1.61221930       1.14001150       2.79244587       0.00000032      -0.00000078       0.00000039
K        4.83665825       3.42003359       8.37733768      -0.00000047       0.00000013       0.00000059
N        0.00000055      -0.00000001       0.00000081       0.00000352      -0.00000409       0.00000514
F        1.37193791       0.97010674       5.58489208      -0.00146890      -0.00104016      -0.00000094
F        5.07693898       3.58993757       5.58489170       0.00146222       0.00103664       0.00000172
F        4.15068867       0.97010685       3.98057886       0.00073570      -0.00103986      -0.00126886
F        2.29818856       3.58993781       7.18920480      -0.00073087       0.00103796       0.00126696
F        2.29818846       3.58993794       3.98057875      -0.00073552       0.00104201      -0.00127017
F        4.15068773       0.97010785       7.18920333       0.00073314      -0.00103277       0.00126517
