9
Lattice="6.277144019166333 -2.1258275010707953e-07 3.6241107400804204 2.092381250752209 5.9181477420207305 3.624110547034597 6.890047354645496e-08 -1.877118022445422e-07 7.248221360821579" Properties=species:S:1:pos:R:3:forces:R:3 energy=-29.48295021057129 free_energy=-29.48295021057129 stress="0.00017106145969592035 -4.10790050864307e-08 5.844233896823425e-08 -4.10790050864307e-08 0.00017107193707488477 -6.981650813031592e-08 5.844233896823425e-08 -6.981650813031592e-08 0.00017108084284700453" pbc="T T T"
K        2.09238134       1.47953702       3.62411047       0.00000087       0.00000022      -0.00000012
K        6.27714396       4.43861023      10.87233224       0.00000076       0.00000005      -0.00000084
Sb       0.00000703       0.00000024      -0.00000498      -0.00008808      -0.00000835       0.00006528
Cl       2.06127220       1.45753958       7.24822158      -0.00475386      -0.00336353      -0.00000322
Cl       6.30824927       4.46060631       7.24822112       0.00480377       0.00339279      -0.00000260
Cl       5.24650566       1.45754146       5.40922800       0.00240459      -0.00339254      -0.00415878
Cl       3.12301721       4.46060764       9.08721792      -0.00237380       0.00336374       0.00411548
Cl       3.12301899       4.46060581       5.40922814      -0.00239159       0.00338915      -0.00415375
Cl       5.24650562       1.45754110       9.08721604       0.00239724      -0.00338148       0.00413861
