9
Lattice="7.216890668066607 -4.283940632262354e-07 4.166674148868913 2.405629843291623 6.80414982353496 4.1666741064397375 1.4569739417786368e-09 -5.093462025654914e-08 8.333348295214096" Properties=species:S:1:pos:R:3:forces:R:3 energy=-22.94923210144043 free_energy=-22.94923210144043 stress="8.595532563049346e-05 -4.1361037261822275e-08 6.540977093294487e-09 -4.1361037261822275e-08 8.598087879363447e-05 -1.0073902600993279e-08 6.540977093294487e-09 -1.0073902600993279e-08 8.60145955812186e-05" pbc="T T T"
K        2.40563061       1.70103759       4.16667382      -0.00000028      -0.00000044       0.00000040
K        7.21689011       5.10311197      12.50002253       0.00000039       0.00000027      -0.00000017
Sb      -0.00000062       0.00000049       0.00000343       0.00000335      -0.00000154      -0.00002650
I        2.44486070       1.72877741       8.33334811      -0.00225868      -0.00159597       0.00000093
I        7.17766001       5.07537205       8.33334802       0.00225674       0.00159490       0.00000148
I        5.99446078       1.72877701       6.28398535       0.00112679      -0.00159338      -0.00195119
I        3.62806028       5.07537115      10.38270964      -0.00113287       0.00160258       0.00196436
I        3.62806031       5.07537262       6.28398579      -0.00112750       0.00159504      -0.00195246
I        5.99445982       1.72877706      10.38270952       0.00113202      -0.00160144       0.00196318
