9
Lattice="6.610616450264157 5.40243005483048e-07 3.8166408568087897 2.20353926242506 6.232548944414107 3.81664096709843 -1.1756132996521051e-07 5.194821308480907e-08 7.633281917239724" Properties=species:S:1:pos:R:3:forces:R:3 energy=-26.24390983581543 free_energy=-26.24390983581543 stress="0.00010830201063072309 6.753955261729061e-08 8.061436851392045e-09 6.753955261729061e-08 0.00010826315701706335 -5.3183870640793884e-09 8.061436851392045e-09 -5.3183870640793884e-09 0.00010821942851180211" pbc="T T T"
K        2.20353871       1.55813756       3.81664081       0.00000022       0.00000018      -0.00000047
K        6.61061691       4.67441188      11.44992295      -0.00000015       0.00000023      -0.00000050
Sb      -0.00000026       0.00000487      -0.00000788       0.00000427      -0.00004654       0.00008166
Br       2.22119922       1.57062549       7.63328213      -0.00310589      -0.00219499      -0.00000389
Br       6.59295522       4.66192296       7.63328238       0.00311904       0.00220825      -0.00000374
Br       5.50001748       1.57062509       5.74025641       0.00155613      -0.00219939      -0.00270057
Br       3.31413797       4.66192506       9.52630958      -0.00154830       0.00219177       0.00267840
Br       3.31413881       4.66192260       5.74025790      -0.00156568       0.00221679      -0.00271570
Br       5.50001838       1.57062265       9.52631067       0.00154033      -0.00217631       0.00266483
