9
Lattice="5.312696870768278 -2.064094419901309e-07 3.0672870625330315 1.7708988112757151 5.008858426228019 3.067286977735882 1.6653737303742812e-07 1.390496124891629e-08 6.134573836614728" Properties=species:S:1:pos:R:3:forces:R:3 energy=-40.89292526245117 free_energy=-40.89292526245117 stress="-0.0004007374809589237 -2.634766644860065e-07 2.7238515443173128e-08 -2.634766644860065e-07 -0.00040062988409772515 -1.5324163049612594e-09 2.7238515443173128e-08 -1.5324163049612594e-09 -0.00040042377077043056" pbc="T T T"
K        1.77089872       1.25221490       3.06728748       0.00000006      -0.00000076      -0.00000084
K        5.31269692       3.75664353       9.20186005      -0.00000092       0.00000035       0.00000056
Sb      -0.00000033      -0.00000015      -0.00000008       0.00001823       0.00001085       0.00000672
F        1.67138404       1.18184600       6.13457422       0.00102904       0.00072974      -0.00000077
F        5.41221291       3.82701204       6.13457412      -0.00104347      -0.00073914       0.00000015
F        4.47700402       1.18184709       4.51474872      -0.00050862       0.00071903       0.00088075
F        2.60659135       3.82701133       7.75439942       0.00050864      -0.00072168      -0.00088328
F        2.60659161       3.82701112       4.51474839       0.00050581      -0.00071910       0.00087896
F        4.47700425       1.18184692       7.75439919      -0.00050886       0.00072061      -0.00088227
