9
Lattice="5.70133532836396 -2.4827207053131325e-07 3.2916668592546716 1.900444941509676 5.375270372500804 3.291666744717506 -1.8227899771727722e-07 -2.6916955141246654e-07 6.583334034225865" Properties=species:S:1:pos:R:3:forces:R:3 energy=-47.58036422729492 free_energy=-47.58036422729492 stress="-2.3161932404036634e-05 2.3729670672878456e-08 -1.0924853199867357e-07 2.3729670672878456e-08 -2.3098962628864683e-05 8.749416480213767e-08 -1.0924853199867357e-07 8.749416480213767e-08 -2.3284466806217097e-05" pbc="T T T"
K        1.90044447       1.34381749       3.29166625       0.00000007       0.00000158       0.00000073
K        5.70133471       4.03145309       9.87500005      -0.00000022       0.00000197       0.00000374
Y        0.00000036      -0.00000036       0.00000000      -0.00000212      -0.00000025      -0.00000836
F        1.77576292       1.25565323       6.58333496       0.00041068       0.00028697      -0.00000065
F        5.82601801       4.11961574       6.58333373      -0.00040925      -0.00029504      -0.00000004
F        4.81345400       1.25565304       4.82952175      -0.00020793       0.00029328       0.00036192
F        2.78832731       4.11961598       8.33714439       0.00020579      -0.00028992      -0.00035608
F        2.78832580       4.11961729       4.82952173       0.00021270      -0.00029713       0.00036591
F        4.81345358       1.25565294       8.33714742      -0.00020969       0.00029850      -0.00036716
