9
Lattice="7.304454219941613 -2.95994916579528e-07 4.217228756662085 2.4348178664597437 6.886705573635069 4.217228631586302 -3.240195469875954e-08 -1.7609750415656863e-07 8.434457569445907" Properties=species:S:1:pos:R:3:forces:R:3 energy=-29.906606674194336 free_energy=-29.906606674194336 stress="0.00017798540648072958 -3.2494860136011994e-08 1.1785104447881167e-08 -3.2494860136011994e-08 0.00017799271154217422 -1.4043545881747832e-08 1.1785104447881167e-08 -1.4043545881747832e-08 0.00017802898946683854" pbc="T T T"
K        2.43481799       1.72167591       4.21722815      -0.00000051      -0.00000093      -0.00000074
K        7.30445416       5.16502923      12.65168699       0.00000102       0.00000025       0.00000080
Y       -0.00000039      -0.00000058       0.00000055       0.00000303       0.00000416      -0.00000471
I        2.46173497       1.74070954       8.43445753      -0.00608800      -0.00430616      -0.00000109
I        7.27753741       5.14599594       8.43445744       0.00608441       0.00430295       0.00000065
I        6.07358641       1.74070958       6.34915419       0.00304175      -0.00430456      -0.00527325
I        3.66568572       5.14599541      10.51976037      -0.00304347       0.00430682       0.00527554
I        3.66568582       5.14599569       6.34915433      -0.00304456       0.00430802      -0.00527384
I        6.07358613       1.74070967      10.51976030       0.00304637      -0.00431055       0.00527662
