9
Lattice="5.821321578464001 3.741120451987835e-08 3.3609415598473253 1.940440598129851 5.488394594545699 3.360941496274945 3.2293784278838364e-08 -5.50248046540949e-08 6.721883063760253" Properties=species:S:1:pos:R:3:forces:R:3 energy=-27.96674156188965 free_energy=-27.96674156188965 stress="0.0001462979707866907 3.017839134145106e-08 1.773867452925515e-08 3.017839134145106e-08 0.000146289195981808 -1.3817188282416737e-08 1.773867452925515e-08 -1.3817188282416737e-08 0.00014627254859078676" pbc="T T T"
Li       1.94044053       1.37209873       3.36094154      -0.00000035      -0.00000028      -0.00000060
Li       5.82132184       4.11629564      10.08282448      -0.00000029      -0.00000061      -0.00000023
As       0.00000011      -0.00000013      -0.00000023       0.00000001       0.00000037      -0.00000052
Cl       1.94431022       1.37483471       6.72188315      -0.00024626      -0.00017358      -0.00000055
Cl       5.81745213       4.11355980       6.72188301       0.00024733       0.00017531      -0.00000013
Cl       4.84916665       1.37483456       5.04476308       0.00012124      -0.00017187      -0.00021155
Cl       2.91259531       4.11356009       8.39900337      -0.00012231       0.00017370       0.00021161
Cl       2.91259546       4.11356003       5.04476314      -0.00012258       0.00017174      -0.00021206
Cl       4.84916658       1.37483486       8.39900289       0.00012331      -0.00017491       0.00021407
