9
Lattice="6.259784528571828 -2.0561168380985442e-08 3.6140882336563798 2.086594830147684 5.901781313565711 3.6140882220937818 -6.244911697853286e-08 -5.8319384347116224e-08 7.228176575477771" Properties=species:S:1:pos:R:3:forces:R:3 energy=-24.732852935791016 free_energy=-24.732852935791016 stress="3.968341843574308e-05 -5.357232435443393e-09 8.447179844495167e-09 -5.357232435443393e-09 3.96806062781252e-05 -1.2742933375164966e-09 8.447179844495167e-09 -1.2742933375164966e-09 3.9677892345935106e-05" pbc="T T T"
Li       2.08659492       1.47544549       3.61408836       0.00000085      -0.00000032       0.00000052
Li       6.25978451       4.42633583      10.84226497       0.00000039       0.00000022       0.00000011
As      -0.00000014       0.00000026      -0.00000023       0.00000142      -0.00000386      -0.00000167
Br       2.11722527       1.49710428       7.22817624      -0.00046396      -0.00032789       0.00000006
Br       6.22915390       4.40467723       7.22817665       0.00046347       0.00032737      -0.00000014
Br       5.20117198       1.49710395       5.44765854       0.00023182      -0.00032635      -0.00039926
Br       3.14520733       4.40467712       9.00869390      -0.00023320       0.00032891       0.00040273
Br       3.14520740       4.40467687       5.44765917      -0.00023243       0.00032872      -0.00040221
Br       5.20117200       1.49710389       9.00869454       0.00023159      -0.00032680       0.00039990
