9
Lattice="6.844042220118094 -5.330689236303161e-08 3.951409711061658 2.281347397163904 6.4526248723068145 3.9514096405393344 4.677830332289883e-08 -5.3294614798333725e-08 7.902819341100996" Properties=species:S:1:pos:R:3:forces:R:3 energy=-21.757787704467773 free_energy=-21.757787704467773 stress="4.2851566831814125e-05 -1.6375077960262274e-09 3.5425442579395394e-09 -1.6375077960262274e-09 4.284732858650386e-05 -8.291096698087586e-09 3.5425442579395394e-09 -8.291096698087586e-09 4.284306851332076e-05" pbc="T T T"
Li       2.28134704       1.61315633       3.95140959      -0.00000005      -0.00000047       0.00000067
Li       6.84404261       4.83946820      11.85422914       0.00000020      -0.00000004      -0.00000061
As       0.00000003       0.00000013      -0.00000015      -0.00000026      -0.00000002       0.00000004
I        2.31911587       1.63986237       7.90281933      -0.00033583      -0.00023650      -0.00000048
I        6.80627391       4.81276235       7.90281922       0.00033578       0.00023694       0.00000046
I        5.68448441       1.63986240       5.95982298       0.00016754      -0.00023709      -0.00029057
I        3.44090504       4.81276249       9.84581586      -0.00016764       0.00023688       0.00029047
I        3.44090532       4.81276226       5.95982300      -0.00016738       0.00023769      -0.00029077
I        5.68448443       1.63986252       9.84581578       0.00016762      -0.00023733       0.00029076
