9
Lattice="6.0995954737411955 -9.5177654077523e-08 3.5216030512922814 2.0331983804133062 5.7507538931913444 3.5216030878375304 -2.2033522171599307e-08 2.9178566431320327e-08 7.043206140747725" Properties=species:S:1:pos:R:3:forces:R:3 energy=-27.73597526550293 free_energy=-27.73597526550293 stress="0.00010396046855021268 -2.253094777415754e-08 -8.912943716410382e-10 -2.253094777415754e-08 0.00010398960148449987 3.434764916931954e-09 -8.912943716410382e-10 3.434764916931954e-09 0.00010399430175311863" pbc="T T T"
Li       2.03319863       1.43768861       3.52160283       0.00000010       0.00000012      -0.00000039
Li       6.09959529       4.31306556      10.56480911      -0.00000043       0.00000036      -0.00000037
Bi       0.00000002      -0.00000007       0.00000026       0.00000062       0.00000157      -0.00000338
Cl       2.10965138       1.49174884       7.04320607       0.00030315       0.00021404      -0.00000013
Cl       6.02314220       4.25900509       7.04320612      -0.00030367      -0.00021443       0.00000007
Cl       5.04476987       1.49174874       5.34861496      -0.00015131       0.00021364       0.00026096
Cl       3.08802448       4.25900459       8.73779754       0.00015022      -0.00021264      -0.00025934
Cl       3.08802403       4.25900508       5.34861500       0.00015103      -0.00021365       0.00026137
Cl       5.04476955       1.49174883       8.73779713      -0.00014961       0.00021096      -0.00025894
