9
Lattice="6.471576105141674 -5.126391600949111e-08 3.736366245481035 2.1571920190399894 6.101460308639564 3.736366189492841 8.27072416700923e-08 -1.0088517742232378e-08 7.472732347709091" Properties=species:S:1:pos:R:3:forces:R:3 energy=-24.592199325561523 free_energy=-24.592199325561523 stress="6.112177652539685e-05 -8.723764821638724e-09 1.1789169640508135e-08 -8.723764821638724e-09 6.112930714152753e-05 -1.2937981352934003e-08 1.1789169640508135e-08 -1.2937981352934003e-08 6.113832932896912e-05" pbc="T T T"
Li       2.15719217       1.52536522       3.73636621      -0.00000040       0.00000018       0.00000025
Li       6.47157622       4.57609539      11.20909852       0.00000078       0.00000042       0.00000010
Bi       0.00000035       0.00000037      -0.00000096      -0.00000453      -0.00000487       0.00000601
Br       2.27930530       1.61171224       7.47273236      -0.00049762      -0.00035210      -0.00000026
Br       6.34946230       4.48974755       7.47273243       0.00050277       0.00035530      -0.00000034
Br       5.33192338       1.61171217       5.71030302       0.00025041      -0.00035480      -0.00043470
Br       3.29684480       4.48974817       9.23516211      -0.00024975       0.00035344       0.00043297
Br       3.29684482       4.48974790       5.71030331      -0.00025154       0.00035600      -0.00043698
Br       5.33192351       1.61171197       9.23516216       0.00024989      -0.00035356       0.00043292
