9
Lattice="7.05877387771947 -4.4437663945664235e-08 4.075384965499968 2.352924562249529 6.655075857916057 4.075385003190735 -3.095390483912636e-08 2.4273855541822518e-08 8.15076998461368" Properties=species:S:1:pos:R:3:forces:R:3 energy=-21.64918327331543 free_energy=-21.64918327331543 stress="0.00011793144221883267 8.532696327279155e-09 -7.098180931919273e-10 8.532696327279155e-09 0.00011793557496275753 -4.339653525420317e-09 -7.098180931919273e-10 -4.339653525420317e-09 0.00011791393626481295" pbc="T T T"
Li       2.35292457       1.66376888       4.07538477      -0.00000100      -0.00000077      -0.00000067
Li       7.05877394       4.99130699      12.22615514       0.00000144       0.00000057       0.00000011
Bi       0.00000037       0.00000020       0.00000026      -0.00000330       0.00000001      -0.00000273
I        2.48603147       1.75788981       8.15076998      -0.00331135      -0.00234152       0.00000072
I        6.92566674       4.89718590       8.15076997       0.00331253       0.00234254       0.00000010
I        5.81575793       1.75788976       6.22835159       0.00165597      -0.00234148      -0.00286867
I        3.59594040       4.89718583      10.07318839      -0.00165574       0.00234166       0.00286858
I        3.59594047       4.89718597       6.22835149      -0.00165559       0.00234240      -0.00286791
I        5.81575777       1.75788997      10.07318825       0.00165707      -0.00234340       0.00287044
