9
Lattice="4.734895903245184 -1.1750216621916175e-07 2.7336937152544607 1.5782986941853847 4.464102401066253 2.733693419848885 3.180465454616802e-07 -1.3690360931320224e-07 5.467386879636177" Properties=species:S:1:pos:R:3:forces:R:3 energy=-38.88228225708008 free_energy=-38.88228225708008 stress="0.0002153905516024679 2.8876542046418763e-08 3.0942292283953066e-08 2.8876542046418763e-08 0.00021533574908971786 -1.0919495530004042e-08 3.0942292283953066e-08 -1.0919495530004042e-08 0.00021538020519074053" pbc="T T T"
Li       1.57829889       1.11602485       2.73369343       0.00000030      -0.00000240       0.00000150
Li       4.73489584       3.34807659       8.20108167      -0.00000131      -0.00000049       0.00000131
Ga       0.00000008      -0.00000016       0.00000016       0.00000274       0.00000129       0.00000070
F        1.54570365       1.09297700       5.46738648      -0.00191534      -0.00135446      -0.00000006
F        4.76749127       3.37112534       5.46738685       0.00191402       0.00135231      -0.00000034
F        3.96204435       1.09297722       4.07231151       0.00095844      -0.00135416      -0.00165915
F        2.35115096       3.37112551       6.86246193      -0.00095797       0.00135523       0.00165826
F        2.35115064       3.37112547       4.07231156      -0.00095701       0.00135541      -0.00165868
F        3.96204443       1.09297666       6.86246252       0.00095689      -0.00135297       0.00165570
