9
Lattice="6.776185070332654 -7.272710334238916e-08 3.9122323466177447 2.258728345122301 6.388648489350038 3.9122322480423026 7.637516967093278e-08 -6.672438808717872e-08 7.824464560949852" Properties=species:S:1:pos:R:3:forces:R:3 energy=-20.807682037353516 free_energy=-20.807682037353516 stress="9.175641753245145e-05 -9.488003271940215e-09 1.5658309093780076e-09 -9.488003271940215e-09 9.17650104383938e-05 -3.6709424389158585e-09 1.5658309093780076e-09 -3.6709424389158585e-09 9.177997708320618e-05" pbc="T T T"
Li       2.25872828       1.59716236       3.91223228       0.00000012      -0.00000026       0.00000066
Li       6.77618523       4.79148601      11.73669689       0.00000009      -0.00000058      -0.00000004
Ga      -0.00000008       0.00000007      -0.00000007       0.00000090      -0.00000076       0.00000015
I        2.27582410       1.60925080       7.82446455      -0.00039788      -0.00028193      -0.00000024
I        6.75908924       4.77939758       7.82446460       0.00039871       0.00028156       0.00000010
I        5.63827307       1.60925058       5.88315384       0.00019903      -0.00028160      -0.00034492
I        3.39664048       4.77939775       9.76577519      -0.00019960       0.00028250       0.00034587
I        3.39664062       4.77939768       5.88315397      -0.00019942       0.00028256      -0.00034620
I        5.63827305       1.60925056       9.76577538       0.00019795      -0.00028160       0.00034465
