9
Lattice="5.779263072800682 7.902596174974019e-08 3.3366591543923994 1.926421119829289 5.4487418432661725 3.3366591179223613 6.8356982035462595e-09 -3.9832888368443954e-08 6.673318296945028" Properties=species:S:1:pos:R:3:forces:R:3 energy=-27.5441837310791 free_energy=-27.5441837310791 stress="0.00025380036095157266 4.8608463920629674e-09 -1.4271217096961664e-08 4.8608463920629674e-09 0.0002539764973334968 6.710934030706994e-09 -1.4271217096961664e-08 6.710934030706994e-09 0.0002539573179092258" pbc="T T T"
Li       1.92642102       1.36218548       3.33666021      -0.00000137      -0.00000028      -0.00000096
Li       5.77926247       4.08655627      10.00997770       0.00000008       0.00000021       0.00000062
Ga       0.00000008       0.00000010       0.00000046       0.00000188       0.00000153      -0.00000864
Cl       1.91673123       1.35533345       6.67331898      -0.00701267      -0.00495988      -0.00000429
Cl       5.78895357       4.09340855       6.67331813       0.00700617       0.00495631      -0.00000016
Cl       4.82089820       1.35533312       4.99659745       0.00350225      -0.00495231      -0.00607187
Cl       2.88478669       4.09340751       8.35003828      -0.00350773       0.00496432       0.00607812
Cl       2.88478648       4.09340862       4.99659720      -0.00350216       0.00495115      -0.00607166
Cl       4.82089725       1.35533442       8.35003812       0.00351328      -0.00496152       0.00607887
