9
Lattice="6.1431459448409464 4.624068819974064e-08 3.546746868633384 2.047715323591131 5.7918132926938295 3.5467469291719675 1.1518044646646723e-07 1.555892453147256e-07 7.0934935377683495" Properties=species:S:1:pos:R:3:forces:R:3 energy=-24.073047637939453 free_energy=-24.073047637939453 stress="6.273528560996056e-05 -2.4587714086976575e-09 -4.576736767347711e-09 -2.4587714086976575e-09 6.274727638810873e-05 4.445939172370572e-09 -4.576736767347711e-09 4.445939172370572e-09 6.274804036365822e-05" pbc="T T T"
Li       2.04771502       1.44795321       3.54674672      -0.00000027      -0.00000006      -0.00000005
Li       6.14314579       4.34386008      10.64024077      -0.00000137      -0.00000049       0.00000033
Ga       0.00000051      -0.00000004      -0.00000039      -0.00000354      -0.00000001       0.00000207
Br       2.06395868       1.45943926       7.09349346      -0.00059074      -0.00041753       0.00000100
Br       6.12690256       4.33237397       7.09349367       0.00059530       0.00042140       0.00000031
Br       5.11116652       1.45943959       5.33418771       0.00029795      -0.00042215      -0.00051519
Br       3.07969488       4.33237452       8.85280023      -0.00029561       0.00041741       0.00051087
Br       3.07969472       4.33237426       5.33418718      -0.00029717       0.00041991      -0.00051236
Br       5.11116682       1.45943923       8.85279999       0.00029542      -0.00041831       0.00051281
