9
Lattice="5.583893315183996 -3.822104656977805e-08 3.2238622365182885 1.8612977734804206 5.264545155487819 3.223862171068332 1.8058606871994257e-09 -7.888253609504517e-08 6.447724469908688" Properties=species:S:1:pos:R:3:forces:R:3 energy=-24.348098754882812 free_energy=-24.348098754882812 stress="0.0001236659736605361 2.404049759263671e-08 7.361731224619916e-09 2.404049759263671e-08 0.00012355943908914924 -3.1911635556269857e-09 7.361731224619916e-09 -3.1911635556269857e-09 0.00012361527478788048" pbc="T T T"
Li       1.86129757       1.31613617       3.22386227       0.00000021      -0.00000033       0.00000035
Li       5.58389327       3.94840899       9.67158661      -0.00000036       0.00000060       0.00000059
N       -0.00000017       0.00000019      -0.00000057      -0.00000034      -0.00000075       0.00000012
Cl       1.77063706       1.25202905       6.44772433      -0.00203819      -0.00143912       0.00000015
Cl       5.67455488       4.01251621       6.44772446       0.00203600       0.00143816      -0.00000084
Cl       4.69857468       1.25202850       4.75727825       0.00101905      -0.00143752      -0.00176295
Cl       2.74661602       4.01251603       8.13817069      -0.00101815       0.00143856       0.00176285
Cl       2.74661625       4.01251606       4.75727866      -0.00101734       0.00143880      -0.00176322
Cl       4.69857484       1.25202891       8.13817069       0.00101920      -0.00143852       0.00176311
