9
Lattice="4.320158752461143 -2.4657080472721507e-08 2.4942448343533847 1.4400528133053558 4.073085404335225 2.4942449745365276 -2.529254511647477e-07 -7.1567399767263055e-09 4.988490106786499" Properties=species:S:1:pos:R:3:forces:R:3 energy=-33.11742401123047 free_energy=-33.11742401123047 stress="2.1990905224811286e-05 1.0514045101217562e-07 -5.402841907198308e-08 1.0514045101217562e-07 2.2427735530072823e-05 5.935494584718981e-08 -5.402841907198308e-08 5.935494584718981e-08 2.199180562456604e-05" pbc="T T T"
Li       1.44005272       1.01827141       2.49424489      -0.00000094      -0.00000011       0.00000006
Li       4.32015838       3.05481417       7.48273492       0.00000061      -0.00000069       0.00000033
N        0.00000053      -0.00000060       0.00000019       0.00000101       0.00000272      -0.00000255
F        1.38667214       0.98052548       4.98849027       0.00098443       0.00069070       0.00000012
F        4.37353953       3.09255878       4.98848960      -0.00098336      -0.00068957       0.00000113
F        3.62682241       0.98052647       3.69514021      -0.00049341       0.00069052       0.00084537
F        2.13338878       3.09255946       6.28184134       0.00049150      -0.00069082      -0.00084406
F        2.13338910       3.09255971       3.69513880       0.00049269      -0.00069207       0.00084496
F        3.62682188       0.98052666       6.28183998      -0.00049293       0.00068969      -0.00084466
