9
Lattice="6.0143629241307925 -2.009991071577978e-08 3.47239409194463 2.004787640057868 5.670395687563721 3.472394061406344 2.5804816536840012e-08 -1.9154884194838e-08 6.944788139193968" Properties=species:S:1:pos:R:3:forces:R:3 energy=-28.199783325195312 free_energy=-28.199783325195312 stress="5.8587724197423086e-05 -1.30420101385198e-08 1.7731823120925583e-08 -1.30420101385198e-08 5.8606976381270215e-05 -2.814607569234795e-08 1.7731823120925583e-08 -2.814607569234795e-08 5.86125606787391e-05" pbc="T T T"
Li       2.00478785       1.41759901       3.47239409       0.00000010       0.00000070      -0.00000018
Li       6.01436295       4.25279663      10.41718204      -0.00000006      -0.00000047      -0.00000014
Sb      -0.00000002       0.00000012       0.00000015      -0.00000060      -0.00000118       0.00000200
Cl       1.99330225       1.40947758       6.94478809       0.00201946       0.00142777       0.00000020
Cl       6.02584844       4.26091819       6.94478817      -0.00201994      -0.00142741       0.00000031
Cl       5.01771174       1.40947767       5.19864453      -0.00100915       0.00142747       0.00174787
Cl       3.00143878       4.26091782       8.69093184       0.00101046      -0.00142808      -0.00175014
Cl       3.00143879       4.26091785       5.19864445       0.00100781      -0.00142448       0.00174611
Cl       5.01771154       1.40947779       8.69093175      -0.00100805       0.00142573      -0.00174602
