9
Lattice="6.352621768654379 -1.4935307395149787e-08 3.6676878970400866 2.117540596338583 5.9893091939676255 3.6676878608952235 3.9974452316791385e-10 -4.398556230325297e-08 7.335375793387875" Properties=species:S:1:pos:R:3:forces:R:3 energy=-24.846113204956055 free_energy=-24.846113204956055 stress="0.00026786004309542477 2.259785603087039e-08 4.19866186263107e-09 2.259785603087039e-08 0.0002678509335964918 -1.175121333574225e-08 4.19866186263107e-09 -1.175121333574225e-08 0.000267838011495769" pbc="T T T"
Li       2.11754045       1.49732711       3.66768789       0.00000000       0.00000001       0.00000008
Li       6.35262189       4.49198218      11.00306327       0.00000053      -0.00000007      -0.00000038
Sb      -0.00000038      -0.00000072      -0.00000002       0.00000544       0.00000879       0.00000210
Br       2.16691454       1.53223985       7.33537573      -0.00436813      -0.00308918       0.00000048
Br       6.30324860       4.45706975       7.33537594       0.00436134       0.00308340      -0.00000052
Br       5.26916462       1.53223950       5.54429066       0.00218179      -0.00308599      -0.00377901
Br       3.20099762       4.45706973       9.12646129      -0.00218100       0.00308373       0.00377692
Br       3.20099743       4.45706953       5.54429066      -0.00218172       0.00308534      -0.00377892
Br       5.26916466       1.53223962       9.12646077       0.00218182      -0.00308602       0.00377926
