9
Lattice="6.981289971328494 2.3189507068696082e-08 4.030649592980117 2.3270966738798875 6.582023200254719 4.030649601801365 -1.7527201399281074e-08 -1.5899080798620931e-09 8.061299216318252" Properties=species:S:1:pos:R:3:forces:R:3 energy=-21.66387176513672 free_energy=-21.66387176513672 stress="2.5763714802451432e-05 1.9019095187644552e-09 1.980979824622864e-09 1.9019095187644552e-09 2.5766677936189808e-05 -9.707179060569615e-09 1.980979824622864e-09 -9.707179060569615e-09 2.576587939984165e-05" pbc="T T T"
Li       2.32709644       1.64550574       4.03064946      -0.00000048       0.00000044       0.00000027
Li       6.98129019       4.93651738      12.09194886       0.00000086      -0.00000028      -0.00000002
Sb      -0.00000054       0.00000037       0.00000014       0.00000391      -0.00000447      -0.00000179
I        2.43023905       1.71843896       8.06129916      -0.00068563      -0.00048551       0.00000043
I        6.87814760       4.86358474       8.06129922       0.00068511       0.00048503       0.00000003
I        5.76617058       1.71843820       6.13529817       0.00034152      -0.00048358      -0.00059279
I        3.54221635       4.86358451       9.98729928      -0.00034369       0.00048625       0.00059615
I        3.54221629       4.86358447       6.13529906      -0.00034376       0.00048714      -0.00059543
I        5.76617052       1.71843850       9.98730030       0.00034212      -0.00048505       0.00059310
