9
Lattice="6.550646754089053 -7.50980238542085e-08 3.7820177560055965 2.1835488579834066 6.17600898397687 3.782017737374255 1.465486571426876e-08 -1.2456102168509256e-08 7.5640354866282395" Properties=species:S:1:pos:R:3:forces:R:3 energy=-31.910659790039062 free_energy=-31.910659790039062 stress="0.0001562544930493459 -9.078646279192526e-09 -1.163552365568421e-08 -9.078646279192526e-09 0.00015625065134372562 5.931715563178841e-09 -1.163552365568421e-08 5.931715563178841e-09 0.00015622185310348868" pbc="T T T"
Li       2.18354877       1.54400238       3.78201778      -0.00000015       0.00000026       0.00000040
Li       6.55064659       4.63200641      11.34605303      -0.00000043      -0.00000033       0.00000009
Y       -0.00000014      -0.00000011      -0.00000075      -0.00000005       0.00000104       0.00000916
Br       2.24727750       1.58906489       7.56403540      -0.00197615      -0.00139779       0.00000044
Br       6.48691822       4.58694393       7.56403548       0.00197609       0.00139698       0.00000082
Br       5.42700786       1.58906533       5.72821737       0.00099089      -0.00140068      -0.00171652
Br       3.30718762       4.58694398       9.39985415      -0.00098701       0.00139565       0.00171018
Br       3.30718797       4.58694381       5.72821727      -0.00099026       0.00140029      -0.00171484
Br       5.42700818       1.58906497       9.39985418       0.00098713      -0.00139542       0.00171025
