9
Lattice="6.134346050371544 7.08486625804603e-08 3.5416660511819855 2.044782083918799 5.783517127520871 3.541666050607825 -9.312196855576857e-08 -6.65503888200612e-08 7.083332263655941" Properties=species:S:1:pos:R:3:forces:R:3 energy=-35.41686248779297 free_energy=-35.41686248779297 stress="0.00012384058209136128 7.291403925080431e-09 5.499902311356664e-09 7.291403925080431e-09 0.00012383876310195774 -1.199882060376467e-08 5.499902311356664e-09 -1.199882060376467e-08 0.0001238123804796487" pbc="T T T"
Li       2.04478264       1.44588021       3.54166633       0.00000179       0.00000223       0.00000043
Li       6.13434602       4.33763717      10.62499794      -0.00000114      -0.00000166      -0.00000046
Y       -0.00000034       0.00000021      -0.00000051       0.00000152      -0.00000549       0.00001128
Cl       2.10444056       1.48806383       7.08333243      -0.00320055      -0.00226296      -0.00000031
Cl       6.07468773       4.29545269       7.08333212       0.00320201       0.00226324       0.00000024
Cl       5.08212507       1.48806418       5.36416452       0.00160032      -0.00226415      -0.00277111
Cl       3.09700220       4.29545297       8.80249977      -0.00159919       0.00226214       0.00276810
Cl       3.09700243       4.29545259       5.36416440      -0.00160258       0.00226527      -0.00277409
Cl       5.08212590       1.48806468       8.80250038       0.00159770      -0.00225845       0.00276589
