9
Lattice="5.9110210974480255 1.0494324920907737e-07 3.4127296493026726 1.9703403751261306 5.57296467946484 3.412729804548693 -8.863974148067201e-08 1.2745898315041221e-07 6.825459452133856" Properties=species:S:1:pos:R:3:forces:R:3 energy=-25.186660766601562 free_energy=-25.186660766601562 stress="0.0003075151180382818 -3.382592206335744e-09 -1.1302330626961066e-08 -3.382592206335744e-09 0.00030751200392842293 2.7800091118024284e-09 -1.1302330626961066e-08 2.7800091118024284e-09 0.0003074965497944504" pbc="T T T"
Mg       1.97034066       1.39324136       3.41273002       0.00000052       0.00000055       0.00000089
Mg       5.91102068       4.17972426      10.23819012      -0.00000051       0.00000131       0.00000219
As       0.00000023       0.00000012       0.00000020      -0.00000280      -0.00000359      -0.00000567
Cl       1.95912788       1.38531287       6.82545893      -0.00148138      -0.00104837      -0.00000151
Cl       5.92223327       4.18765179       6.82545906       0.00148425       0.00105025       0.00000058
Cl       4.93145697       1.38531323       5.10938428       0.00074068      -0.00104763      -0.00128624
Cl       2.94990438       4.18765137       8.54153432      -0.00074221       0.00104931       0.00128844
Cl       2.94990450       4.18765228       5.10938477      -0.00074095       0.00105000      -0.00128365
Cl       4.93145701       1.38531233       8.54153385       0.00074251      -0.00105189       0.00128496
