9
Lattice="4.546743412451334 -1.3819179098866172e-08 2.6250635617392626 1.515581098151497 4.28671125725109 2.625063607298142 -9.074662043466558e-08 -8.369550709918932e-09 5.250127280656289" Properties=species:S:1:pos:R:3:forces:R:3 energy=-36.890560150146484 free_energy=-36.890560150146484 stress="0.0004901595530100167 -1.359072143714002e-07 -3.6839093553453495e-08 -1.359072143714002e-07 0.0004902133368887007 -1.637140201182774e-09 -3.6839093553453495e-08 -1.637140201182774e-09 0.000490375270601362" pbc="T T T"
Mg       1.51558112       1.07167779       2.62506340      -0.00000013       0.00000280      -0.00000043
Mg       4.54674346       3.21503335       7.87519092       0.00000146      -0.00000035      -0.00000131
As       0.00000015       0.00000029      -0.00000016      -0.00000321      -0.00000432      -0.00000342
F        1.59883478       1.13054719       5.25012724       0.00483274       0.00341735       0.00000018
F        4.46349009       3.15616378       5.25012730      -0.00482904      -0.00341577      -0.00000032
F        3.74732564       1.13054723       4.00969513      -0.00241532       0.00341507       0.00418212
F        2.31499839       3.15616373       6.49055933       0.00241360      -0.00341290      -0.00417975
F        2.31499837       3.15616414       4.00969531       0.00241408      -0.00341455       0.00418311
F        3.74732568       1.13054738       6.49055923      -0.00241417       0.00341261      -0.00418015
