9
Lattice="6.234714200214993 -4.398116974971073e-08 3.599613966843887 2.0782380441322603 5.878144782088537 3.599613934177875 2.6196498046683726e-08 -2.1483830007244988e-08 7.199227888314105" Properties=species:S:1:pos:R:3:forces:R:3 energy=-21.899391174316406 free_energy=-21.899391174316406 stress="9.742646216182038e-05 1.1630343799140519e-08 5.306997952203574e-09 1.1630343799140519e-08 9.742851398186758e-05 -2.9502642551193503e-09 5.306997952203574e-09 -2.9502642551193503e-09 9.74192880676128e-05" pbc="T T T"
Mg       2.07823929       1.46953611       3.59961352       0.00000332       0.00000017      -0.00000158
Mg       6.23471386       4.40860844      10.79884131      -0.00000028      -0.00000058      -0.00000088
As      -0.00000022      -0.00000003       0.00000015      -0.00000058       0.00000113       0.00000232
Br       2.10539791       1.48874120       7.19922808       0.00058393       0.00041301       0.00000072
Br       6.20755434       4.38940397       7.19922791      -0.00058615      -0.00041357       0.00000136
Br       5.18201497       1.48874124       5.42294214      -0.00029264       0.00041259       0.00050674
Br       3.13093688       4.38940375       8.97551403       0.00029421      -0.00041473      -0.00050832
Br       3.13093716       4.38940318       5.42294205       0.00029171      -0.00041294       0.00050719
Br       5.18201489       1.48874098       8.97551397      -0.00029347       0.00041495      -0.00050749
