9
Lattice="5.750901705088483 -1.0188207955997988e-07 3.3202846119077525 1.9169671524125447 5.422001942039427 3.3202845886316945 -8.000396428342546e-09 -3.416438107068087e-08 6.640569237672567" Properties=species:S:1:pos:R:3:forces:R:3 energy=-26.337236404418945 free_energy=-26.337236404418945 stress="0.00014780888159293681 -7.074477004209712e-09 -2.0126901034700495e-08 -7.074477004209712e-09 0.00014788414409849793 2.212789507183288e-09 -2.0126901034700495e-08 2.212789507183288e-09 0.00014775666932109743" pbc="T T T"
Mg       1.91696697       1.35550036       3.32028495      -0.00000080       0.00000018       0.00000107
Mg       5.75090064       4.06650190       9.96085497      -0.00000259       0.00000069       0.00000251
B       -0.00000005       0.00000003       0.00000012       0.00000080      -0.00000000      -0.00000231
Cl       1.67033841       1.18110749       6.64056887       0.00328141       0.00231852       0.00000151
Cl       5.99753096       4.24089392       6.64056858      -0.00328174      -0.00231820      -0.00000138
Cl       4.91573268       1.18110766       4.76683957      -0.00163941       0.00231653       0.00284214
Cl       2.75213702       4.24089417       8.51429857       0.00163975      -0.00231808      -0.00284389
Cl       2.75213632       4.24089397       4.76683963       0.00164220      -0.00231689       0.00284275
Cl       4.91573260       1.18110744       8.51429861      -0.00163952       0.00231718      -0.00284295
