9
Lattice="6.375348126795402 2.0635147737224158e-08 3.68080886446255 2.1251159988835044 6.010735861371179 3.6808089732987823 -1.2351958628822235e-07 4.595507462711552e-08 7.361617942867332" Properties=species:S:1:pos:R:3:forces:R:3 energy=-18.59552764892578 free_energy=-18.59552764892578 stress="4.3949334212811664e-05 -1.8561935988259393e-08 1.030628293818836e-08 -1.8561935988259393e-08 4.398534292704426e-05 -6.352704584600133e-09 1.030628293818836e-08 -6.352704584600133e-09 4.4002983486279845e-05" pbc="T T T"
Mg       2.12511620       1.50268386       3.68080884       0.00000081      -0.00000074      -0.00000016
Mg       6.37534810       4.50805208      11.04242688      -0.00000002       0.00000015       0.00000099
B       -0.00000011      -0.00000063       0.00000112      -0.00000063      -0.00000160       0.00000321
I        2.00926413       1.42076461       7.36161781       0.00097972       0.00069296      -0.00000064
I        6.49119965       4.58997157       7.36161769      -0.00097817      -0.00069206       0.00000054
I        5.37071600       1.42076463       5.42088245      -0.00048975       0.00069188       0.00084832
I        3.12974799       4.58997162       9.30235279       0.00048878      -0.00069237      -0.00084846
I        3.12974821       4.58997167       5.42088267       0.00048880      -0.00069079       0.00084642
I        5.37071583       1.42076427       9.30235287      -0.00048950       0.00069256      -0.00085012
