9
Lattice="4.229463744099131 3.6853728065047226e-08 2.441882177205521 1.4098212756845918 3.9875764888671554 2.441882189493574 2.1141521954268894e-08 2.9999046641275625e-08 4.8837643177928225" Properties=species:S:1:pos:R:3:forces:R:3 energy=-43.157588958740234 free_energy=-43.157588958740234 stress="4.390079993754625e-05 4.926808472305311e-08 -1.9279102758673616e-08 4.926808472305311e-08 4.391107722767629e-05 -3.633414991099926e-08 -1.9279102758673616e-08 -3.633414991099926e-08 4.403480124892667e-05" pbc="T T T"
Mg       1.40982078       0.99689387       2.44188258      -0.00000251      -0.00000023       0.00000109
Mg       4.22946372       2.99068215       7.32564679      -0.00000024       0.00000041       0.00000106
B       -0.00000018       0.00000009       0.00000028       0.00000387      -0.00000217      -0.00000301
F        1.25853238       0.88991689       4.88376408       0.00067550       0.00047746      -0.00000023
F        4.38075285       3.09766012       4.88376441      -0.00068021      -0.00047699      -0.00000106
F        3.60019827       0.88991634       3.53180319      -0.00034195       0.00048199       0.00058421
F        2.03908727       3.09766022       6.23572530       0.00034148      -0.00048006      -0.00058648
F        2.03908735       3.09765979       3.53180259       0.00034326      -0.00048155       0.00058562
F        3.60019783       0.88991692       6.23572558      -0.00033909       0.00048092      -0.00058076
