9
Lattice="6.632531605685669 4.21942483958545e-08 3.829293825993069 2.2108439013049446 6.253210724951517 3.8292938381833372 -1.5215193486089768e-08 4.1712345589972874e-09 7.658587678339615" Properties=species:S:1:pos:R:3:forces:R:3 energy=-17.946317672729492 free_energy=-17.946317672729492 stress="8.710841211723164e-05 6.109501793361005e-09 9.347363855161106e-11 6.109501793361005e-09 8.709399844519794e-05 1.1490168816408186e-09 9.347363855161106e-11 1.1490168816408186e-09 8.707668166607618e-05" pbc="T T T"
Mg       2.21084411       1.56330267       3.82929373       0.00000032      -0.00000093      -0.00000069
Mg       6.63253154       4.68990806      11.48788159       0.00000027       0.00000078       0.00000014
Ga      -0.00000007      -0.00000006      -0.00000019       0.00000043       0.00000028       0.00000217
I        2.24279073       1.58589255       7.65858778       0.00069527       0.00049170      -0.00000003
I        6.60058470       4.66731835       7.65858782      -0.00069546      -0.00049250      -0.00000002
I        5.51113639       1.58589239       5.77160721      -0.00034815       0.00049214       0.00060373
I        3.33223922       4.66731826       9.54556809       0.00034797      -0.00049240      -0.00060408
I        3.33223907       4.66731847       5.77160727       0.00034792      -0.00049203       0.00060336
I        5.51113627       1.58589240       9.54556801      -0.00034855       0.00049290      -0.00060453
