9
Lattice="6.109693598134456 -1.851767503454257e-08 3.527433228236175 2.036564525756415 5.760274269617041 3.527433210043472 -2.105576463104836e-08 -3.717007444239306e-08 7.054866492942008" Properties=species:S:1:pos:R:3:forces:R:3 energy=-22.039968490600586 free_energy=-22.039968490600586 stress="0.00016441858315374702 -4.043424262079043e-09 3.5784000207428335e-09 -4.043424262079043e-09 0.00016441443585790694 3.384896807290261e-10 3.5784000207428335e-09 3.384896807290261e-10 0.0001644170843064785" pbc="T T T"
Mg       2.03656398       1.44006866       3.52743273      -0.00000095       0.00000076      -0.00000253
Mg       6.10969328       4.32020602      10.58229940      -0.00000197       0.00000017      -0.00000106
Ga       0.00000019      -0.00000015      -0.00000017       0.00000038      -0.00000219       0.00000149
Br       2.04511266       1.44611299       7.05486676       0.00031894       0.00022390       0.00000027
Br       6.10114565       4.31416119       7.05486659      -0.00031736      -0.00022551       0.00000041
Br       5.08713747       1.44611257       5.29855266      -0.00015879       0.00022557       0.00027946
Br       3.05912084       4.31416129       8.81118051       0.00015976      -0.00022478      -0.00027527
Br       3.05912095       4.31416128       5.29855267       0.00016030      -0.00022466       0.00027514
Br       5.08713740       1.44611295       8.81118064      -0.00016031       0.00022690      -0.00027797
