9
Lattice="5.821200478196468 4.215939903706397e-08 3.360871644019126 1.940400207887373 5.488280540972751 3.360871628880473 6.629964188110573e-08 2.833996724247859e-08 6.721743173203896" Properties=species:S:1:pos:R:3:forces:R:3 energy=-25.524749755859375 free_energy=-25.524749755859375 stress="0.00020625085744541138 9.965487102192583e-09 -4.818176080334524e-09 9.965487102192583e-09 0.00020629350910894573 -7.3115362653197735e-09 -4.818176080334524e-09 -7.3115362653197735e-09 0.00020621698058675975" pbc="T T T"
Mg       1.94039984       1.37207001       3.36087153      -0.00000093      -0.00000035      -0.00000058
Mg       5.82120068       4.11621000      10.08261441       0.00000047      -0.00000226      -0.00000220
Ga      -0.00000027      -0.00000013       0.00000039       0.00000383       0.00000053      -0.00000329
Cl       1.91870835       1.35673208       6.72174319       0.00029411       0.00020920       0.00000003
Cl       5.84289260       4.13154910       6.72174326      -0.00029928      -0.00020982       0.00000060
Cl       4.86184636       1.35673160       5.02252158      -0.00014909       0.00021079       0.00025925
Cl       2.89975476       4.13154899       8.42096478       0.00014909      -0.00020906      -0.00025681
Cl       2.89975436       4.13154904       5.02252192       0.00014864      -0.00020738       0.00025825
Cl       4.86184638       1.35673172       8.42096464      -0.00014678       0.00020830      -0.00025510
