9
Lattice="5.940093845887355 -5.564972388300445e-08 3.4295145113098937 1.9800312451666175 5.6003736632930865 3.4295144841664924 1.526425794378577e-07 7.469087427864929e-08 6.859028758235055" Properties=species:S:1:pos:R:3:forces:R:3 energy=-28.854904174804688 free_energy=-28.854904174804688 stress="8.24726012069732e-05 -4.571781531126362e-08 -4.226123895278988e-09 -4.571781531126362e-08 8.2476602983661e-05 7.403022195262565e-09 -4.226123895278988e-09 7.403022195262565e-09 8.251060353359208e-05" pbc="T T T"
Mg       1.98003063       1.40009406       3.42951406      -0.00000231       0.00000239      -0.00000106
Mg       5.94009442       4.20028017      10.28854366       0.00000185      -0.00000045       0.00000136
Ir       0.00000003      -0.00000004       0.00000012       0.00000131       0.00000147      -0.00000878
Cl       1.90686804       1.34835962       6.85902883       0.00348930       0.00246903       0.00000055
Cl       6.01325740       4.25201411       6.85902885      -0.00349176      -0.00247075      -0.00000035
Cl       4.98665993       1.34835889       5.08091102      -0.00174288       0.00246702       0.00302085
Cl       2.93346545       4.25201438       8.63714703       0.00174133      -0.00246328      -0.00301832
Cl       2.93346572       4.25201424       5.08091031       0.00174570      -0.00246839       0.00302258
Cl       4.98665940       1.34835942       8.63714715      -0.00174253       0.00246307      -0.00301692
