9
Lattice="4.539330608492383 -2.8614499876031263e-08 2.620783646175753 1.5131101887436884 4.2797217077269725 2.620783623848052 -3.641128286720166e-08 -5.3092404271173574e-08 5.241567355417718" Properties=species:S:1:pos:R:3:forces:R:3 energy=-39.62253189086914 free_energy=-39.62253189086914 stress="0.000698242976795882 5.290787186140733e-08 1.9809951457006036e-09 5.290787186140733e-08 0.0006982047925703228 4.811307263707931e-08 1.9809951457006036e-09 4.811307263707931e-08 0.0006982112536206841" pbc="T T T"
Mg       1.51311015       1.06993051       2.62078367       0.00000039       0.00000130      -0.00000033
Mg       4.53933052       3.20979124       7.86235091       0.00000008      -0.00000082      -0.00000060
Ir      -0.00000002       0.00000005      -0.00000005       0.00000380      -0.00000318       0.00001525
F        1.62225180       1.14710511       5.24156718      -0.00374193      -0.00264727      -0.00000004
F        4.43018905       3.13261647       5.24156743       0.00374171       0.00264486       0.00000075
F        3.72820475       1.14710516       4.02569463       0.00187221      -0.00264627      -0.00324062
F        2.32423602       3.13261642       6.45743999      -0.00186883       0.00264162       0.00323696
F        2.32423602       3.13261663       4.02569473      -0.00187134       0.00264768      -0.00324193
F        3.72820482       1.14710484       6.45744018       0.00186378      -0.00263782       0.00323085
