9
Lattice="6.1535982030198335 -7.368424090413938e-08 3.55278160719796 2.051199358205459 5.8016679918424545 3.552781561005895 4.9999768379660155e-08 -2.1218353127781033e-08 7.105563127793797" Properties=species:S:1:pos:R:3:forces:R:3 energy=-26.258922576904297 free_energy=-26.258922576904297 stress="0.00023657506972085685 1.3579796842577707e-08 -8.605193002608758e-09 1.3579796842577707e-08 0.00023656808480154723 1.0487662294167421e-08 -8.605193002608758e-09 1.0487662294167421e-08 0.00023654762480873615" pbc="T T T"
Mg       2.05119935       1.45041673       3.55278162       0.00000038      -0.00000157       0.00000024
Mg       6.15359808       4.35125102      10.65834450      -0.00000001       0.00000061      -0.00000064
Ir       0.00000002      -0.00000000       0.00000009      -0.00000242       0.00000008      -0.00000109
Br       2.02021641       1.42850848       7.10556317       0.00099661       0.00070542      -0.00000005
Br       6.18458134       4.37315947       7.10556316      -0.00099638      -0.00070427      -0.00000065
Br       5.14349003       1.42850852       5.30234016      -0.00049851       0.00070588       0.00086427
Br       3.06130770       4.37315936       8.90878617       0.00049824      -0.00070477      -0.00086387
Br       3.06130751       4.37315941       5.30234007       0.00049990      -0.00070637       0.00086570
Br       5.14349000       1.42850860       8.90878628      -0.00049789       0.00070500      -0.00086389
