9
Lattice="6.22708299824277 1.6888790184687107e-07 3.5952083062169486 2.075694443511702 5.870949907971236 3.5952083901606513 4.252894650897776e-08 1.328821346913155e-07 7.1904165387715935" Properties=species:S:1:pos:R:3:forces:R:3 energy=-28.011106491088867 free_energy=-28.011106491088867 stress="3.5006331017939374e-05 1.8663748324598828e-09 -7.397269907727377e-09 1.8663748324598828e-09 3.5015036701224744e-05 1.3290249789577047e-08 -7.397269907727377e-09 1.3290249789577047e-08 3.5015724279219285e-05" pbc="T T T"
Mg       2.07569332       1.46773656       3.59520863      -0.00000268      -0.00000156       0.00000058
Mg       6.22708280       4.40321231      10.78562572      -0.00000161      -0.00000233       0.00000142
Mo       0.00000023      -0.00000000       0.00000009      -0.00000211       0.00000362      -0.00000245
Br       2.08464027       1.47406323       7.19041628      -0.00355875      -0.00251597      -0.00000080
Br       6.21813768       4.39688735       7.19041658       0.00355847       0.00251637      -0.00000039
Br       5.18476333       1.47406334       5.40055967       0.00178114      -0.00251622      -0.00308327
Br       3.11801467       4.39688701       8.98027316      -0.00177938       0.00251796       0.00308151
Br       3.11801476       4.39688741       5.40055946      -0.00177624       0.00251503      -0.00307929
Br       5.18476286       1.47406365       8.98027332       0.00178117      -0.00251690       0.00308269
