9
Lattice="5.96331189568778 -1.3754717003575624e-07 3.4429195723048003 1.9877705227783362 5.622263917744954 3.442919536688465 -2.0387910768651024e-08 -5.8037334027331575e-08 6.885839179922462" Properties=species:S:1:pos:R:3:forces:R:3 energy=-31.420759201049805 free_energy=-31.420759201049805 stress="0.00019016265287064016 -1.5827005483970424e-08 3.0338074274993687e-09 -1.5827005483970424e-08 0.00019018743478227407 1.2941472782301844e-08 3.0338074274993687e-09 1.2941472782301844e-08 0.0001902309595607221" pbc="T T T"
Mg       1.98776876       1.40556637       3.44291949      -0.00000643      -0.00000067      -0.00000140
Mg       5.96331213       4.21669778      10.32875940      -0.00000009      -0.00000063       0.00000369
Mo      -0.00000004       0.00000004      -0.00000007       0.00000106      -0.00000207       0.00000056
Cl       1.95525904       1.38257659       6.88583923       0.00024991       0.00017757      -0.00000029
Cl       5.99582337       4.23968642       6.88583904      -0.00024518      -0.00017555      -0.00000071
Cl       4.98568253       1.38257720       5.13622387      -0.00012176       0.00017459       0.00021412
Cl       2.96540077       4.23968667       8.63545417       0.00012202      -0.00017325      -0.00021361
Cl       2.96540083       4.23968687       5.13622380       0.00012254      -0.00017368       0.00021332
Cl       4.98568221       1.38257696       8.63545420      -0.00012212       0.00017362      -0.00021574
