9
Lattice="6.714479655576964 3.6957308629557125e-09 3.876606632439141 2.238159899864787 6.330472094342803 3.8766066130607335 4.356539749417513e-08 7.071772446288609e-09 7.753213189420798" Properties=species:S:1:pos:R:3:forces:R:3 energy=-24.542823791503906 free_energy=-24.542823791503906 stress="0.0001565357088111341 4.980572065882427e-10 5.77672576440591e-10 4.980572065882427e-10 0.0001565496640978381 6.569690569335762e-09 5.77672576440591e-10 6.569690569335762e-09 0.00015653783339075744" pbc="T T T"
Mg       2.23815984       1.58261814       3.87660685       0.00000016       0.00000040       0.00000115
Mg       6.71447956       4.74785380      11.62981957      -0.00000113      -0.00000087      -0.00000081
Mo       0.00000020       0.00000001      -0.00000010       0.00000077      -0.00000085       0.00000079
I        2.26426506       1.60107728       7.75321318      -0.00486109      -0.00343725      -0.00000043
I        6.68837457       4.72939490       7.75321317       0.00486122       0.00343707       0.00000054
I        5.58234684       1.60107714       5.83751757       0.00243048      -0.00343730      -0.00421046
I        3.37029255       4.72939506       9.66890898      -0.00242984       0.00343768       0.00421047
I        3.37029258       4.72939485       5.83751755      -0.00243092       0.00343744      -0.00421056
I        5.58234725       1.60107720       9.66890896       0.00243033      -0.00343637       0.00420928
