9
Lattice="4.620015922937689 -6.768650935427786e-09 2.66736751123672 1.5400052753637026 4.355792640605075 2.6673675560979397 -3.020730958046177e-08 3.358375700525003e-08 5.334735074794039" Properties=species:S:1:pos:R:3:forces:R:3 energy=-41.48710632324219 free_energy=-41.48710632324219 stress="0.0005071131745353341 -1.8158328174422422e-09 8.341708657155777e-09 -1.8158328174422422e-09 0.0005071713239885867 -8.878210167040379e-08 8.341708657155777e-09 -8.878210167040379e-08 0.000507101824041456" pbc="T T T"
Mg       1.54000564       1.08894777       2.66736743       0.00000107      -0.00000227      -0.00000108
Mg       4.62001639       3.26684462       8.00210280       0.00000075       0.00000111       0.00000120
Mo      -0.00000029       0.00000012       0.00000018       0.00000323      -0.00000563       0.00000889
F        1.64151707       1.16072756       5.33473487       0.00108695       0.00076711       0.00000002
F        4.51850356       3.19506498       5.33473484      -0.00108635      -0.00076529      -0.00000063
F        3.79925723       1.16072797       4.08896323      -0.00054330       0.00076780       0.00094059
F        2.36076357       3.19506465       6.58050699       0.00054204      -0.00076923      -0.00094140
F        2.36076396       3.19506506       4.08896330       0.00053941      -0.00076073       0.00093484
F        3.79925725       1.16072793       6.58050703      -0.00054400       0.00076726      -0.00094190
