9
Lattice="5.597309449587186 8.846776013832797e-08 3.231608008842802 1.8657698711829915 5.2771940640200485 3.2316080586466582 -5.530690778271265e-08 2.1889114690625473e-08 6.463216113479963" Properties=species:S:1:pos:R:3:forces:R:3 energy=-22.887582778930664 free_energy=-22.887582778930664 stress="-5.7301534980069846e-05 4.251014651401874e-09 -4.523713847959243e-09 4.251014651401874e-09 -5.7321911299368367e-05 -1.3172282820050896e-08 -4.523713847959243e-09 -1.3172282820050896e-08 -5.730014163418673e-05" pbc="T T T"
Mg       1.86576969       1.31929820       3.23160828      -0.00000153      -0.00000143       0.00000263
Mg       5.59730921       3.95789644       9.69482379       0.00000000       0.00000299       0.00000058
N        0.00000166       0.00000040       0.00000402       0.00002480       0.00000946       0.00005246
Cl       1.85773697       1.31361855       6.46321605      -0.00105760      -0.00074953      -0.00000337
Cl       5.60534089       3.96357453       6.46321607       0.00104311       0.00073670      -0.00000386
Cl       4.66844102       1.31361832       4.84045540       0.00052886      -0.00075093      -0.00092360
Cl       2.79463933       3.96357483       8.08597488      -0.00052209       0.00073610       0.00090109
Cl       2.79463795       3.96357619       4.84045519      -0.00053132       0.00075077      -0.00092290
Cl       4.66844031       1.31361928       8.08597501       0.00051586      -0.00073428       0.00089687
