9
Lattice="4.505478672431732 -2.528193865944835e-07 2.6012394370810927 1.5018259964655851 4.247805754432576 2.60123941857924 -9.59711484020933e-08 -9.052193045102881e-08 5.202479040389125" Properties=species:S:1:pos:R:3:forces:R:3 energy=-38.259796142578125 free_energy=-38.259796142578125 stress="2.3494159904657863e-05 -1.2551479855460457e-08 -1.0617911883059605e-08 -1.2551479855460457e-08 2.3517539375461638e-05 1.7907337834799364e-08 -1.0617911883059605e-08 1.7907337834799364e-08 2.3663325919187628e-05" pbc="T T T"
Mg       1.50182607       1.06195433       2.60123967      -0.00000006       0.00000727       0.00000164
Mg       4.50547832       3.18585428       7.80371930      -0.00000022       0.00000358       0.00000258
P        0.00000000      -0.00000018      -0.00000022       0.00000068       0.00000005      -0.00000267
F        1.54357756       1.09147298       5.20247902      -0.00128156      -0.00090802      -0.00000033
F        4.46372783       3.15633157       5.20247896       0.00128299       0.00090325      -0.00000166
F        3.73368993       1.09147280       3.93801660       0.00064170      -0.00090671      -0.00111043
F        2.27361416       3.15633170       6.46694099      -0.00064349       0.00090623       0.00111264
F        2.27361468       3.15633106       3.93801569      -0.00064081       0.00090218      -0.00111347
F        3.73368989       1.09147313       6.46694131       0.00064051      -0.00090760       0.00111121
