9
Lattice="6.618844199035423 8.524972089623998e-08 3.8213914451165567 2.2062814589985105 6.240306188821196 3.8213914815834245 -1.4770257676480812e-08 3.421847954131532e-08 7.642782915815965" Properties=species:S:1:pos:R:3:forces:R:3 energy=-18.696075439453125 free_energy=-18.696075439453125 stress="0.00020991360361222178 1.9139607676521564e-09 5.481029519138758e-10 1.9139607676521564e-09 0.0002099104895023629 4.997064984024746e-10 5.481029519138758e-10 4.997064984024746e-10 0.00020990557095501572" pbc="T T T"
Mg       2.20628166       1.56007661       3.82139146       0.00000043      -0.00000002      -0.00000082
Mg       6.61884428       4.68023007      11.46417446       0.00000094       0.00000137       0.00000008
P       -0.00000011      -0.00000009      -0.00000022      -0.00000049      -0.00000010       0.00000037
I        2.25655781       1.59562738       7.64278297      -0.00406433      -0.00287415      -0.00000008
I        6.56856786       4.64467889       7.64278289       0.00406439       0.00287455       0.00000021
I        5.49056522       1.59562726       5.77562789       0.00203191      -0.00287460      -0.00351904
I        3.33456027       4.64467892       9.50993805      -0.00203190       0.00287323       0.00351927
I        3.33456042       4.64467894       5.77562796      -0.00203249       0.00287332      -0.00351959
I        5.49056517       1.59562726       9.50993795       0.00203153      -0.00287357       0.00351964
