9
Lattice="6.201575431663521 -3.3054763353057143e-09 3.580481218545193 2.0671918200710984 5.8469012942860745 3.5804811966641297 -1.5382416344409074e-08 -3.7675722503983515e-08 7.160962463733506" Properties=species:S:1:pos:R:3:forces:R:3 energy=-21.476987838745117 free_energy=-21.476987838745117 stress="-3.137388557661325e-05 1.2358509771104309e-08 -2.757641337503003e-10 1.2358509771104309e-08 -3.1376977858599275e-05 8.056643352460924e-09 -2.757641337503003e-10 8.056643352460924e-09 -3.137578460155055e-05" pbc="T T T"
Mg       2.06719322       1.46172467       3.58048105       0.00000396      -0.00000059      -0.00000091
Mg       6.20157704       4.38517640      10.74144276       0.00000395       0.00000058      -0.00000154
P       -0.00000024      -0.00000014      -0.00000009       0.00000057       0.00000143       0.00000056
Br       2.10524621       1.48863438       7.16096273       0.00005160       0.00003803       0.00000007
Br       6.16351993       4.35826695       7.16096268      -0.00005461      -0.00003628       0.00000084
Br       5.14895165       1.48863420       5.40367850      -0.00002902       0.00003752       0.00004559
Br       3.11981466       4.35826725       8.91824683       0.00002654      -0.00003915      -0.00004818
Br       3.11981473       4.35826718       5.40367851       0.00002560      -0.00003912       0.00004901
Br       5.14895173       1.48863416       8.91824670      -0.00002866       0.00003757      -0.00004542
