9
Lattice="5.204642209738276 3.0299691329995424e-08 3.004901596379688 1.7348807107522364 4.9069838981075415 3.004901690592865 -1.3592910782833405e-07 1.927072359643207e-08 6.009803428195498" Properties=species:S:1:pos:R:3:forces:R:3 energy=-22.996715545654297 free_energy=-22.996715545654297 stress="-3.702424874063581e-05 -9.932698219472513e-09 5.2535642502959945e-09 -9.932698219472513e-09 -3.696656131069176e-05 -2.0925968513552107e-08 5.2535642502959945e-09 -2.0925968513552107e-08 -3.700992601807229e-05" pbc="T T T"
Mg       1.73488057       1.22674554       3.00490140      -0.00000016      -0.00000070      -0.00000154
Mg       5.20464224       3.68023833       9.01470476       0.00000055       0.00000076      -0.00000096
P       -0.00000011      -0.00000005      -0.00000022       0.00000178       0.00000218       0.00000334
Cl       1.81494381       1.28335934       6.00980346      -0.00001237      -0.00000790       0.00000115
Cl       5.12457925       3.62362476       6.00980354       0.00000870       0.00000516       0.00000021
Cl       4.29717002       1.28335922       4.57668923       0.00000668      -0.00000784      -0.00000912
Cl       2.64235260       3.62362495       7.44291765      -0.00000481       0.00000611       0.00000793
Cl       2.64235275       3.62362457       4.57668903      -0.00000538       0.00000927      -0.00001025
Cl       4.29717003       1.28335919       7.44291790       0.00000487      -0.00000700       0.00000906
