9
Lattice="5.89562003355468 -8.650468813816662e-08 3.403837711554089 1.9652066220234092 5.558443470979059 3.403837666989701 3.92993842345034e-08 -2.6791119934887932e-08 6.8076753550396445" Properties=species:S:1:pos:R:3:forces:R:3 energy=-29.319992065429688 free_energy=-29.319992065429688 stress="0.00017987623868975788 -2.8920132066900806e-08 1.3585874647503715e-08 -2.8920132066900806e-08 0.00017992229550145566 -1.4309106788346071e-08 1.3585874647503715e-08 -1.4309106788346071e-08 0.0001799208257580176" pbc="T T T"
Mg       1.96520647       1.38961131       3.40383739      -0.00000054       0.00000230      -0.00000141
Mg       5.89562039       4.16883138      10.21151392       0.00000128      -0.00000395       0.00000225
Ru      -0.00000014      -0.00000011      -0.00000027       0.00000214       0.00000357       0.00000007
Cl       1.92051405       1.35800840       6.80767522       0.00081462       0.00057775      -0.00000085
Cl       5.94031270       4.20043507       6.80767526      -0.00082031      -0.00057878       0.00000034
Cl       4.93536350       1.35800868       5.06705131      -0.00040674       0.00057846       0.00070515
Cl       2.92546304       4.20043483       8.54829935       0.00040727      -0.00057840      -0.00070855
Cl       2.92546387       4.20043529       5.06705140       0.00040741      -0.00057629       0.00070652
Cl       4.93536293       1.35800857       8.54829928      -0.00040528       0.00057518      -0.00070319
