9
Lattice="6.100337503180072 -4.0474465764019035e-09 3.522031575105232 2.033445851041139 5.751453312017348 3.5220315396609956 7.152403104195572e-08 7.164954013746374e-09 7.04406302632722" Properties=species:S:1:pos:R:3:forces:R:3 energy=-25.7135009765625 free_energy=-25.7135009765625 stress="0.0002445603022351861 -8.125096151445632e-09 -6.223970672181167e-09 -8.125096151445632e-09 0.00024456714163534343 1.5822515520014235e-09 -6.223970672181167e-09 1.5822515520014235e-09 0.00024456545361317694" pbc="T T T"
Mg       2.03344595       1.43786338       3.52203129       0.00000097       0.00000006      -0.00000050
Mg       6.10033764       4.31359013      10.56609424       0.00000018      -0.00000043      -0.00000065
Rh      -0.00000009      -0.00000011      -0.00000027       0.00000096      -0.00000156       0.00000737
Br       2.01098141       1.42197869       7.04406312       0.00149717       0.00105817       0.00000111
Br       6.12280201       4.32947477       7.04406313      -0.00149661      -0.00105964       0.00000072
Br       5.09484683       1.42197850       5.26359259      -0.00074708       0.00105661       0.00129630
Br       3.03893646       4.32947483       8.82453387       0.00074880      -0.00105913      -0.00129704
Br       3.03893671       4.32947458       5.26359263       0.00074672      -0.00105593       0.00129274
Br       5.09484682       1.42197849       8.82453398      -0.00075100       0.00106187      -0.00130001
