9
Lattice="4.550790541518072 -7.232101873538407e-10 2.627400014793986 1.516930192205231 4.290526164032735 2.627399993349358 9.476998104890807e-08 4.0748332539570657e-08 5.254799865441512" Properties=species:S:1:pos:R:3:forces:R:3 energy=-39.36041259765625 free_energy=-39.36041259765625 stress="0.00021771092724520713 4.859269253643106e-08 -3.5797924624603183e-08 4.859269253643106e-08 0.00021773186745122075 1.2081596167945463e-08 -3.5797924624603183e-08 1.2081596167945463e-08 0.00021770663443021476" pbc="T T T"
Mg       1.51693027       1.07263123       2.62740005       0.00000063      -0.00000195       0.00000038
Mg       4.55079029       3.21789480       7.88220024      -0.00000200       0.00000016       0.00000204
Rh       0.00000008       0.00000006       0.00000023       0.00000598      -0.00000637       0.00000244
F        1.60067924       1.13185097       5.25479999       0.00494421       0.00349650       0.00000029
F        4.46704161       3.15867534       5.25479955      -0.00494593      -0.00349614      -0.00000239
F        3.75045074       1.13185085       4.01362858      -0.00247481       0.00349835       0.00428414
F        2.31726993       3.15867553       6.49597107       0.00247303      -0.00349504      -0.00428271
F        2.31727014       3.15867534       4.01362852       0.00247332      -0.00349554       0.00428322
F        3.75045098       1.13185083       6.49597110      -0.00247476       0.00349984      -0.00428745
