9
Lattice="5.863126708278716 -3.307100756539571e-09 3.385077852675584 1.9543756054877592 5.527808813030522 3.385077784814764 8.798595445627171e-08 -2.0896744904659136e-08 6.7701555529549955" Properties=species:S:1:pos:R:3:forces:R:3 energy=-28.281206130981445 free_energy=-28.281206130981445 stress="8.652762335259467e-05 8.88359696915586e-09 1.4692561833840045e-08 8.88359696915586e-09 8.65266119944863e-05 -1.3871664705789044e-08 1.4692561833840045e-08 -1.3871664705789044e-08 8.652904944028705e-05" pbc="T T T"
Mg       1.95437676       1.38195227       3.38507786       0.00000431       0.00000017       0.00000060
Mg       5.86312712       4.14585705      10.15523361       0.00000154       0.00000110       0.00000021
Rh      -0.00000011      -0.00000011      -0.00000030      -0.00000056       0.00000142       0.00000491
Cl       1.90699366       1.34844725       6.77015526       0.00224517       0.00158535      -0.00000150
Cl       5.91050876       4.17936140       6.77015550      -0.00224766      -0.00158532      -0.00000024
Cl       4.90963021       1.34844783       5.03658261      -0.00112265       0.00158717       0.00194424
Cl       2.90787154       4.17936080       8.50372876       0.00112318      -0.00159098      -0.00194755
Cl       2.90787206       4.17936059       5.03658255       0.00111955      -0.00158754       0.00194201
Cl       4.90962969       1.34844814       8.50372886      -0.00112284       0.00158842      -0.00194280
