9
Lattice="6.526643664334375 4.188401726196826e-09 3.768159483109659 2.1755479232322297 6.153378557391261 3.7681594291182994 1.8500893081147788e-08 -5.3043487141052645e-08 7.53631893417482" Properties=species:S:1:pos:R:3:forces:R:3 energy=-22.460826873779297 free_energy=-22.460826873779297 stress="0.0001341273746220395 -2.252765973764781e-09 -6.151429143841369e-09 -2.252765973764781e-09 0.00013411231338977814 1.5116864426900634e-09 -6.151429143841369e-09 1.5116864426900634e-09 0.00013412653061095625" pbc="T T T"
Mg       2.17554766       1.53834460       3.76815952      -0.00000035       0.00000026       0.00000025
Mg       6.52664381       4.61503397      11.30447857      -0.00000002       0.00000038       0.00000047
Rh       0.00000012      -0.00000011       0.00000014       0.00000151       0.00000085       0.00000468
I        2.17639391       1.53894283       7.53631885      -0.00036548      -0.00025815       0.00000032
I        6.52579792       4.61443582       7.53631880       0.00036325       0.00025681      -0.00000042
I        5.43844674       1.53894284       5.65297168       0.00018363      -0.00025883      -0.00031625
I        3.26374464       4.61443572       9.41966609      -0.00018117       0.00025633       0.00031360
I        3.26374485       4.61443564       5.65297169      -0.00018281       0.00025879      -0.00031609
I        5.43844678       1.53894272       9.41966603       0.00018142      -0.00025648       0.00031340
