9
Lattice="6.135295995338875 -5.964835080846504e-08 3.5422148222988814 2.0450985976261227 5.784412472301952 3.542214841784091 -8.077375567111991e-09 1.8152881546554563e-08 7.084429658588183" Properties=species:S:1:pos:R:3:forces:R:3 energy=-26.755142211914062 free_energy=-26.755142211914062 stress="0.00027611004770733416 -5.365596411621709e-09 6.229858851014569e-09 -5.365596411621709e-09 0.0002761153446044773 -1.606328403624957e-08 6.229858851014569e-09 -1.606328403624957e-08 0.00027612296980805695" pbc="T T T"
Mg       2.04509867       1.44610254       3.54221507       0.00000029      -0.00000066       0.00000003
Mg       6.13529611       4.33830909      10.62664417       0.00000033      -0.00000031      -0.00000008
Ru       0.00000006       0.00000002      -0.00000013      -0.00000153       0.00000298       0.00000185
Br       2.02449631       1.43153522       7.08442971       0.00160436       0.00113649       0.00000004
Br       6.15589809       4.35287734       7.08442972      -0.00160552      -0.00113428       0.00000072
Br       5.12304759       1.43153516       5.29548015      -0.00080224       0.00113321       0.00138771
Br       3.05734687       4.35287765       8.87337923       0.00080421      -0.00113703      -0.00139335
Br       3.05734684       4.35287755       5.29548013       0.00080146      -0.00113380       0.00139087
Br       5.12304781       1.43153514       8.87337922      -0.00080136       0.00113339      -0.00138775
