9
Lattice="4.50919122406445 -4.9697639742478595e-08 2.6033828043076195 1.503063698032284 4.251306424300763 2.603382798188572 -1.268316025946557e-08 -1.6462650010930647e-08 5.206765630583118" Properties=species:S:1:pos:R:3:forces:R:3 energy=-41.28337097167969 free_energy=-41.28337097167969 stress="0.0002626556670293212 -2.337059079593473e-08 8.46876435645072e-09 -2.337059079593473e-08 0.0002626031928230077 4.174852819005537e-08 8.46876435645072e-09 4.174852819005537e-08 0.000262689107330516" pbc="T T T"
Mg       1.50306368       1.06282678       2.60338278      -0.00000027       0.00000173       0.00000001
Mg       4.50919113       3.18847968       7.81014839       0.00000037      -0.00000139      -0.00000145
Ru      -0.00000005      -0.00000004      -0.00000012       0.00000390      -0.00000158       0.00000686
F        1.59589182       1.12846580       5.20676572       0.00038174       0.00026941      -0.00000046
F        4.41636333       3.12284050       5.20676550      -0.00038400      -0.00027110      -0.00000031
F        3.71124531       1.12846598       3.98546551      -0.00019008       0.00026953       0.00032942
F        2.30100970       3.12284024       6.42806577       0.00019113      -0.00027125      -0.00032954
F        2.30100924       3.12284051       3.98546567       0.00018842      -0.00026853       0.00032930
F        3.71124548       1.12846584       6.42806570      -0.00019094       0.00027302      -0.00033395
