9
Lattice="6.555051521649309 3.9238134324590245e-08 3.7845607231672607 2.1850172274487716 6.180161820464258 3.784560694464418 2.2369127563797876e-08 -1.9336311576892348e-08 7.569121407590059" Properties=species:S:1:pos:R:3:forces:R:3 energy=-23.11882209777832 free_energy=-23.11882209777832 stress="0.00025073165306821465 1.1021826118451372e-08 9.282861590520497e-09 1.1021826118451372e-08 0.0002507353783585131 -9.251181154468213e-09 9.282861590520497e-09 -9.251181154468213e-09 0.00025071785785257816" pbc="T T T"
Mg       2.18501714       1.54504064       3.78456070      -0.00000036       0.00000125       0.00000010
Mg       6.55505148       4.63512131      11.35368226      -0.00000036      -0.00000034       0.00000124
Ru       0.00000018       0.00000009      -0.00000003      -0.00000079      -0.00000030       0.00000139
I        2.19249700       1.55032942       7.56912139      -0.00133181      -0.00094141       0.00000066
I        6.54757172       4.62983224       7.56912139       0.00133267       0.00094190      -0.00000039
I        5.45880311       1.55032938       5.68331866       0.00066587      -0.00094099      -0.00115386
I        3.28126572       4.62983248       9.45492424      -0.00066535       0.00094015       0.00115173
I        3.28126571       4.62983248       5.68331859      -0.00066599       0.00094154      -0.00115410
I        5.45880303       1.55032933       9.45492410       0.00066610      -0.00094191       0.00115316
