9
Lattice="4.71665066838267 1.0454893465739956e-07 2.723159356786287 1.5722170156925173 4.446900681635564 2.7231593088744184 1.9717098850216602e-07 8.074111394252666e-08 5.4463183720624455" Properties=species:S:1:pos:R:3:forces:R:3 energy=-36.568389892578125 free_energy=-36.568389892578125 stress="0.00016193966439459473 5.906355937668195e-08 -4.060732550215107e-08 5.906355937668195e-08 0.00016188720474019647 -6.515580075472371e-09 -4.060732550215107e-08 -6.515580075472371e-09 0.00016208075976464897" pbc="T T T"
Mg       1.57221696       1.11172609       2.72315886       0.00000079       0.00000452      -0.00000234
Mg       4.71665068       3.33517599       8.16947782      -0.00000221       0.00000054      -0.00000011
Sb      -0.00000018       0.00000018       0.00000020       0.00000265      -0.00000785       0.00000912
F        1.70342805       1.20450544       5.44631851      -0.00207797      -0.00147012       0.00000133
F        4.58544010       3.24239497       5.44631845       0.00208163       0.00146866       0.00000086
F        3.86493670       1.20450534       4.19837120       0.00103915      -0.00147057      -0.00180009
F        2.42393097       3.24239490       6.69426629      -0.00103889       0.00146708       0.00180137
F        2.42393149       3.24239527       4.19837078      -0.00104022       0.00147334      -0.00180641
F        3.86493666       1.20450532       6.69426612       0.00103514      -0.00146535       0.00179625
