9
Lattice="6.842566804568214 1.1501489277171019e-09 3.950557650216193 2.280855597836697 6.451233828774008 3.950557658478801 -9.976180126564208e-09 3.0653402279842213e-09 7.901115317711662" Properties=species:S:1:pos:R:3:forces:R:3 energy=-18.38031578063965 free_energy=-18.38031578063965 stress="0.00016407918883487582 8.791018468734535e-10 3.420174587986935e-09 8.791018468734535e-10 0.00016408269584644586 -7.2061130396150475e-09 3.420174587986935e-09 -7.2061130396150475e-09 0.00016409620002377778" pbc="T T T"
Mg       2.28085578       1.61280828       3.95055770       0.00000023      -0.00000062       0.00000019
Mg       6.84256664       4.83842558      11.85167300       0.00000031       0.00000043       0.00000048
Sb      -0.00000005       0.00000021      -0.00000031      -0.00000103      -0.00000040       0.00000051
I        2.39598500       1.69421731       7.90111533      -0.00197314      -0.00139533      -0.00000013
I        6.72743729       4.75701654       7.90111551       0.00197369       0.00139552      -0.00000007
I        5.64457427       1.69421717       6.02554168       0.00098697      -0.00139582      -0.00170939
I        3.47884807       4.75701668       9.77668891      -0.00098677       0.00139583       0.00170891
I        3.47884840       4.75701635       6.02554174      -0.00098696       0.00139671      -0.00171082
I        5.64457418       1.69421719       9.77668894       0.00098670      -0.00139632       0.00171026
