9
Lattice="6.101947595454776 5.5005330512064e-08 3.522961316950556 2.033982515156264 5.752971566829284 3.5229614356332104 1.0640896205469117e-08 1.5288027051592777e-07 7.0459226154705075" Properties=species:S:1:pos:R:3:forces:R:3 energy=-24.99020767211914 free_energy=-24.99020767211914 stress="7.334493420785293e-05 -9.69093250091646e-09 1.9289778663278412e-08 -9.69093250091646e-09 7.33742635929957e-05 -2.574847535186109e-08 1.9289778663278412e-08 -2.574847535186109e-08 7.336535782087594e-05" pbc="T T T"
Mg       2.03398289       1.43824325       3.52296129       0.00000085       0.00000111       0.00000005
Mg       6.10194763       4.31472916      10.56888363      -0.00000012       0.00000152      -0.00000023
Sb      -0.00000016      -0.00000035       0.00000001       0.00000229       0.00000423       0.00000145
Cl       2.07686298       1.46856366       7.04592256      -0.00531814      -0.00376140      -0.00000048
Cl       6.05906709       4.28440804       7.04592288       0.00531535       0.00375846      -0.00000012
Cl       5.06351636       1.46856389       5.32157768       0.00265824      -0.00376041      -0.00460498
Cl       3.07241388       4.28440776       8.77026800      -0.00265813       0.00375812       0.00460427
Cl       3.07241386       4.28440763       5.32157762      -0.00266062       0.00376056      -0.00460693
Cl       5.06351603       1.46856411       8.77026790       0.00266027      -0.00376226       0.00460698
