9
Lattice="6.341440587851678 8.191487926523247e-09 3.661232512307042 2.1138135706199566 5.9787675650145 3.6612324540875116 1.6098349126239248e-07 4.25284548341845e-08 7.322464745782457" Properties=species:S:1:pos:R:3:forces:R:3 energy=-21.905567169189453 free_energy=-21.905567169189453 stress="9.663145465310663e-05 -2.119160669167286e-08 1.8219710185007898e-09 -2.119160669167286e-08 9.66506777331233e-05 -7.064083540342381e-09 1.8219710185007898e-09 -7.064083540342381e-09 9.668213897384703e-05" pbc="T T T"
Mg       2.11381426       1.49469221       3.66123232       0.00000160       0.00000070      -0.00000056
Mg       6.34144045       4.48407590      10.98369766       0.00000023       0.00000090       0.00000060
Sb      -0.00000019      -0.00000012      -0.00000009      -0.00000042      -0.00000070      -0.00000333
Br       2.18509825       1.54509737       7.32246477       0.00006406       0.00004516       0.00000042
Br       6.27015622       4.43367011       7.32246479      -0.00006469      -0.00004654       0.00000067
Br       5.24889147       1.54509787       5.55358277      -0.00003145       0.00004499       0.00005484
Br       3.20636248       4.43366973       9.09134687       0.00003097      -0.00004420      -0.00005294
Br       3.20636275       4.43366975       5.55358298       0.00003081      -0.00004356       0.00005354
Br       5.24889158       1.54509761       9.09134682      -0.00003114       0.00004321      -0.00005318
