9
Lattice="6.390001027379382 -1.1842831062318584e-07 3.6892686477975465 2.1300002039326253 6.024550540442285 3.6892686943409614 8.604971704390983e-08 1.1785016759578619e-07 7.378537146552623" Properties=species:S:1:pos:R:3:forces:R:3 energy=-30.861562728881836 free_energy=-30.861562728881836 stress="-0.00022876235016155988 -2.592594405825821e-08 -3.7225817095531966e-08 -2.592594405825821e-08 -0.00022873166017234325 2.4921313013237523e-08 -3.7225817095531966e-08 2.4921313013237523e-08 -0.00022873336274642497" pbc="T T T"
Mg       2.12999943       1.50613861       3.68926860      -0.00000029       0.00000094       0.00000013
Mg       6.39000271       4.51841277      11.06780474       0.00000193      -0.00000015      -0.00000215
Ta      -0.00000012      -0.00000030       0.00000052       0.00000595       0.00000172      -0.00000451
Br       2.08290383       1.47283531       7.37853707       0.00256789       0.00181663       0.00000177
Br       6.43709711       4.55171525       7.37853732      -0.00257236      -0.00182086       0.00000130
Br       5.34854865       1.47283569       5.49311583      -0.00128287       0.00181532       0.00222498
Br       3.17145250       4.55171475       9.26395848       0.00128189      -0.00181487      -0.00222224
Br       3.17145194       4.55171504       5.49311626       0.00128257      -0.00181621       0.00222671
Br       5.34854935       1.47283494       9.26395921      -0.00128445       0.00181741      -0.00222600
