9
Lattice="6.237933584729936 -5.112161388556069e-08 3.60147289164606 2.0793110337695397 5.881180993689531 3.601473087268215 -7.145495465468667e-08 1.8906095012092775e-07 7.2029459070556365" Properties=species:S:1:pos:R:3:forces:R:3 energy=-34.45008087158203 free_energy=-34.45008087158203 stress="-4.133077254664386e-06 -1.9195526945736674e-08 1.9788300775758216e-08 -1.9195526945736674e-08 -4.086421995452838e-06 -1.2855357667262979e-08 1.9788300775758216e-08 -1.2855357667262979e-08 -4.097169494343689e-06" pbc="T T T"
Mg       2.07931224       1.47029564       3.60147264       0.00000179       0.00000057      -0.00000053
Mg       6.23793542       4.41088567      10.80441996       0.00000218       0.00000015       0.00000108
Ta      -0.00000040       0.00000028       0.00000048       0.00000041       0.00000222      -0.00000688
Cl       1.95588070       1.38301661       7.20294583      -0.00003105      -0.00002271      -0.00000044
Cl       6.36136372       4.49816430       7.20294568       0.00002760       0.00002146       0.00000062
Cl       5.25999333       1.38301691       5.29531573       0.00001454      -0.00002182      -0.00002533
Cl       3.05725056       4.49816436       9.11057638      -0.00001690       0.00002384       0.00002736
Cl       3.05725075       4.49816385       5.29531510      -0.00001585       0.00002170      -0.00002670
Cl       5.25999214       1.38301701       9.11057627       0.00001740      -0.00002545       0.00003076
