9
Lattice="4.616470414480023 -1.03381537980614e-07 2.665320418915861 1.5388234695982317 4.352449281187362 2.6653202533769615 -1.6930667153408173e-08 -2.1471474272287112e-07 5.330640867156509" Properties=species:S:1:pos:R:3:forces:R:3 energy=-46.77067565917969 free_energy=-46.77067565917969 stress="0.00026506619178690016 -5.634537458831801e-08 1.88786533072971e-08 -5.634537458831801e-08 0.00026517268270254135 1.1159974633301317e-07 1.88786533072971e-08 1.1159974633301317e-07 0.0002650064416229725" pbc="T T T"
Mg       1.53882365       1.08811204       2.66532134       0.00000150       0.00000003       0.00000305
Mg       4.61647025       3.26433699       7.99596159      -0.00000084       0.00000230       0.00000069
Ta      -0.00000025       0.00000049      -0.00000161      -0.00000032       0.00000317      -0.00000687
F        1.59833525       1.13019271       5.33064088      -0.00186789      -0.00132388      -0.00000131
F        4.55695908       3.22225584       5.33064153       0.00186694       0.00131899       0.00000375
F        3.81730323       1.13019232       4.04951936       0.00093406      -0.00132442      -0.00161684
F        2.33799162       3.22225594       6.61176256      -0.00093091       0.00132382       0.00161827
F        2.33799019       3.22225656       4.04951879      -0.00093514       0.00132197      -0.00161660
F        3.81730243       1.13019305       6.61176211       0.00093216      -0.00132132       0.00161552
