9
Lattice="4.548248667416709 2.0377935226130465e-08 2.625932722783256 1.5160829231366924 4.288129648997892 2.625932697174379 1.0091660938643391e-07 3.9994507283692715e-08 5.251865270773786" Properties=species:S:1:pos:R:3:forces:R:3 energy=-55.73456573486328 free_energy=-55.73456573486328 stress="-7.426291995216161e-05 1.5757969151763973e-08 -4.4827384471091136e-08 1.5757969151763973e-08 -7.447345706168562e-05 -4.5404501491930205e-08 -4.4827384471091136e-08 -4.5404501491930205e-08 -7.457282481482252e-05" pbc="T T T"
Mn       1.51608284       1.07203252       2.62593248      -0.00000026       0.00000183       0.00000098
Mn       4.54824877       3.21609771       7.87779848      -0.00000106       0.00000045       0.00000132
As       0.00000003       0.00000001       0.00000012      -0.00000335       0.00000133      -0.00000782
O        1.47447504       1.04261110       5.25186530       0.00160265       0.00113213       0.00000113
O        4.58985680       3.24551833       5.25186532      -0.00159967      -0.00112963      -0.00000042
O        3.81101145       1.04261123       3.90286540      -0.00079989       0.00113273       0.00138652
O        2.25332055       3.24551840       6.60086520       0.00079948      -0.00113165      -0.00138700
O        2.25332024       3.24551846       3.90286527       0.00080240      -0.00113499       0.00139093
O        3.81101130       1.04261100       6.60086510      -0.00079948       0.00112820      -0.00138438
