9
Lattice="4.902035066958767 2.0152331874750347e-08 2.8301914199208436 1.6340117060971486 4.62168304750482 2.830191423192486 6.343041989350389e-08 4.885903423284992e-08 5.660382729977013" Properties=species:S:1:pos:R:3:forces:R:3 energy=-47.43341827392578 free_energy=-47.43341827392578 stress="-3.246797632527887e-06 -7.95145780330131e-08 -3.1556228741180803e-09 -7.95145780330131e-08 -3.1973681871022563e-06 7.426018022727021e-09 -3.1556228741180803e-09 7.426018022727021e-09 -3.1268650673155207e-06" pbc="T T T"
Mn       1.63401178       1.15542108       2.83019149       0.00000078       0.00000068      -0.00000050
Mn       4.90203490       3.46626193       8.49057433      -0.00000186      -0.00000222      -0.00000151
As      -0.00000007      -0.00000018       0.00000048       0.00000052       0.00000161      -0.00001031
F        1.63799250       1.15823563       5.66038298      -0.00054190      -0.00038373       0.00000066
F        4.89805426       3.46344761       5.66038267       0.00054190       0.00038327       0.00000081
F        4.08303875       1.15823602       4.24873495       0.00027391      -0.00038651      -0.00047347
F        2.45300856       3.46344677       7.07203028      -0.00027496       0.00038980       0.00047821
F        2.45300818       3.46344689       4.24873495      -0.00027367       0.00038576      -0.00047371
F        4.08303842       1.15823677       7.07203037       0.00027521      -0.00038876       0.00047964
