9
Lattice="5.777154930210351 8.690924113498803e-08 3.335441989615235 1.925718413379967 5.4467538431211135 3.3354419525995413 6.396804550712802e-08 -1.0253922091226257e-10 6.670883868434563" Properties=species:S:1:pos:R:3:forces:R:3 energy=-35.56803894042969 free_energy=-35.56803894042969 stress="0.00031624716939404607 1.076545430578335e-08 -1.1473973771103374e-08 1.076545430578335e-08 0.00031618165667168796 4.280710452775338e-09 -1.1473973771103374e-08 4.280710452775338e-09 0.0003161085769534111" pbc="T T T"
Mn       1.92571818       1.36168973       3.33544253       0.00000224       0.00000772       0.00000797
Mn       5.77715359       4.08506372      10.00632682      -0.00001102      -0.00001345       0.00000275
As      -0.00000032       0.00000008       0.00000038       0.00000667       0.00000038      -0.00000616
Cl       1.95612880       1.38319201       6.67088340      -0.00464356      -0.00328217      -0.00000124
Cl       5.74674516       4.06356171       6.67088366       0.00463951       0.00327846      -0.00000187
Cl       4.79909123       1.38319207       5.02949832       0.00231899      -0.00327098      -0.00401562
Cl       2.90378289       4.06356203       8.31226901      -0.00231719       0.00327709       0.00401900
Cl       2.90378286       4.06356195       5.02949822      -0.00231421       0.00327572      -0.00402054
Cl       4.79909123       1.38319242       8.31226889       0.00231857      -0.00327277       0.00401581
