9
Lattice="4.902483277696712 -3.1034840269927e-07 2.830449916312835 1.6341608787950794 4.622105044196428 2.8304497797773647 -4.262475590891626e-09 -1.7023517365930065e-07 5.660899840008524" Properties=species:S:1:pos:R:3:forces:R:3 energy=-47.43341827392578 free_energy=-47.43341827392578 stress="0.00012469114153645933 -3.1484873375120515e-08 7.822237080290506e-09 -3.1484873375120515e-08 0.0001246951869688928 -2.263197629304159e-08 7.822237080290506e-09 -2.263197629304159e-08 0.00012471889203879982" pbc="T T T"
Mn       1.63416065       1.15552607       2.83044970      -0.00000020      -0.00000168      -0.00000145
Mn       4.90248319       3.46657796       8.49134942      -0.00000164      -0.00000244      -0.00000285
As      -0.00000010      -0.00000008      -0.00000020      -0.00000054      -0.00000403       0.00000729
F        1.63818164       1.15836944       5.66090001      -0.00312987      -0.00221066       0.00000053
F        4.89846231       3.46373533       5.66089993       0.00313044       0.00221288       0.00000053
F        4.08339221       1.15836922       4.24915698       0.00156607      -0.00221393      -0.00271192
F        2.45325243       3.46373535       7.07264245      -0.00156376       0.00221495       0.00271082
F        2.45325232       3.46373564       4.24915723      -0.00156635       0.00221723      -0.00271437
F        4.08339193       1.15836944       7.07264269       0.00156586      -0.00221205       0.00271162
