9
Lattice="6.124087481230999 -2.3878722223535488e-09 3.535743457423873 2.041362470449153 5.773844998928758 3.5357434938717858 -4.504512809513637e-08 1.2787732774484062e-08 7.071486992868188" Properties=species:S:1:pos:R:3:forces:R:3 energy=-32.091495513916016 free_energy=-32.091495513916016 stress="6.874869723105803e-05 7.550512215459548e-09 -1.875955613073188e-09 7.550512215459548e-09 6.875071267131716e-05 -3.442748974791243e-09 -1.875955613073188e-09 -3.442748974791243e-09 6.875584222143516e-05" pbc="T T T"
Mn       2.04136317       1.44346106       3.53574264       0.00000529      -0.00000107      -0.00000528
Mn       6.12408744       4.33038362      10.60722703      -0.00000118      -0.00000038      -0.00002084
As      -0.00000004       0.00000006       0.00000042      -0.00000055      -0.00000034       0.00000129
Br       2.10614235       1.48926694       7.07148758      -0.00090934      -0.00064427       0.00000266
Br       6.05930698       4.28457803       7.07148845       0.00090943       0.00064731       0.00000789
Br       5.07101617       1.48926716       5.35971654       0.00045356      -0.00064575      -0.00078540
Br       3.09443412       4.28457730       8.78325826      -0.00045295       0.00064269       0.00079172
Br       3.09443293       4.28457743       5.35971639      -0.00045844       0.00064274      -0.00078505
Br       5.07101648       1.48926847       8.78325848       0.00045417      -0.00064097       0.00079298
