9
Lattice="5.506552037169533 -1.767180510301479e-08 3.1792092122934332 1.835517302287795 5.191627290018361 3.179209258667731 -5.5596532804930395e-08 1.7484027336131163e-08 6.358418520882862" Properties=species:S:1:pos:R:3:forces:R:3 energy=-43.01940155029297 free_energy=-43.01940155029297 stress="-4.313403769629076e-05 1.4854969698774312e-08 4.361649708073401e-09 1.4854969698774312e-08 -4.321548840380274e-05 -1.8006732105391166e-08 4.361649708073401e-09 -1.8006732105391166e-08 -4.303271271055564e-05" pbc="T T T"
Mn       1.83551748       1.29790642       3.17920860       0.00000083      -0.00000228      -0.00000351
Mn       5.50655180       3.89372049       9.53762788       0.00000071       0.00000151      -0.00000121
As       0.00000015       0.00000015      -0.00000059      -0.00000133      -0.00000154      -0.00000153
S        1.90934086       1.35010771       6.35841948       0.00018477       0.00012904       0.00000456
S        5.43272875       3.84151927       6.35841923      -0.00018245      -0.00013006       0.00000211
S        4.55188143       1.35010746       4.83274640      -0.00009531       0.00013226       0.00015944
S        2.79018747       3.84151972       7.88408996       0.00009021      -0.00012898      -0.00016093
S        2.79018779       3.84152000       4.83274705       0.00009549      -0.00012863       0.00016034
S        4.55188151       1.35010799       7.88408992      -0.00009292       0.00012869      -0.00015920
