9
Lattice="6.731302309434373 -4.8383816714950626e-08 3.886319275910334 2.243767383451701 6.346332723233652 3.8863192887443225 1.0264781943206115e-08 2.2976715245297174e-08 7.772638534041514" Properties=species:S:1:pos:R:3:forces:R:3 energy=-28.854299545288086 free_energy=-28.854299545288086 stress="0.0001306261110585183 5.2810325001928504e-09 -1.6480764530868441e-09 5.2810325001928504e-09 0.0001306271879002452 2.5052049323903702e-09 -1.6480764530868441e-09 2.5052049323903702e-09 0.0001306260091951117" pbc="T T T"
Mn       2.24376694       1.58658303       3.88631923      -0.00000038      -0.00000043      -0.00000012
Mn       6.73130248       4.75974919      11.65895711      -0.00000028      -0.00000034      -0.00000146
As      -0.00000012       0.00000018       0.00000022      -0.00000057       0.00000026       0.00000074
I        2.31221207       1.63498114       7.77263844      -0.00257045      -0.00181744      -0.00000013
I        6.66285777       4.71135174       7.77263888       0.00257041       0.00181808       0.00000027
I        5.57519627       1.63498087       5.88875393       0.00128560      -0.00181782      -0.00222542
I        3.39987373       4.71135166       9.65652327      -0.00128475       0.00181722       0.00222575
I        3.39987327       4.71135179       5.88875394      -0.00128484       0.00181750      -0.00222520
I        5.57519640       1.63498120       9.65652340       0.00128529      -0.00181701       0.00222554
