9
Lattice="5.777431472445154 1.3915322918176254e-07 3.335601589941308 1.925810608669392 5.447014695195491 3.335601613047825 -1.17408256441523e-07 -5.472056565426358e-08 6.6712033832396935" Properties=species:S:1:pos:R:3:forces:R:3 energy=-35.568031311035156 free_energy=-35.568031311035156 stress="0.0003654250758700073 -7.754441533336376e-09 -7.70976704700388e-09 -7.754441533336376e-09 0.00036543235182762146 -5.986135587221497e-09 -7.70976704700388e-09 -5.986135587221497e-09 0.00036546416231431067" pbc="T T T"
Mn       1.92581011       1.36175357       3.33560051      -0.00000246      -0.00000062      -0.00001222
Mn       5.77743089       4.08525971      10.00680387      -0.00000168      -0.00001057      -0.00000878
As       0.00000015       0.00000018       0.00000020       0.00000148       0.00000103       0.00000025
Cl       1.95620977       1.38324934       6.67120341      -0.00502543      -0.00355277       0.00000256
Cl       5.74703196       4.06376582       6.67120354       0.00502327       0.00355328       0.00000622
Cl       4.79932765       1.38324954       5.02972888       0.00251667      -0.00355187      -0.00434913
Cl       2.90391540       4.06376535       8.31267831      -0.00251111       0.00355423       0.00435437
Cl       2.90391534       4.06376615       5.02972909      -0.00251280       0.00355610      -0.00434922
Cl       4.79932661       1.38324950       8.31267853       0.00251203      -0.00354874       0.00435594
