9
Lattice="5.623506690626339 -2.725802649923627e-08 3.246733104954102 1.8745022510234275 5.3018928351137875 3.246733024389954 9.070172832685812e-08 -3.453478773968258e-08 6.493466052808199" Properties=species:S:1:pos:R:3:forces:R:3 energy=-39.83602523803711 free_energy=-39.83602523803711 stress="1.7379053360855323e-06 3.2426591189960163e-08 -1.2856267161964752e-08 3.2426591189960163e-08 1.7366368183502345e-06 -6.281372311178757e-09 -1.2856267161964752e-08 -6.281372311178757e-09 1.7308165070062387e-06" pbc="T T T"
Mn       1.87450324       1.32547309       3.24673374       0.00000589       0.00000041       0.00000262
Mn       5.62350632       3.97641925       9.74019866      -0.00000275      -0.00000260      -0.00000171
As      -0.00000008       0.00000005      -0.00000035       0.00000008       0.00000010       0.00000529
Se       2.11324001       1.49428586       6.49346626      -0.00020230      -0.00014257      -0.00000030
Se       5.38476890       3.80760652       6.49346567       0.00020254       0.00014415      -0.00000088
Se       4.56688637       1.49428602       5.07685168       0.00009647      -0.00014183      -0.00017750
Se       2.93112239       3.80760703       7.91008042      -0.00009800       0.00014058       0.00017402
Se       2.93112188       3.80760695       5.07685251      -0.00010188       0.00014116      -0.00017454
Se       4.56688717       1.49428639       7.91008023       0.00009994      -0.00013946       0.00017303
