9
Lattice="6.124287549478919 2.0641268346725832e-08 3.535859093909368 2.0414292525326125 5.774033703815498 3.5358590074588223 3.352675783884501e-08 -8.217280500622809e-08 7.0717181297486675" Properties=species:S:1:pos:R:3:forces:R:3 energy=-32.091495513916016 free_energy=-32.091495513916016 stress="8.627115312265232e-05 -1.919140957262755e-10 7.362551457390509e-09 -1.919140957262755e-10 8.626017370261252e-05 -1.9560681963071147e-09 7.362551457390509e-09 -1.9560681963071147e-09 8.628375508124009e-05" pbc="T T T"
Mn       2.04142945       1.44350445       3.53585960       0.00000026      -0.00002928       0.00000267
Mn       6.12428924       4.33052654      10.60757748       0.00001059       0.00000989      -0.00000005
As       0.00000019       0.00000030       0.00000051      -0.00000142      -0.00000019      -0.00000400
Br       2.10621730       1.48932008       7.07171758      -0.00113459      -0.00080244      -0.00000271
Br       6.05949842       4.28471430       7.07171801       0.00113190       0.00081159      -0.00000002
Br       5.07117917       1.48931982       5.35989693       0.00056523      -0.00080371      -0.00098105
Br       3.09453771       4.28471413       8.78353828      -0.00057092       0.00081218       0.00097999
Br       3.09453742       4.28471471       5.35989739      -0.00056838       0.00080826      -0.00097904
Br       5.07117847       1.48932027       8.78353916       0.00056732      -0.00080639       0.00098418
