9
Lattice="5.597614957769646 1.0004153659107125e-07 3.231784202773111 1.8658717742004904 5.277481823633346 3.2317841555044464 6.578059418284748e-08 -1.1378134765235837e-08 6.463568291610897" Properties=species:S:1:pos:R:3:forces:R:3 energy=-36.98051834106445 free_energy=-36.98051834106445 stress="-0.0001080961010302417 -7.568234394739193e-08 1.835541674211072e-08 -7.568234394739193e-08 -0.00010811007086886093 5.145938342110412e-09 1.835541674211072e-08 5.145938342110412e-09 -0.00010817082511493936" pbc="T T T"
Mn       1.86587192       1.31937083       3.23178413       0.00000399       0.00000404      -0.00000083
Mn       5.59761508       3.95811214       9.69535145      -0.00000017       0.00000541      -0.00000007
B        0.00000037      -0.00000118       0.00000034       0.00000077      -0.00001057      -0.00000036
Cl       1.67931061       1.18745164       6.46356871       0.00513843       0.00363655      -0.00000152
Cl       5.78417736       4.09003070       6.46356817      -0.00514828      -0.00363962       0.00000400
Cl       4.75795945       1.18745137       4.68610890      -0.00256972       0.00363287       0.00445519
Cl       2.70552634       4.09003066       8.24102850       0.00257485      -0.00363486      -0.00445803
Cl       2.70552665       4.09003054       4.68610830       0.00256942      -0.00363302       0.00445741
Cl       4.75795940       1.18745099       8.24102815      -0.00256963       0.00363931      -0.00445564
