9
Lattice="4.442612009430939 5.9465123886683644e-08 2.56494315949432 1.4808706888612975 4.18853450555804 2.5649432236032372 2.6738543457403733e-08 9.742406155111366e-08 5.129886272676101" Properties=species:S:1:pos:R:3:forces:R:3 energy=-51.81602478027344 free_energy=-51.81602478027344 stress="5.078243702882901e-05 -1.573609154092992e-07 4.6323709312900974e-08 -1.573609154092992e-07 5.019253512728028e-05 2.348246219696648e-08 4.6323709312900974e-08 2.348246219696648e-08 5.045980287832208e-05" pbc="T T T"
Mn       1.48087125       1.04713368       2.56494320       0.00000416      -0.00000144      -0.00000004
Mn       4.44261166       3.14140144       7.69482930      -0.00000330       0.00000509      -0.00000036
B       -0.00000009      -0.00000037      -0.00000028      -0.00000272       0.00000203       0.00000620
F        1.31057943       0.92671865       5.12988640       0.00039191       0.00028642      -0.00000333
F        4.61290347       3.26181604       5.12988667      -0.00039700      -0.00028942       0.00000037
F        3.78732220       0.92671887       3.69993759      -0.00019438       0.00028411       0.00034571
F        2.13616023       3.26181599       6.55983530       0.00019892      -0.00028608      -0.00034839
F        2.13616046       3.26181569       3.69993772       0.00019552      -0.00028593       0.00034658
F        3.78732240       0.92671862       6.55983494      -0.00019342       0.00028550      -0.00034680
