9
Lattice="6.432066771389174 -2.2864725701174356e-07 3.713556066847587 2.144021895386112 6.0642112405406685 3.7135563200264996 -1.0281665989825682e-09 3.0935254427803466e-07 7.42711213547603" Properties=species:S:1:pos:R:3:forces:R:3 energy=-29.179231643676758 free_energy=-29.179231643676758 stress="-7.75932494434528e-05 1.854423103964109e-08 7.438750948551842e-09 1.854423103964109e-08 -7.763010216876864e-05 -2.3941563398466315e-08 7.438750948551842e-09 -2.3941563398466315e-08 -7.761862070765346e-05" pbc="T T T"
Mn       2.14402145       1.51605239       3.71355759      -0.00000215      -0.00000333       0.00000801
Mn       6.43206577       4.54815986      11.14066809      -0.00000372       0.00000735      -0.00000273
B        0.00000001       0.00000003       0.00000156      -0.00000169      -0.00000011       0.00000166
I        2.03945903       1.44211499       7.42711131       0.00193883       0.00136548      -0.00000217
I        6.53662963       4.62209607       7.42711243      -0.00193494      -0.00136889       0.00000026
I        5.41233690       1.44211490       5.47977953      -0.00096830       0.00136819       0.00167844
I        3.16375237       4.62209544       9.37444381       0.00097034      -0.00137004      -0.00167856
I        3.16375191       4.62209607       5.47977988       0.00096858      -0.00136825       0.00167528
I        5.41233758       1.44211552       9.37444384      -0.00096694       0.00136955      -0.00168015
