9
Lattice="5.145848454314567 -6.962033192217793e-08 2.9709569709402435 1.715282720932118 4.851552533192477 2.9709570255588362 -1.5275738336415787e-07 -4.112194117742182e-08 5.941914206464012" Properties=species:S:1:pos:R:3:forces:R:3 energy=-47.22332763671875 free_energy=-47.22332763671875 stress="2.3973111495934063e-08 7.841972404776243e-09 2.5157627092653456e-08 7.841972404776243e-09 1.525130066681868e-08 6.327547374951337e-09 2.5157627092653456e-08 6.327547374951337e-09 1.705182306466213e-08" pbc="T T T"
Mn       1.71528278       1.21288770       2.97095736       0.00000042      -0.00000208       0.00000008
Mn       5.14584845       3.63866446       8.91287061       0.00000049      -0.00000053      -0.00000291
Bi       0.00000023      -0.00000048       0.00000015      -0.00000386       0.00000543      -0.00000029
F        1.79007782       1.26577600       5.94191448      -0.00000936      -0.00000784       0.00000065
F        5.07105273       3.58577643       5.94191435       0.00001043       0.00000879       0.00000180
F        4.25080930       1.26577605       4.52120955       0.00000447      -0.00000978      -0.00000980
F        2.61032153       3.58577665       7.36261775      -0.00000393       0.00000706       0.00000697
F        2.61032141       3.58577624       4.52121022      -0.00000539       0.00000653      -0.00000674
F        4.25080977       1.26577650       7.36261827       0.00000679      -0.00000757       0.00001034
