9
Lattice="5.951312270546267 7.115064406911702e-08 3.4359915025917935 1.983770840791116 5.610950802713863 3.435991473387888 1.3263601044036484e-08 -2.6388611122101762e-08 6.871982982210451" Properties=species:S:1:pos:R:3:forces:R:3 energy=-33.018531799316406 free_energy=-33.018531799316406 stress="0.0002094312512781471 3.822370331363345e-08 -2.0403927436518643e-09 3.822370331363345e-08 0.0002096372190862894 -1.537222793501769e-08 -2.0403927436518643e-09 -1.537222793501769e-08 0.00020947979646734893" pbc="T T T"
Mn       1.98377044       1.40274022       3.43599056      -0.00000180       0.00001729      -0.00000661
Mn       5.95131464       4.20821229      10.30797285       0.00001419      -0.00000665      -0.00000989
B        0.00000173      -0.00000011       0.00000001       0.00001333       0.00000165       0.00000075
Br       1.84413708       1.30400268       6.87198348      -0.00531763      -0.00376007       0.00000253
Br       6.09094525       4.30694750       6.87198354       0.00530750       0.00375299       0.00000458
Br       5.02924358       1.30400219       5.03306168       0.00265490      -0.00375772      -0.00459662
Br       2.90583843       4.30694763       8.71090520      -0.00266054       0.00375395       0.00460359
Br       2.90583815       4.30694820       5.03306140      -0.00266296       0.00375569      -0.00459900
Br       5.02924329       1.30400269       8.71090498       0.00265288      -0.00375685       0.00460094
