9
Lattice="5.909594552606552 5.4689248322691615e-08 3.4119062174169366 1.969864924359933 5.5716194339109935 3.4119061794338355 9.996871924146211e-08 2.4168963349238736e-08 6.823812261682953" Properties=species:S:1:pos:R:3:forces:R:3 energy=-35.45575714111328 free_energy=-35.45575714111328 stress="0.00011206737690372393 -2.2939904198437944e-08 1.188079323810598e-08 -2.2939904198437944e-08 0.00011208605428691953 -1.6756064979972507e-08 1.188079323810598e-08 -1.6756064979972507e-08 0.00011209260992472991" pbc="T T T"
Mn       1.96986547       1.39290426       3.41190596       0.00000191      -0.00000445       0.00000011
Mn       5.90959420       4.17871451      10.23571809      -0.00000259      -0.00000214      -0.00000604
Bi      -0.00000019       0.00000010      -0.00000019       0.00000265       0.00000067      -0.00000544
Cl       2.08653448       1.47540279       6.82381270      -0.00042451      -0.00030117       0.00000114
Cl       5.79292497       4.09621729       6.82381276       0.00042131       0.00030220       0.00000384
Cl       4.86632749       1.47540274       5.21889786       0.00021053      -0.00029832      -0.00036833
Cl       3.01313227       4.09621673       8.42872645      -0.00021298       0.00030456       0.00037075
Cl       3.01313215       4.09621650       5.21889840      -0.00021182       0.00030063      -0.00036819
Cl       4.86632747       1.47540315       8.42872660       0.00021555      -0.00030186       0.00037209
