9
Lattice="5.147154799195106 -2.5249557129770257e-08 2.971711178662923 1.7157182038011662 4.852783768766841 2.971711245852064 -8.48856882941224e-08 2.2266352034463066e-08 5.943422504352161" Properties=species:S:1:pos:R:3:forces:R:3 energy=-47.22331237792969 free_energy=-47.22331237792969 stress="0.0003274574701208621 2.113989516772108e-08 5.836583993890088e-10 2.113989516772108e-08 0.00032750400714576244 -3.1972446912220676e-09 5.836583993890088e-10 -3.1972446912220676e-09 0.00032747621298767626" pbc="T T T"
Mn       1.71571799       1.21319523       2.97171105      -0.00000110      -0.00000229       0.00000104
Mn       5.14715467       3.63958822       8.91513369      -0.00000073       0.00000150      -0.00000044
Bi      -0.00000002       0.00000018       0.00000028      -0.00000010      -0.00000368      -0.00000123
F        1.79033956       1.26596064       5.94342253      -0.00358909      -0.00253877       0.00000075
F        5.07253359       3.58682283       5.94342208       0.00359094       0.00254083      -0.00000044
F        4.25198499       1.26596107       4.52219050       0.00179398      -0.00253719      -0.00310686
F        2.61088797       3.58682336       7.36465435      -0.00179338       0.00253826       0.00310752
F        2.61088767       3.58682276       4.52219077      -0.00179514       0.00253934      -0.00310817
F        4.25198536       1.26596076       7.36465429       0.00179496      -0.00253808       0.00310794
