9
Lattice="6.265017661527948 -1.2140566650382474e-08 3.617109637865301 2.0883392444597213 5.906715193679219 3.6171095765565706 8.820281770397784e-08 -1.2718740991200343e-08 7.234219122958792" Properties=species:S:1:pos:R:3:forces:R:3 energy=-31.962833404541016 free_energy=-31.962833404541016 stress="5.617051283479668e-05 -2.39210762309483e-09 3.758620081839581e-09 -2.39210762309483e-09 5.616114867734723e-05 -1.2154054651603019e-08 3.758620081839581e-09 -1.2154054651603019e-08 5.61535416636616e-05" pbc="T T T"
Mn       2.08833858       1.47667890       3.61710979      -0.00000375       0.00000162       0.00000155
Mn       6.26501764       4.43003676      10.85133020      -0.00000021       0.00000064       0.00000678
Bi       0.00000006       0.00000011      -0.00000011       0.00000049      -0.00000189       0.00000034
Br       2.24001616       1.58393002       7.23421901      -0.00060165      -0.00042648      -0.00000067
Br       6.11334110       4.32278453       7.23421866       0.00060273       0.00042547      -0.00000223
Br       5.14500998       1.58393065       5.55702018       0.00030234      -0.00042483      -0.00052150
Br       3.20834688       4.32278502       8.91141774      -0.00030134       0.00042535       0.00051978
Br       3.20834767       4.32278464       5.55702021      -0.00030019       0.00042597      -0.00052299
Br       5.14500991       1.58393008       8.91141765       0.00030163      -0.00042581       0.00051905
