9
Lattice="6.903880391429428 2.8935404812070634e-08 3.985957225362223 2.3012934955820814 6.509040912736832 3.9859572175823916 1.3637812671351907e-08 1.1507991171671501e-10 7.971914427103078" Properties=species:S:1:pos:R:3:forces:R:3 energy=-28.443641662597656 free_energy=-28.443641662597656 stress="8.542120485799387e-05 1.2505818602903673e-08 8.7375191526462e-09 1.2505818602903673e-08 8.541404531570151e-05 -2.0462232797058277e-08 8.7375191526462e-09 -2.0462232797058277e-08 8.539828559150919e-05" pbc="T T T"
Mn       2.30129390       1.62726062       3.98595690       0.00000092       0.00000071      -0.00000114
Mn       6.90388103       4.88178031      11.95787237       0.00000104      -0.00000182       0.00000204
Bi       0.00000016       0.00000025       0.00000019      -0.00000248      -0.00000345      -0.00000046
I        2.46321413       1.74175587       7.97191455      -0.00112122      -0.00079153       0.00000034
I        6.74195924       4.76728504       7.97191412       0.00112361       0.00079472      -0.00000073
I        5.67227332       1.74175559       6.11916319       0.00055997      -0.00079124      -0.00097059
I        3.53290024       4.76728506       9.82466520      -0.00056178       0.00079267       0.00097091
I        3.53290057       4.76728553       6.11916346      -0.00056072       0.00079305      -0.00097150
I        5.67227303       1.74175545       9.82466548       0.00056062      -0.00079311       0.00097109
