9
Lattice="5.909445090199182 -7.187008251709986e-08 3.411819676808539 1.9698149327862264 5.571478226196522 3.411819727939365 3.795298761924405e-08 8.945905620517854e-08 6.823639287880568" Properties=species:S:1:pos:R:3:forces:R:3 energy=-35.45576095581055 free_energy=-35.45576095581055 stress="8.954405348049477e-05 -9.028474495798022e-11 1.892123790980804e-09 -9.028474495798022e-11 8.955988596426323e-05 1.362726820275384e-08 1.892123790980804e-09 1.362726820275384e-08 8.956016245065257e-05" pbc="T T T"
Mn       1.96981356       1.39286833       3.41181928      -0.00000676      -0.00000752      -0.00000220
Mn       5.90944438       4.17860875      10.23545839      -0.00000336       0.00000063      -0.00000409
Bi      -0.00000013      -0.00000009      -0.00000009       0.00000114       0.00000161       0.00000066
Cl       2.08650454       1.47538174       6.82363950      -0.00043331      -0.00030696      -0.00000001
Cl       5.79275624       4.09609678       6.82363987       0.00043072       0.00030461       0.00000333
Cl       4.86619329       1.47538146       5.21878558       0.00021973      -0.00030704      -0.00037310
Cl       3.01306759       4.09609720       8.42849317      -0.00021360       0.00030912       0.00037488
Cl       3.01306766       4.09609733       5.21878579      -0.00021281       0.00031087      -0.00037264
Cl       4.86619310       1.47538147       8.42849330       0.00021832      -0.00030517       0.00037307
