9
Lattice="6.904131422932493 -9.071887556277438e-08 3.986102303278468 2.3013770799319855 6.509277646869798 3.986102260869058 -2.859211282172869e-08 -7.215833093384224e-08 7.9722046560799145" Properties=species:S:1:pos:R:3:forces:R:3 energy=-28.44363784790039 free_energy=-28.44363784790039 stress="0.0001044709570123814 -2.4804522880117474e-08 1.9340267165546265e-09 -2.4804522880117474e-08 0.00010450269473949447 -2.831800571811982e-09 1.9340267165546265e-09 -2.831800571811982e-09 0.00010449966794112697" pbc="T T T"
Mn       2.30137689       1.62731843       3.98610246      -0.00000111      -0.00000347      -0.00000091
Mn       6.90413132       4.88195838      11.95830704      -0.00000002       0.00000123       0.00000233
Bi      -0.00000032       0.00000013       0.00000051       0.00000331      -0.00000040      -0.00000603
I        2.46330374       1.74181856       7.97220475      -0.00135440      -0.00095793      -0.00000081
I        6.74220500       4.76745914       7.97220436       0.00135256       0.00095776      -0.00000041
I        5.67247962       1.74181882       6.11938585       0.00067709      -0.00095802      -0.00117318
I        3.53302903       4.76745883       9.82502298      -0.00067900       0.00096194       0.00117541
I        3.53302919       4.76745884       6.11938618      -0.00067798       0.00096028      -0.00117326
I        5.67247938       1.74181885       9.82502276       0.00067953      -0.00096142       0.00117687
