9
Lattice="5.881024551402442 -7.597019337476038e-08 3.395410907983791 1.9603414218489454 5.544682770975753 3.395410948963773 -1.942212952197422e-08 3.6456520750833284e-08 6.790821849607644" Properties=species:S:1:pos:R:3:forces:R:3 energy=-34.575748443603516 free_energy=-34.575748443603516 stress="-0.00013511186989489943 1.641171820665477e-08 -7.281697467220738e-09 1.641171820665477e-08 -0.00013511796714738011 1.816755101913259e-08 -7.281697467220738e-09 1.816755101913259e-08 -0.0001350927777821198" pbc="T T T"
Mn       1.96034020       1.38617123       3.39541141      -0.00001293       0.00000565       0.00000428
Mn       5.88102500       4.15851139      10.18623132       0.00000589      -0.00000760      -0.00001138
Co      -0.00000004       0.00000006      -0.00000028       0.00000229      -0.00000182      -0.00000154
Br       1.98075524       1.40060592       6.79082176      -0.00180957      -0.00127719      -0.00000160
Br       5.86061109       4.14407694       6.79082262       0.00181034       0.00127521       0.00000265
Br       4.89064760       1.40060483       5.11079547       0.00090566      -0.00127745      -0.00156164
Br       2.95071897       4.14407749       8.47084849      -0.00090560       0.00128137       0.00156764
Br       2.95071839       4.14407738       5.11079504      -0.00090344       0.00127580      -0.00156442
Br       4.89064736       1.40060564       8.47084899       0.00090737      -0.00127394       0.00156584
