9
Lattice="6.010102289474428 -8.93801632712764e-09 3.4699343381980943 2.0033674271656863 5.666378877560434 3.469934328208082 7.59120290738565e-09 -6.8674290970794145e-09 6.939868663247854" Properties=species:S:1:pos:R:3:forces:R:3 energy=-39.22785186767578 free_energy=-39.22785186767578 stress="2.6644182071322575e-05 -3.2614131839636684e-08 5.21160892219541e-09 -3.2614131839636684e-08 2.6677409550757147e-05 -5.520006229886576e-09 5.21160892219541e-09 -5.520006229886576e-09 2.6688694561016746e-05" pbc="T T T"
Mn       2.00336856       1.41659375       3.46993546       0.00000668      -0.00000545       0.00000614
Mn       6.01010142       4.24978280      10.40980346      -0.00000644      -0.00000803       0.00000349
Cr       0.00000012       0.00000017      -0.00000036      -0.00000217       0.00000194       0.00000782
Br       2.00325319       1.41651405       6.93986823      -0.00428031      -0.00302499      -0.00000216
Br       6.01021614       4.24986549       6.93986838       0.00427844       0.00303116      -0.00000175
Br       5.00847515       1.41651496       5.20480238       0.00214195      -0.00302851      -0.00371635
Br       3.00499417       4.24986503       8.67493431      -0.00213870       0.00302881       0.00370621
Br       3.00499456       4.24986452       5.20480275      -0.00214115       0.00303108      -0.00371365
Br       5.00847562       1.41651466       8.67493472       0.00214162      -0.00302610       0.00371032
