9
Lattice="5.535693736910029 6.642606727425727e-08 3.1960343668498905 1.8452313498837836 5.219102223529144 3.1960342947617817 2.1185066501155952e-08 -7.330944633816794e-08 6.392068697006164" Properties=species:S:1:pos:R:3:forces:R:3 energy=-38.29862594604492 free_energy=-38.29862594604492 stress="6.263770046643913e-05 6.675768382535807e-09 1.2141053495895449e-08 6.675768382535807e-09 6.264329567784443e-05 -7.967993376212235e-09 1.2141053495895449e-08 -7.967993376212235e-09 6.263524119276553e-05" pbc="T T T"
Mn       1.84523174       1.30477536       3.19603423       0.00000253      -0.00000180       0.00000053
Mn       5.53569315       3.91432614       9.58810236      -0.00000420      -0.00000387      -0.00000499
Co      -0.00000056       0.00000025      -0.00000046       0.00000768      -0.00000556       0.00000711
Cl       1.85399857       1.31097520       6.39206880       0.00156121       0.00110291       0.00000110
Cl       5.52692667       3.90812742       6.39206897      -0.00156440      -0.00110419       0.00000263
Cl       4.60869464       1.31097522       4.80164403      -0.00078321       0.00110674       0.00135450
Cl       2.77223060       3.90812756       7.98249323       0.00078532      -0.00110677      -0.00135095
Cl       2.77223081       3.90812695       4.80164464       0.00077837      -0.00109939       0.00134717
Cl       4.60869483       1.31097482       7.98249358      -0.00078336       0.00111169      -0.00135717
