9
Lattice="6.565734538563718 -8.244257965982812e-08 3.790728540501103 2.188578130931838 6.190233730330423 3.7907284900322953 3.3886611956364456e-08 -3.785003453588949e-08 7.58145702230886" Properties=species:S:1:pos:R:3:forces:R:3 energy=-35.070621490478516 free_energy=-35.070621490478516 stress="-2.6472700483282097e-05 -4.126740726917433e-09 1.1149674072896687e-08 -4.126740726917433e-09 -2.6467087081982754e-05 -1.6683330272826424e-09 1.1149674072896687e-08 -1.6683330272826424e-09 -2.6453084501554258e-05" pbc="T T T"
Mn       2.18857749       1.54755779       3.79072874      -0.00000310      -0.00000265       0.00000026
Mn       6.56573556       4.64267516      11.37218645       0.00000425       0.00000145       0.00000529
Cr      -0.00000051      -0.00000008      -0.00000018       0.00000344       0.00000190      -0.00000209
I        2.17872348       1.54059031       7.58145702      -0.00252326      -0.00178381      -0.00000101
I        6.57558945       4.64964377       7.58145679       0.00251877       0.00178066      -0.00000170
I        5.47637311       1.54059004       5.67755812       0.00126088      -0.00178147      -0.00218243
I        3.27793944       4.64964394       9.48535534      -0.00126202       0.00178454       0.00218218
I        3.27793987       4.64964369       5.67755835      -0.00126072       0.00178351      -0.00218304
I        5.47637294       1.54058983       9.48535557       0.00126173      -0.00178410       0.00218252
