9
Lattice="6.4729304649006405 1.7558383781872348e-08 3.73714807186944 2.157643515642696 6.102737131914397 3.7371480531835592 7.494159782334897e-08 3.0106268432182757e-08 7.47429601393621" Properties=species:S:1:pos:R:3:forces:R:3 energy=-31.034570693969727 free_energy=-31.034570693969727 stress="-0.00010837228182936087 -8.228102088558842e-10 -8.212086122227902e-09 -8.228102088558842e-10 -0.00010835088323801756 3.230548939470168e-09 -8.212086122227902e-09 3.230548939470168e-09 -0.00010836534784175456" pbc="T T T"
Mn       2.15764296       1.52568459       3.73714786      -0.00000213       0.00000049      -0.00000210
Mn       6.47293070       4.57705262      11.21144312       0.00000146      -0.00000114      -0.00000571
Co       0.00000023      -0.00000022       0.00000010      -0.00000048      -0.00000008      -0.00000020
I        2.15407767       1.52316284       7.47429603      -0.00061597      -0.00043406       0.00000035
I        6.47649642       4.57957431       7.47429645       0.00061693       0.00043522       0.00000238
I        5.39589206       1.52316281       5.60263411       0.00030879      -0.00043563      -0.00053167
I        3.23468244       4.57957435       9.34595841      -0.00030802       0.00043519       0.00053373
I        3.23468192       4.57957446       5.60263413      -0.00030909       0.00043487      -0.00053022
I        5.39589184       1.52316296       9.34595837       0.00030855      -0.00043492       0.00053351
