9
Lattice="5.640820039719202 1.3942256654888472e-08 3.256728977096562 1.8802733577365245 5.318216147227213 3.2567289805284885 2.888746791132591e-08 2.4629753938573125e-08 6.513457904158583" Properties=species:S:1:pos:R:3:forces:R:3 energy=-34.195579528808594 free_energy=-34.195579528808594 stress="8.153667295118794e-05 2.0962871438712227e-09 1.027044582713188e-08 2.0962871438712227e-09 8.154506213031709e-05 -1.1461598781181692e-08 1.027044582713188e-08 -1.1461598781181692e-08 8.153643284458667e-05" pbc="T T T"
Mn       1.88027445       1.32955369       3.25672906       0.00000611      -0.00000087       0.00000160
Mn       5.64081978       3.98866234       9.77018768      -0.00000230       0.00000095       0.00000327
C        0.00000025       0.00000029       0.00000006       0.00000067       0.00000023      -0.00000033
Cl       1.89353941       1.33893422       6.51345795       0.00308050       0.00217643      -0.00000095
Cl       5.62755374       3.97928199       6.51345765      -0.00308445      -0.00217845      -0.00000107
Cl       4.69405024       1.33893457       4.89658174      -0.00154199       0.00218067       0.00266814
Cl       2.82704277       3.97928161       8.13033365       0.00154288      -0.00218209      -0.00267132
Cl       2.82704298       3.97928175       4.89658195       0.00154174      -0.00217780       0.00266999
Cl       4.69405010       1.33893430       8.13033373      -0.00154323       0.00218100      -0.00266950
