9
Lattice="6.461573792077982 5.4182808289971566e-08 3.730591338727338 2.153857965742802 6.092030228862117 3.73059136649889 -2.657160469438041e-08 1.5224093600811356e-08 7.461182723478063" Properties=species:S:1:pos:R:3:forces:R:3 energy=-28.97385025024414 free_energy=-28.97385025024414 stress="-6.279513036133721e-05 1.5741381531597654e-09 -1.5248944329471215e-09 1.5741381531597654e-09 -6.279238004935905e-05 -3.002295523302223e-09 -1.5248944329471215e-09 -3.002295523302223e-09 -6.279173248913139e-05" pbc="T T T"
Mn       2.15385849       1.52300814       3.73059096       0.00000192       0.00000287      -0.00000180
Mn       6.46157324       4.56902296      11.19177433      -0.00000274       0.00000193       0.00000190
C        0.00000007       0.00000005       0.00000014       0.00000039      -0.00000032      -0.00000036
I        2.16798665       1.53299779       7.46118270       0.00122508       0.00086449       0.00000044
I        6.44744539       4.55903205       7.46118254      -0.00122404      -0.00086588      -0.00000083
I        5.37758044       1.53299815       5.60812280      -0.00061254       0.00086577       0.00106010
I        3.23785124       4.55903198       9.31424274       0.00061236      -0.00086674      -0.00105852
I        3.23785134       4.55903212       5.60812272       0.00061296      -0.00086640       0.00105834
I        5.37758011       1.53299797       9.31424273      -0.00061345       0.00086439      -0.00105909
