9
Lattice="5.960718055495339 6.226392486897132e-08 3.4414223024897015 1.9869059961263724 5.619819223764591 3.4414224429156826 -1.7356214967680681e-07 4.9259181598647265e-08 6.882844905597675" Properties=species:S:1:pos:R:3:forces:R:3 energy=-31.457355499267578 free_energy=-31.457355499267578 stress="-9.30519963731058e-05 -2.186447023433402e-09 3.2511142222801936e-08 -2.186447023433402e-09 -9.30422029341571e-05 2.43289233203825e-09 3.2511142222801936e-08 2.43289233203825e-09 -9.303914703195915e-05" pbc="T T T"
Mn       1.98690676       1.40495514       3.44142120       0.00000675       0.00000124      -0.00000794
Mn       5.96071741       4.21486493      10.32426480      -0.00000527       0.00000045      -0.00002060
C        0.00000016       0.00000023       0.00000019      -0.00000082      -0.00000112       0.00000170
Br       2.01094215       1.42195126       6.88284551       0.00728789       0.00515276       0.00000320
Br       5.93668131       4.19786806       6.88284598      -0.00728595      -0.00515255       0.00000699
Br       4.95524608       1.42195042       5.18294976      -0.00364774       0.00515138       0.00631508
Br       2.99237788       4.19786704       8.58274048       0.00364661      -0.00515515      -0.00630346
Br       2.99237743       4.19786852       5.18295044       0.00364195      -0.00514981       0.00631288
Br       4.95524633       1.42195175       8.58274028      -0.00364332       0.00515273      -0.00630778
