9
Lattice="4.7349670354521045 1.6788882771260078e-07 2.7337346020903204 1.5783224386058152 4.464170253224362 2.733734714382602 -3.536704117684499e-08 1.1252113002934886e-07 5.4674692654381465" Properties=species:S:1:pos:R:3:forces:R:3 energy=-54.18629455566406 free_energy=-54.18629455566406 stress="0.00011883638944709674 -2.746426197575147e-08 2.2775493491167254e-08 -2.746426197575147e-08 0.00011885404819622636 -4.152987642669359e-08 2.2775493491167254e-08 -4.152987642669359e-08 0.00011884447303600609" pbc="T T T"
Mn       1.57832207       1.11604268       2.73373417      -0.00000174       0.00000194      -0.00000179
Mn       4.73496738       3.34812792       8.20120454       0.00000148      -0.00000160       0.00000100
Cr       0.00000001      -0.00000003       0.00000003      -0.00000245      -0.00000134      -0.00000350
F        1.55656349       1.10065681       5.46746910       0.00259659       0.00183567       0.00000154
F        4.75672590       3.36351362       5.46746882      -0.00259385      -0.00183448      -0.00000159
F        3.95668559       1.10065666       4.08175853      -0.00129744       0.00183582       0.00224960
F        2.35660388       3.36351337       6.85318018       0.00129677      -0.00183481      -0.00224683
F        2.35660387       3.36351367       4.08175850       0.00129676      -0.00183472       0.00224656
F        3.95668557       1.10065733       6.85318018      -0.00129606       0.00183344      -0.00224516
