9
Lattice="4.570527340385037 -5.156450731790559e-08 2.6387952394003755 1.5235090826146425 4.309134543357646 2.6387952086245012 4.4023534364824675e-08 -6.563253099021366e-09 5.277590402549732" Properties=species:S:1:pos:R:3:forces:R:3 energy=-50.074806213378906 free_energy=-50.074806213378906 stress="0.0003183433727826923 -5.282364057279665e-08 2.5619206311944254e-08 -5.282364057279665e-08 0.0003183911321684718 -3.3546331934530826e-08 2.5619206311944254e-08 -3.3546331934530826e-08 0.0003183702356182039" pbc="T T T"
Mn       1.52350932       1.07728396       2.63879545       0.00000170       0.00000326       0.00000045
Mn       4.57052740       3.23185054       7.91638575      -0.00000081      -0.00000064       0.00000090
Co       0.00000001       0.00000003      -0.00000016      -0.00000366       0.00000703       0.00000462
F        1.51607786       1.07202933       5.27759033      -0.00065115      -0.00045893      -0.00000041
F        4.57795872       3.23710529       5.27759027       0.00064737       0.00045718       0.00000071
F        3.81248818       1.07202921       3.95175722       0.00032751      -0.00046264      -0.00056678
F        2.28154813       3.23710520       6.60342389      -0.00032274       0.00045693       0.00055781
F        2.28154815       3.23710517       3.95175727      -0.00032748       0.00046310      -0.00056514
F        3.81248816       1.07202923       6.60342334       0.00032908      -0.00046515       0.00056791
