9
Lattice="5.606175297776593 4.049181440792874e-08 3.2367267442373695 1.8687251301214076 5.285552813427293 3.236726756904731 8.841274226774825e-09 2.176603156724074e-08 6.473453473161174" Properties=species:S:1:pos:R:3:forces:R:3 energy=-39.99120330810547 free_energy=-39.99120330810547 stress="-1.7651645976002328e-05 3.327505382344498e-08 1.4541300608073016e-08 3.327505382344498e-08 -1.7673824913799763e-05 5.709903216910561e-09 1.4541300608073016e-08 5.709903216910561e-09 -1.7699958334560506e-05" pbc="T T T"
Mn       1.86872391       1.32138931       3.23672702      -0.00001062       0.00000651       0.00000165
Mn       5.60617473       3.96416589       9.71018369      -0.00000590       0.00001239       0.00002898
Fe       0.00000080      -0.00000086      -0.00000000      -0.00001639       0.00000836      -0.00000668
Cl       1.86354402       1.31772328       6.47345364       0.00030610       0.00021188      -0.00000070
Cl       5.61135677       3.96782762       6.47345228      -0.00028881      -0.00021160      -0.00001492
Cl       4.67440369       1.31772424       4.85060263      -0.00014646       0.00021285       0.00025731
Cl       2.80049667       3.96782923       8.09630406       0.00014812      -0.00021867      -0.00026903
Cl       2.80049730       3.96782890       4.85060171       0.00016083      -0.00022224       0.00026378
Cl       4.67440375       1.31772385       8.09630289      -0.00014685       0.00020044      -0.00026044
