9
Lattice="5.962566441382926 2.3326321580025775e-07 3.442489457664684 1.9875223710068188 5.621561429054777 3.442489450811923 2.1084204148596577e-07 1.406948869784667e-07 6.884978550140303" Properties=species:S:1:pos:R:3:forces:R:3 energy=-36.455440521240234 free_energy=-36.455440521240234 stress="0.00023786576639395207 5.256287849420005e-08 -3.5179397173124016e-08 5.256287849420005e-08 0.0002379044599365443 1.9499909242881586e-08 -3.5179397173124016e-08 1.9499909242881586e-08 0.0002378027274971828" pbc="T T T"
Mn       1.98752218       1.40539083       3.44248997      -0.00000001       0.00000397       0.00000074
Mn       5.96256771       4.21616829      10.32746520       0.00000649      -0.00001933      -0.00001853
Fe      -0.00000025       0.00000050       0.00000070       0.00000973      -0.00000310      -0.00001234
Br       1.88873589       1.33553962       6.88497869      -0.00657989      -0.00464377      -0.00000052
Br       6.06135343       4.28602322       6.88497948       0.00656956       0.00464619       0.00000649
Br       5.01819865       1.33553782       5.07818238       0.00328045      -0.00463957      -0.00568241
Br       2.93189047       4.28602365       8.69177513      -0.00328552       0.00465116       0.00569442
Br       2.93188921       4.28602407       5.07818223      -0.00328548       0.00464130      -0.00568062
Br       5.01819886       1.33553922       8.69177600       0.00328471      -0.00463670       0.00569260
