9
Lattice="6.505599566406737 3.872938144528426e-08 3.756009767297249 2.168533216664395 6.133538277930298 3.7560097822834733 1.6680414663483933e-07 1.3630254508335266e-07 7.512019245681201" Properties=species:S:1:pos:R:3:forces:R:3 energy=-32.632476806640625 free_energy=-32.632476806640625 stress="-2.1160405594855547e-05 -1.2151457617903816e-08 -2.567821688614913e-08 -1.2151457617903816e-08 -2.118423071806319e-05 -1.809826777332546e-08 -2.567821688614913e-08 -1.809826777332546e-08 -2.1123099941178225e-05" pbc="T T T"
Mn       2.16853392       1.53338363       3.75601167       0.00000252      -0.00000398       0.00000785
Mn       6.50560067       4.60015420      11.26802672       0.00000370       0.00000197      -0.00001066
Fe      -0.00000022       0.00000021       0.00000172      -0.00000180      -0.00000059      -0.00002876
I        2.01032136       1.42151169       7.51201885       0.00192613       0.00136167      -0.00000174
I        6.66381153       4.71202697       7.51202033      -0.00192754      -0.00136080       0.00000384
I        5.50043885       1.42151131       5.49699906      -0.00096724       0.00136365       0.00167325
I        3.17369425       4.71202652       9.52703864       0.00095879      -0.00135254      -0.00165897
I        3.17369297       4.71202655       5.49699904       0.00096310      -0.00136583       0.00167307
I        5.50043850       1.42151281       9.52703918      -0.00095783       0.00135637      -0.00165807
