9
Lattice="4.671583432694166 6.192403951848991e-08 2.697139945694319 1.5571944969010623 4.404411229887313 2.697140013324321 -6.783398596930184e-09 7.803286993887707e-08 5.394279903137829" Properties=species:S:1:pos:R:3:forces:R:3 energy=-51.102874755859375 free_energy=-51.102874755859375 stress="0.0005304968799464405 2.3815568184204494e-08 1.5398061492533088e-08 2.3815568184204494e-08 0.0005304727819748223 -6.111015249388174e-09 1.5398061492533088e-08 -6.111015249388174e-09 0.0005304996157065034" pbc="T T T"
Mn       1.55719523       1.10110303       2.69714010       0.00000465       0.00000041       0.00000028
Mn       4.67158387       3.30330889       8.09142031       0.00000068       0.00000175       0.00000143
Fe       0.00000008      -0.00000007      -0.00000023      -0.00000045      -0.00000146       0.00000120
F        1.56969640       1.10994315       5.39427979      -0.00274074      -0.00193852      -0.00000050
F        4.65908120       3.29446841       5.39427975       0.00274245       0.00193896       0.00000034
F        3.88673487       1.10994298       4.05653660       0.00136838      -0.00193763      -0.00237197
F        2.34204240       3.29446822       6.73202306      -0.00137088       0.00193612       0.00237300
F        2.34204271       3.29446821       4.05653695      -0.00137212       0.00193811      -0.00237494
F        3.88673485       1.10994267       6.73202312       0.00136803      -0.00193763       0.00237113
