9
Lattice="6.61547284965735 -4.658838703738236e-10 3.8194451125807127 2.205157647230158 6.237127647313219 3.8194450586845963 4.590597224835446e-08 -3.354857215615253e-08 7.638890145649884" Properties=species:S:1:pos:R:3:forces:R:3 energy=-28.312841415405273 free_energy=-28.312841415405273 stress="-1.4183538041834254e-05 2.1881110257027103e-09 -4.836989475620612e-09 2.1881110257027103e-09 -1.4186241060087923e-05 -2.483071748216048e-09 -4.836989475620612e-09 -2.483071748216048e-09 -1.4189151443133596e-05" pbc="T T T"
Mn       2.20515755       1.55928182       3.81944501       0.00000045       0.00000017      -0.00000024
Mn       6.61547295       4.67784619      11.45833512      -0.00000060       0.00000116      -0.00000098
Ga       0.00000019       0.00000004      -0.00000027      -0.00000085      -0.00000088      -0.00000003
I        2.25357377       1.59351697       7.63888990      -0.00255685      -0.00180862      -0.00000032
I        6.56705670       4.64361046       7.63889024       0.00255913       0.00180949       0.00000059
I        5.48868601       1.59351705       5.77109740       0.00127932      -0.00180937      -0.00221512
I        3.33194432       4.64361060       9.50668334      -0.00127914       0.00180737       0.00221600
I        3.33194444       4.64361040       5.77109724      -0.00127921       0.00180929      -0.00221506
I        5.48868624       1.59351693       9.50668330       0.00127789      -0.00180856       0.00221518
