9
Lattice="4.837275399469151 -1.639401094878373e-07 2.792802577787988 1.6124251066923092 4.560626849002742 2.7928023559119755 9.238875934740495e-08 -2.064127215762453e-07 5.585604995553977" Properties=species:S:1:pos:R:3:forces:R:3 energy=-49.59599685668945 free_energy=-49.59599685668945 stress="8.396360499318689e-05 -4.118302143751862e-08 -6.206408720288437e-09 -4.118302143751862e-08 8.403733227169141e-05 4.9723528405820616e-08 -6.206408720288437e-09 4.9723528405820616e-08 8.409543806919828e-05" pbc="T T T"
Mn       1.61242506       1.14015621       2.79280196      -0.00000080      -0.00000039      -0.00000154
Mn       4.83727571       3.42047012       8.37840766       0.00000022       0.00000083       0.00000058
Ge      -0.00000002      -0.00000015       0.00000007       0.00000366       0.00000768      -0.00000488
F        1.49536342       1.05738115       5.58560512       0.00404784       0.00286156       0.00000038
F        4.95433748       3.50324514       5.58560482      -0.00405389      -0.00286540      -0.00000009
F        4.08959375       1.05738177       4.08782532      -0.00202295       0.00286004       0.00350282
F        2.36010696       3.50324507       7.08338450       0.00202340      -0.00286067      -0.00350294
F        2.36010658       3.50324549       4.08782533       0.00202522      -0.00286308       0.00350776
F        4.08959363       1.05738116       7.08338465      -0.00202289       0.00285918      -0.00350207
