9
Lattice="6.0143545587371054 7.356601371300943e-08 3.4723892595009573 2.004784892967011 5.670387903957874 3.472389310257125 -2.1588347731939572e-08 4.68980837381636e-08 6.944778556394042" Properties=species:S:1:pos:R:3:forces:R:3 energy=-32.543888092041016 free_energy=-32.543888092041016 stress="-2.6721110771177337e-05 -1.3623774108850739e-08 1.9735348910643324e-09 -1.3623774108850739e-08 -2.6744208298623562e-05 2.3455903885860607e-09 1.9735348910643324e-09 2.3455903885860607e-09 -2.6744650313048624e-05" pbc="T T T"
Mn       2.00478551       1.41759737       3.47238896       0.00000280       0.00000066      -0.00000192
Mn       6.01435320       4.25279012      10.41716872      -0.00000750      -0.00000587       0.00000553
Ga      -0.00000016       0.00000019      -0.00000006       0.00000173      -0.00000208       0.00000122
Br       2.05092276       1.45022150       6.94477862      -0.00046670      -0.00033107       0.00000020
Br       5.96821648       4.22016675       6.94477815       0.00046857       0.00033239      -0.00000145
Br       4.98889356       1.45022204       5.24853997       0.00023411      -0.00032710      -0.00040637
Br       3.03024632       4.22016610       8.64101681      -0.00023323       0.00032894       0.00040731
Br       3.03024650       4.22016663       5.24854041      -0.00023261       0.00033177      -0.00040773
Br       4.98889356       1.45022141       8.64101693       0.00023277      -0.00032750       0.00040326
