9
Lattice="5.7582675288384255 2.6810633541518126e-08 3.3245372904419126 1.9194225167693288 5.428946648139959 3.324537321828033 6.603506305936035e-09 4.3109361340480926e-08 6.649074569446219" Properties=species:S:1:pos:R:3:forces:R:3 energy=-36.817378997802734 free_energy=-36.817378997802734 stress="0.00025953954900614917 2.922673125738129e-08 3.1579507009382723e-08 2.922673125738129e-08 0.00025962889776565135 4.787367302583334e-08 3.1579507009382723e-08 4.787367302583334e-08 0.00025959129561670125" pbc="T T T"
Mn       1.91942235       1.35723803       3.32453717      -0.00000001       0.00000942      -0.00000285
Mn       5.75826826       4.07171140       9.97361242       0.00000972       0.00000825       0.00000712
Ge       0.00000009      -0.00000002      -0.00000008      -0.00000170      -0.00000399       0.00000019
Cl       1.92085903       1.35825239       6.64907480      -0.00181086      -0.00128348       0.00000070
Cl       5.75683062       4.07069341       6.64907452       0.00181499       0.00128023      -0.00000196
Cl       4.79783789       1.35825225       4.98805023       0.00090344      -0.00128502      -0.00156817
Cl       2.87985193       4.07069371       8.31009869      -0.00091003       0.00128058       0.00157213
Cl       2.87985216       4.07069373       4.98805021      -0.00090815       0.00127945      -0.00157202
Cl       4.79783786       1.35825195       8.31009874       0.00090255      -0.00128539       0.00156493
