9
Lattice="6.615472947071574 2.6700271261307422e-08 3.8194451935410756 2.2051576708898133 6.237127854855454 3.819445199269572 1.179886267478695e-08 1.5358959754958298e-08 7.63889036664583" Properties=species:S:1:pos:R:3:forces:R:3 energy=-28.312843322753906 free_energy=-28.312843322753906 stress="-1.4174829630064778e-05 7.996361905959759e-10 2.2202467642173929e-10 7.996361905959759e-10 -1.4180739526636899e-05 2.2120555387417085e-10 2.2202467642173929e-10 2.2120555387417085e-10 -1.4158534213493112e-05" pbc="T T T"
Mn       2.20515746       1.55928185       3.81944476      -0.00000074      -0.00000043      -0.00000146
Mn       6.61547299       4.67784636      11.45833502       0.00000033       0.00000178      -0.00000249
Ga       0.00000007       0.00000009      -0.00000017      -0.00000013      -0.00000052       0.00000044
I        2.25357377       1.59351717       7.63889036      -0.00255798      -0.00180958       0.00000051
I        6.56705691       4.64361064       7.63889062       0.00255868       0.00180970       0.00000113
I        5.48868616       1.59351699       5.77109772       0.00127931      -0.00181059      -0.00221498
I        3.33194458       4.64361074       9.50668351      -0.00127866       0.00180929       0.00221625
I        3.33194445       4.64361048       5.77109757      -0.00127945       0.00181013      -0.00221616
I        5.48868613       1.59351728       9.50668362       0.00127864      -0.00180975       0.00221667
