9
Lattice="6.657724405962413 1.0671472256784956e-08 3.8438389575348935 2.219241470504993 6.276962698969371 3.8438389717555594 7.664582698798314e-09 2.283638980198123e-08 7.68767790179431" Properties=species:S:1:pos:R:3:forces:R:3 energy=-29.08806610107422 free_energy=-29.08806610107422 stress="-3.5800090699922293e-05 -4.1120365446012386e-10 2.435282420165663e-09 -4.1120365446012386e-10 -3.581275450414978e-05 -3.0023921127053654e-09 2.435282420165663e-09 -3.0023921127053654e-09 -3.581801865948364e-05" pbc="T T T"
Mn       2.21924104       1.56924103       3.84383927      -0.00000212       0.00000137       0.00000072
Mn       6.65772460       4.70772165      11.53151719       0.00000069      -0.00000191       0.00000057
Ge       0.00000009       0.00000000      -0.00000008       0.00000052       0.00000019      -0.00000007
I        2.31223508       1.63499728       7.68767789      -0.00651608      -0.00460609      -0.00000039
I        6.56473065       4.64196551       7.68767789       0.00651599       0.00460629       0.00000012
I        5.50160674       1.63499729       5.84629325       0.00325782      -0.00460666      -0.00564214
I        3.37535903       4.64196553       9.52906224      -0.00325717       0.00460655       0.00564200
I        3.37535920       4.64196550       5.84629335      -0.00325749       0.00460704      -0.00564241
I        5.50160708       1.63499715       9.52906232       0.00325783      -0.00460675       0.00564159
