9
Lattice="4.734718083431485 1.1267171216901668e-07 2.7335907184607904 1.5782394600705698 4.4639349138026425 2.7335907311066436 6.247071475410798e-08 5.966145382447807e-08 5.467181328719083" Properties=species:S:1:pos:R:3:forces:R:3 energy=-49.533729553222656 free_energy=-49.533729553222656 stress="0.00035253592068329453 3.971919326772877e-08 -2.984142355444419e-08 3.971919326772877e-08 0.00035248330095782876 2.67559929767458e-08 -2.984142355444419e-08 2.67559929767458e-08 0.0003524569037836045" pbc="T T T"
Mn       1.57823955       1.11598404       2.73359069       0.00000099       0.00000106      -0.00000002
Mn       4.73471873       3.34795147       8.20077214       0.00000155       0.00000072       0.00000039
Ga      -0.00000008      -0.00000008      -0.00000020       0.00000301      -0.00000354       0.00000443
F        1.53678180       1.08666925       5.46718106      -0.00054224      -0.00038125       0.00000024
F        4.77617564       3.37726567       5.46718163       0.00054356       0.00038173      -0.00000057
F        3.96632689       1.08666876       4.06448290       0.00026933      -0.00038282      -0.00046726
F        2.34663047       3.37726632       6.86987997      -0.00027156       0.00038138       0.00046733
F        2.34663046       3.37726630       4.06448271      -0.00027014       0.00038185      -0.00046652
F        3.96632699       1.08666863       6.86988028       0.00026549      -0.00037901       0.00046197
