9
Lattice="6.071174151680925 -1.5552427888525888e-08 3.5051941152832 2.023724698721841 5.723957716422601 3.505194121938026 9.304743455189924e-08 7.394492514520901e-08 7.010388069403452" Properties=species:S:1:pos:R:3:forces:R:3 energy=-32.90924072265625 free_energy=-32.90924072265625 stress="8.471809269394726e-05 -8.697842446281356e-09 -4.1636076808515554e-09 -8.697842446281356e-09 8.47133414936252e-05 1.7788642781013664e-09 -4.1636076808515554e-09 1.7788642781013664e-09 8.472158515360206e-05" pbc="T T T"
Mn       2.02372424       1.43098987       3.50519482      -0.00000153       0.00000056       0.00000568
Mn       6.07117502       4.29296688      10.51558242       0.00000504      -0.00000973       0.00000164
Ge      -0.00000017      -0.00000009      -0.00000073      -0.00000012       0.00000123       0.00000535
Br       2.06399987       1.45946867       7.01038773      -0.00168964      -0.00119068      -0.00000050
Br       6.03089900       4.26448951       7.01038804       0.00168559       0.00119288      -0.00000009
Br       5.03917381       1.45946942       5.29267034       0.00084579      -0.00119362      -0.00146504
Br       3.05572429       4.26448953       8.72810601      -0.00084298       0.00119196       0.00145764
Br       3.05572481       4.26448858       5.29267065      -0.00084768       0.00119510      -0.00146326
Br       5.03917491       1.45946876       8.72810596       0.00084547      -0.00118768       0.00145850
