9
Lattice="5.696057726870389 6.389511610496406e-08 3.2886205980357968 1.8986859741786581 5.370294775336489 3.288620589408441 -1.3457449388726991e-08 -2.0082133702182138e-08 6.577241219380544" Properties=species:S:1:pos:R:3:forces:R:3 energy=-36.44218063354492 free_energy=-36.44218063354492 stress="5.569149652728811e-05 -1.4618952270950558e-08 1.091935253327847e-08 -1.4618952270950558e-08 5.570521898334846e-05 8.37419467103473e-09 1.091935253327847e-08 8.37419467103473e-09 5.581774894380942e-05" pbc="T T T"
Mn       1.89868657       1.34257375       3.28862033       0.00000077      -0.00000254      -0.00000163
Mn       5.69605731       4.02772092       9.86586171       0.00000093       0.00000359      -0.00000045
Ga      -0.00000002      -0.00000009       0.00000044       0.00000146       0.00000137      -0.00000733
Cl       1.91670616       1.35531585       6.57724135      -0.00449610      -0.00317946      -0.00000105
Cl       5.67803756       4.01497917       6.57724144       0.00449309       0.00317785      -0.00000185
Cl       4.73770487       1.35531562       4.94853709       0.00224490      -0.00317621      -0.00389372
Cl       2.85703914       4.01497834       8.20594505      -0.00225078       0.00318196       0.00389974
Cl       2.85703902       4.01497938       4.94853715      -0.00224550       0.00317803      -0.00389422
Cl       4.73770414       1.35531633       8.20594505       0.00225115      -0.00318447       0.00390074
