9
Lattice="4.734718008145856 7.753171568332565e-08 2.733590685188171 1.5782393146668512 4.463934926418331 2.7335908488312035 1.659039904831084e-08 2.1215214790821452e-07 5.467181341640874" Properties=species:S:1:pos:R:3:forces:R:3 energy=-49.533729553222656 free_energy=-49.533729553222656 stress="0.00035253807436674833 1.9835663778167145e-08 -1.0863983490594364e-08 1.9835663778167145e-08 0.00035252029192633927 1.4124478475707747e-08 -1.0863983490594364e-08 1.4124478475707747e-08 0.00035247852792963386" pbc="T T T"
Mn       1.57823868       1.11598393       2.73359089      -0.00000036       0.00000050      -0.00000002
Mn       4.73471844       3.34795182       8.20077204      -0.00000055       0.00000076       0.00000033
Ga      -0.00000009      -0.00000012       0.00000003       0.00000374       0.00000170       0.00000334
F        1.53678194       1.08666894       5.46718126      -0.00054162      -0.00038300      -0.00000059
F        4.77617554       3.37726608       5.46718161       0.00053998       0.00037992      -0.00000014
F        3.96632710       1.08666881       4.06448291       0.00027108      -0.00038201      -0.00046559
F        2.34663044       3.37726640       6.86988012      -0.00027102       0.00038125       0.00046581
F        2.34663056       3.37726615       4.06448274      -0.00026988       0.00038162      -0.00046674
F        3.96632678       1.08666900       6.86988009       0.00026853      -0.00038080       0.00046360
