9
Lattice="6.014354220781694 3.239587376669371e-08 3.4723890053609914 2.004784761623144 5.670387489098101 3.4723890212621606 -4.552097345818845e-08 -1.2713327900265821e-08 6.944778089566601" Properties=species:S:1:pos:R:3:forces:R:3 energy=-32.54388427734375 free_energy=-32.54388427734375 stress="-2.6813555450644344e-05 3.6366651912089765e-09 -1.2269482319027247e-08 3.6366651912089765e-09 -2.6871693989960477e-05 -1.320002329663339e-08 -1.2269482319027247e-08 -1.320002329663339e-08 -2.684504033823032e-05" pbc="T T T"
Mn       2.00478532       1.41759721       3.47238863       0.00000275       0.00000268      -0.00000152
Mn       6.01435381       4.25278995      10.41716778      -0.00000230      -0.00000385       0.00000477
Ga       0.00000003       0.00000006      -0.00000003      -0.00000134      -0.00000048       0.00000045
Br       2.05092250       1.45022134       6.94477818      -0.00046633      -0.00033021      -0.00000012
Br       5.96821612       4.22016632       6.94477760       0.00046821       0.00033219      -0.00000184
Br       4.98889322       1.45022154       5.24853999       0.00023373      -0.00032970      -0.00040737
Br       3.03024567       4.22016585       8.64101604      -0.00023430       0.00032915       0.00040643
Br       3.03024608       4.22016628       5.24854011      -0.00023288       0.00032888      -0.00040551
Br       4.98889294       1.45022147       8.64101613       0.00023250      -0.00032862       0.00040479
