9
Lattice="5.696055159629902 2.2841047445816973e-08 3.2886190458411106 1.898685088873442 5.370292347270164 3.2886190213694166 -2.613342733559072e-08 -4.845069443805934e-08 6.577238136946631" Properties=species:S:1:pos:R:3:forces:R:3 energy=-36.44218063354492 free_energy=-36.44218063354492 stress="5.528819019673392e-05 -6.800652485594583e-09 -2.3227524792446275e-08 -6.800652485594583e-09 5.525739106815308e-05 1.4857624464070796e-08 -2.3227524792446275e-08 1.4857624464070796e-08 5.523037543753162e-05" pbc="T T T"
Mn       1.89868565       1.34257303       3.28861878       0.00000576       0.00000005      -0.00000137
Mn       5.69605508       4.02771977       9.86585694      -0.00000065       0.00000825      -0.00000170
Ga      -0.00000012       0.00000029       0.00000014       0.00000098      -0.00000230      -0.00000152
Cl       1.91670644       1.35531590       6.57723823      -0.00450918      -0.00319046       0.00000090
Cl       5.67803355       4.01497642       6.57723832       0.00450900       0.00318885       0.00000065
Cl       4.73770196       1.35531593       4.94853573       0.00225312      -0.00318980      -0.00390585
Cl       2.85703842       4.01497580       8.20594032      -0.00225735       0.00318977       0.00390877
Cl       2.85703835       4.01497591       4.94853610      -0.00225432       0.00318654      -0.00390643
Cl       4.73770151       1.35531625       8.20594025       0.00225267      -0.00319099       0.00390647
