9
Lattice="5.862937842421303 1.2143836950648004e-07 3.3849687517134406 1.9543126896392509 5.5276314400396895 3.3849688192536886 -2.5067869370734323e-07 -9.4537005523833e-08 6.769937937615097" Properties=species:S:1:pos:R:3:forces:R:3 energy=-46.38065719604492 free_energy=-46.38065719604492 stress="0.0004027093236800283 -1.0658181537337441e-07 -1.218589229523559e-08 -1.0658181537337441e-07 0.00040272000478580594 -2.922092257051645e-08 -1.218589229523559e-08 -2.922092257051645e-08 0.0004027689865324646" pbc="T T T"
Mn       1.95431310       1.38190814       3.38496916       0.00000619       0.00000015       0.00000082
Mn       5.86293683       4.14572407      10.15490782      -0.00000636       0.00000529       0.00000827
Hf      -0.00000017       0.00000015      -0.00000048       0.00000535      -0.00000191      -0.00000243
Cl       1.99968709       1.41399203       6.76993763      -0.00759491      -0.00537364      -0.00000073
Cl       5.81756357       4.11363972       6.76993716       0.00759292       0.00536734      -0.00000298
Cl       4.86309380       1.41399294       5.11674892       0.00380082      -0.00537446      -0.00658602
Cl       2.95415658       4.11363808       8.42312605      -0.00380437       0.00537825       0.00658864
Cl       2.95415701       4.11363830       5.11674918      -0.00380149       0.00537878      -0.00659055
Cl       4.86309328       1.41399248       8.42312643       0.00380191      -0.00537987       0.00658470
