9
Lattice="5.221835891749756 -5.154537130134627e-07 3.0148288175170683 1.740611690757892 4.923193580277087 3.0148284489094364 -2.5049012051770745e-08 -4.6916264304262837e-07 6.029657678420275" Properties=species:S:1:pos:R:3:forces:R:3 energy=-60.22340393066406 free_energy=-60.22340393066406 stress="6.585964001715183e-05 -4.3021884665872534e-11 3.255727065720748e-08 -4.3021884665872534e-11 6.578672036994249e-05 -4.7265270808338755e-08 3.255727065720748e-08 -4.7265270808338755e-08 6.589410622837022e-05" pbc="T T T"
Mn       1.74061192       1.23079884       3.01482889       0.00000047       0.00000081       0.00000032
Mn       5.22183558       3.69239424       9.04448598      -0.00000054       0.00000140      -0.00000009
Hf       0.00000008       0.00000000      -0.00000020      -0.00000352       0.00000389      -0.00000144
F        1.64573080       1.16370653       6.02965758       0.00173289       0.00122598       0.00000003
F        5.31671707       3.75948597       6.02965737      -0.00173289      -0.00122669      -0.00000025
F        4.39897063       1.16370627       4.44007345      -0.00086710       0.00122669       0.00150150
F        2.56347696       3.75948591       7.61924153       0.00086829      -0.00122899      -0.00150305
F        2.56347689       3.75948647       4.44007303       0.00086686      -0.00122678       0.00150073
F        4.39897058       1.16370592       7.61924189      -0.00086468       0.00122336      -0.00149757
