9
Lattice="6.262097331542304 2.2110894469203768e-08 3.6154234757763852 2.0873657842614213 5.903961832341694 3.615423499619239 -2.9210794586329358e-08 8.5462904822903e-09 7.230847002147357" Properties=species:S:1:pos:R:3:forces:R:3 energy=-42.134056091308594 free_energy=-42.134056091308594 stress="6.405320891644806e-05 1.373416136374317e-08 -1.2145169314692339e-08 1.373416136374317e-08 6.405462772818282e-05 2.449677083404822e-08 -1.2145169314692339e-08 2.449677083404822e-08 6.404182931873947e-05" pbc="T T T"
Mn       2.08736596       1.47599084       3.61542334      -0.00000025       0.00000230      -0.00000037
Mn       6.26209744       4.42797051      10.84627138       0.00000008      -0.00000388       0.00000606
Hf      -0.00000005      -0.00000003      -0.00000033      -0.00000353       0.00000104      -0.00000020
Br       2.11844450       1.49796693       7.23084703       0.00033671       0.00023934      -0.00000031
Br       6.23101855       4.40599510       7.23084683      -0.00033483      -0.00023665      -0.00000206
Br       5.20287502       1.49796699       5.45005017      -0.00016674       0.00023831       0.00028764
Br       3.14658790       4.40599540       9.01164363       0.00016823      -0.00023933      -0.00029205
Br       3.14658801       4.40599535       5.45005006       0.00017019      -0.00024022       0.00029318
Br       5.20287506       1.49796635       9.01164384      -0.00016983       0.00023891      -0.00029172
