9
Lattice="6.536938433686195 -1.3087377254494827e-08 3.774103202245221 2.178979486439473 6.163084634294012 3.7741031660748754 1.5574032802382275e-08 -3.328695273939631e-08 7.548206377515417" Properties=species:S:1:pos:R:3:forces:R:3 energy=-33.354000091552734 free_energy=-33.354000091552734 stress="-7.884480874054134e-05 -9.773505560417561e-09 4.45355619049792e-09 -9.773505560417561e-09 -7.882881618570536e-05 -3.3396208021230223e-09 4.45355619049792e-09 -3.3396208021230223e-09 -7.883180660428479e-05" pbc="T T T"
Mn       2.17897983       1.54077146       3.77410286       0.00000279       0.00000005      -0.00000094
Mn       6.53693828       4.62231365      11.32230937      -0.00000141       0.00000110       0.00000010
Ir      -0.00000008      -0.00000013      -0.00000012       0.00000167       0.00000095      -0.00000059
I        2.18057640       1.54190004       7.54820638      -0.00542511      -0.00383571       0.00000047
I        6.53534194       4.62118461       7.54820640       0.00542246       0.00383450      -0.00000018
I        5.44665019       1.54189998       5.66253771       0.00271186      -0.00383577      -0.00469826
I        3.26926752       4.62118430       9.43387540      -0.00271224       0.00383601       0.00469898
I        3.26926752       4.62118441       5.66253768      -0.00271237       0.00383567      -0.00469913
I        5.44665016       1.54190003       9.43387531       0.00271240      -0.00383678       0.00469949
