9
Lattice="6.0723062854799155 1.84642586464697e-08 3.5058476139931636 2.024102080652948 5.7250253561335915 3.5058476692720646 -6.06704098105641e-08 2.4802108438475735e-08 7.011695333070555" Properties=species:S:1:pos:R:3:forces:R:3 energy=-36.27417755126953 free_energy=-36.27417755126953 stress="9.387944737682119e-05 8.767694126277092e-09 -3.162377382182058e-08 8.767694126277092e-09 9.389228216605261e-05 4.7626880217421785e-08 -3.162377382182058e-08 4.7626880217421785e-08 9.388819307787344e-05" pbc="T T T"
Mn       2.02410187       1.43125675       3.50584765      -0.00000195       0.00000202       0.00000016
Mn       6.07230653       4.29376870      10.51754418       0.00000269      -0.00000106       0.00000562
Ir      -0.00000036      -0.00000060       0.00000037       0.00000666       0.00001488      -0.00000526
Br       2.01628043       1.42572584       7.01169524      -0.00470786      -0.00332735      -0.00000054
Br       6.08012827       4.29929957       7.01169492       0.00469789       0.00332046      -0.00000161
Br       5.06416622       1.42572580       5.25199772       0.00235198      -0.00332750      -0.00407547
Br       3.03224214       4.29929975       8.77139268      -0.00235269       0.00332560       0.00407158
Br       3.03224222       4.29930037       5.25199708      -0.00234756       0.00331961      -0.00406667
Br       5.06416589       1.42572543       8.77139260       0.00235082      -0.00332662       0.00407211
