9
Lattice="5.746855206846273 -7.063445490247017e-08 3.3179484077195602 1.9156184403542629 5.418186871166614 3.317948226431081 1.1244514532053133e-08 -2.1408109700298654e-07 6.635896795963028" Properties=species:S:1:pos:R:3:forces:R:3 energy=-39.47269821166992 free_energy=-39.47269821166992 stress="9.418644913239405e-05 3.2936147142947902e-09 -1.8767096321425925e-08 3.2936147142947902e-09 9.425317693967372e-05 -4.341265835705599e-08 -1.8767096321425925e-08 -4.341265835705599e-08 9.415769454790279e-05" pbc="T T T"
Mn       1.91561973       1.35454645       3.31794833       0.00000861      -0.00000362      -0.00000012
Mn       5.74685483       4.06363969       9.95384485      -0.00000445      -0.00000165      -0.00000125
Ir      -0.00000015       0.00000002      -0.00000027      -0.00000281       0.00000036       0.00000595
Cl       1.90670831       1.34824570       6.63589658      -0.00066043      -0.00046761       0.00000006
Cl       5.75576508       4.06994074       6.63589732       0.00066216       0.00047249       0.00000114
Cl       4.79350090       1.34824630       4.96920572       0.00033010      -0.00046676      -0.00057660
Cl       2.86897235       4.06994078       8.30258784      -0.00032932       0.00046420       0.00057071
Cl       2.86897255       4.06994033       4.96920574      -0.00033250       0.00046845      -0.00057647
Cl       4.79350101       1.34824629       8.30258761       0.00032872      -0.00046600       0.00057684
