9
Lattice="6.072816779119222 4.5159461023849926e-08 3.50614238161934 2.0242721603406553 5.725506860047319 3.506142627470955 -1.3473921140121494e-07 2.058305041439297e-07 7.012284996613833" Properties=species:S:1:pos:R:3:forces:R:3 energy=-36.27416229248047 free_energy=-36.27416229248047 stress="0.00020343509095255286 -4.4590350967155246e-08 -6.817747078002867e-08 -4.4590350967155246e-08 0.00020346284145489335 9.087440844268713e-08 -6.817747078002867e-08 9.087440844268713e-08 0.0002035120560321957" pbc="T T T"
Mn       2.02427242       1.43137573       3.50614376       0.00000329      -0.00000730       0.00000738
Mn       6.07281726       4.29413127      10.51842735       0.00000433       0.00000558      -0.00000395
Ir      -0.00000039       0.00000020      -0.00000039       0.00000778      -0.00000288       0.00000223
Br       2.01657637       1.42593507       7.01228482      -0.00809537      -0.00572532      -0.00000434
Br       6.08051206       4.29957241       7.01228510       0.00808956       0.00572415       0.00000166
Br       5.06452818       1.42593553       5.25254905       0.00404796      -0.00572880      -0.00701559
Br       3.03256072       4.29957159       8.77201995      -0.00405201       0.00573241       0.00701800
Br       3.03255994       4.29957227       5.25254922      -0.00405050       0.00572435      -0.00700927
Br       5.06452865       1.42593436       8.77202122       0.00404499      -0.00572219       0.00700389
