9
Lattice="5.7467083985946 -1.77152021691863e-08 3.3178635393903986 1.9155694502683915 5.418048833329009 3.317863538052814 -9.987025415700255e-08 -7.225714836842747e-08 6.635727251761086" Properties=species:S:1:pos:R:3:forces:R:3 energy=-39.47269821166992 free_energy=-39.47269821166992 stress="6.79928416502662e-05 1.0962970087291524e-08 -2.605688642631776e-08 1.0962970087291524e-08 6.793598004151136e-05 9.487177266009894e-09 -2.605688642631776e-08 9.487177266009894e-09 6.793936336180195e-05" pbc="T T T"
Mn       1.91556785       1.35451290       3.31786335      -0.00000900       0.00000569      -0.00000013
Mn       5.74670879       4.06353570       9.95358882       0.00000154      -0.00000709      -0.00001368
Ir       0.00000035      -0.00000008       0.00000029      -0.00000442       0.00000068       0.00000042
Cl       1.90668737       1.34823205       6.63572747      -0.00052772      -0.00037082      -0.00000012
Cl       5.75559049       4.06981699       6.63572758       0.00053041       0.00037107       0.00000623
Cl       4.79336492       1.34823156       4.96910370       0.00026751      -0.00037408      -0.00045162
Cl       2.86891328       4.06981704       8.30235141      -0.00026082       0.00037174       0.00045608
Cl       2.86891284       4.06981681       4.96910343      -0.00026651       0.00037159      -0.00045438
Cl       4.79336510       1.34823202       8.30235126       0.00026882      -0.00036870       0.00045724
