9
Lattice="4.813886120175111 1.9798756879444996e-08 2.7792985337025584 1.6046286918048913 4.53857570626024 2.779298591876243 -2.049821740961379e-08 5.6753500483022926e-08 5.558597102909067" Properties=species:S:1:pos:R:3:forces:R:3 energy=-49.69694900512695 free_energy=-49.69694900512695 stress="0.00037804359453730285 3.282158900219656e-08 -1.0297076080689749e-08 3.282158900219656e-08 0.00037805980537086725 3.248954172363483e-08 -1.0297076080689749e-08 3.248954172363483e-08 0.0003780591650865972" pbc="T T T"
Mn       1.60462982       1.13464395       2.77929901       0.00000270      -0.00000007       0.00000210
Mn       4.81388590       3.40393167       8.33789578      -0.00000036      -0.00000009       0.00000047
Ir       0.00000007      -0.00000003       0.00000032      -0.00000374       0.00000505      -0.00001429
F        1.63866283       1.15870949       5.55859682      -0.00737013      -0.00521158       0.00000005
F        4.77985192       3.37986616       5.55859665       0.00736910       0.00521189       0.00000080
F        3.99455445       1.15870961       4.19842190       0.00368218      -0.00520968      -0.00638139
F        2.42395994       3.37986627       6.91877231      -0.00368394       0.00521138       0.00638311
F        2.42395972       3.37986621       4.19842178      -0.00368150       0.00520562      -0.00637661
F        3.99455453       1.15870970       6.91877237       0.00368577      -0.00521257       0.00638566
