9
Lattice="6.5379156833794 7.648181491046e-08 3.774667418625357 2.1793052966207673 6.164006079522323 3.774667424306622 1.1145979361534523e-08 1.4839542582483248e-08 7.549334817945329" Properties=species:S:1:pos:R:3:forces:R:3 energy=-33.35401916503906 free_energy=-33.35401916503906 stress="-2.9970544346724637e-05 5.251068913025847e-09 -1.7505049854094068e-08 5.251068913025847e-09 -2.9998482204973698e-05 -1.0897945657006858e-08 -1.7505049854094068e-08 -1.0897945657006858e-08 -2.9963062843307853e-05" pbc="T T T"
Mn       2.17930539       1.54100137       3.77466755      -0.00000006      -0.00000256       0.00000234
Mn       6.53791568       4.62300472      11.32400191       0.00000016       0.00000252      -0.00000130
Ir       0.00000015       0.00000008       0.00000012      -0.00000041       0.00000023       0.00000003
I        2.18032374       1.54172164       7.54933473      -0.00035296      -0.00025029      -0.00000005
I        6.53689713       4.62228448       7.54933490       0.00035395       0.00025088       0.00000100
I        5.44775365       1.54172154       5.66288316       0.00017642      -0.00025138      -0.00030651
I        3.26946724       4.62228465       9.43578652      -0.00017606       0.00025041       0.00030544
I        3.26946705       4.62228460       5.66288319      -0.00017777       0.00025092      -0.00030664
I        5.44775394       1.54172162       9.43578656       0.00017676      -0.00025079       0.00030575
