9
Lattice="4.813964075277229 -9.963332414907298e-08 2.7793434267784285 1.6046545983985347 4.5386488351718235 2.7793434257830363 -8.129562959985762e-08 -5.8703739354889104e-08 5.558686994364994" Properties=species:S:1:pos:R:3:forces:R:3 energy=-49.69696044921875 free_energy=-49.69696044921875 stress="0.0002028456365223974 -4.057927327494326e-08 -1.67166334108515e-08 -4.057927327494326e-08 0.0002028777525993064 3.216314325982239e-08 -1.67166334108515e-08 3.216314325982239e-08 0.0002029000606853515" pbc="T T T"
Mn       1.60465466       1.13466147       2.77934349       0.00000006      -0.00000197       0.00000116
Mn       4.81396430       3.40398617       8.33803072       0.00000143      -0.00000121       0.00000104
Ir      -0.00000006       0.00000005      -0.00000008      -0.00000135       0.00000896      -0.00000294
F        1.63840628       1.15852842       5.55868682      -0.00204246      -0.00144301      -0.00000033
F        4.78021213       3.38012035       5.55868684       0.00203957       0.00144295      -0.00000026
F        3.99476058       1.15852876       4.19824492       0.00102290      -0.00144698      -0.00177268
F        2.42385797       3.38012062       6.91912870      -0.00102191       0.00144485       0.00176863
F        2.42385768       3.38012065       4.19824509      -0.00102001       0.00144274      -0.00176434
F        3.99476078       1.15852823       6.91912870       0.00102176      -0.00144641       0.00176966
