9
Lattice="5.757598047745163 -1.5053173165778593e-07 3.324151067292251 1.9191992926403834 5.428315634875248 3.324150919522966 1.1289177244725287e-07 -1.0115320958644438e-07 6.648301939050272" Properties=species:S:1:pos:R:3:forces:R:3 energy=-42.44795227050781 free_energy=-42.44795227050781 stress="0.00010585659765638411 -8.881421820206015e-08 1.2566502505251265e-08 -8.881421820206015e-08 0.00010589817975414917 -9.589205518523158e-08 1.2566502505251265e-08 -9.589205518523158e-08 0.00010598174412734807" pbc="T T T"
Mn       1.91920003       1.35708000       3.32415177       0.00000156       0.00000894       0.00000806
Mn       5.75759880       4.07123628       9.97245135       0.00000799      -0.00000342      -0.00001044
Mo      -0.00000066      -0.00000000       0.00000010       0.00000932      -0.00000118       0.00000253
Cl       1.95798477       1.38450513       6.64830196      -0.00208583      -0.00146964      -0.00000090
Cl       5.71881274       4.04381060       6.64830219       0.00207826       0.00146503       0.00000218
Cl       4.77860456       1.38450441       5.01981650       0.00103832      -0.00147626      -0.00180661
Cl       2.89819252       4.04381028       8.27678742      -0.00104140       0.00147334       0.00180937
Cl       2.89819218       4.04380987       5.01981755      -0.00105258       0.00147865      -0.00181322
Cl       4.77860487       1.38450497       8.27678692       0.00104439      -0.00147550       0.00180911
