9
Lattice="6.689488854728338 -1.9638719756034667e-08 3.8621782270631395 2.2298295898348965 6.306910603138537 3.8621782441972248 -5.515693204444129e-09 1.708464576649874e-08 7.724356463679739" Properties=species:S:1:pos:R:3:forces:R:3 energy=-34.99509811401367 free_energy=-34.99509811401367 stress="6.773122731829062e-05 -1.3167008816594716e-08 4.241360596068944e-10 -1.3167008816594716e-08 6.773523637093604e-05 -2.9339712881437663e-09 4.241360596068944e-10 -2.9339712881437663e-09 6.773319182684645e-05" pbc="T T T"
Mn       2.22982941       1.57672765       3.86217828      -0.00000108      -0.00000012      -0.00000026
Mn       6.68948895       4.73018314      11.58653482       0.00000120       0.00000071       0.00000048
Mo      -0.00000001      -0.00000025       0.00000039       0.00000146       0.00000487      -0.00000191
I        2.26033006       1.59829469       7.72435645      -0.00161029      -0.00113870       0.00000010
I        6.65898884       4.70861604       7.72435634       0.00160576       0.00113513       0.00000034
I        5.55932376       1.59829456       5.81968157       0.00080512      -0.00113824      -0.00139317
I        3.35999444       4.70861581       9.62903132      -0.00080384       0.00113806       0.00139265
I        3.35999447       4.70861591       5.81968142      -0.00080403       0.00113687      -0.00139228
I        5.55932384       1.59829483       9.62903114       0.00080578      -0.00113866       0.00139417
