9
Lattice="6.133166310242962 -1.3852419300107236e-08 3.5409852675539812 2.044388794534744 5.782404694260057 3.5409852025779727 2.77908052048922e-08 -5.992802430805454e-08 7.081970486972967" Properties=species:S:1:pos:R:3:forces:R:3 energy=-38.702823638916016 free_energy=-38.702823638916016 stress="7.130848098313436e-05 -3.999904407692156e-09 1.9467114142912578e-08 -3.999904407692156e-09 7.131366874091327e-05 -2.116255437556447e-08 1.9467114142912578e-08 -2.116255437556447e-08 7.132955215638503e-05" pbc="T T T"
Mn       2.04438997       1.44560172       3.54098560       0.00000572       0.00000328       0.00000298
Mn       6.13316646       4.33680331      10.62295687       0.00000162       0.00000064       0.00000836
Mo       0.00000021       0.00000046      -0.00000029      -0.00000557      -0.00000838      -0.00000176
Br       2.08660775       1.47545440       7.08197043      -0.00118749      -0.00084139      -0.00000229
Br       6.09094691       4.30694976       7.08197027       0.00119556       0.00084692      -0.00000382
Br       5.08986222       1.47545455       5.34804024       0.00059189      -0.00083912      -0.00103369
Br       3.08769231       4.30694971       8.81589993      -0.00059959       0.00084167       0.00103330
Br       3.08769254       4.30695007       5.34804055      -0.00059701       0.00084294      -0.00103636
Br       5.08986217       1.47545448       8.81590020       0.00059495      -0.00084657       0.00103310
