9
Lattice="6.689569139528676 -2.5968116216984938e-08 3.8622245223713576 2.2298563989468474 6.306986131030687 3.862224446876609 7.644007211290829e-08 -3.8410509082463354e-08 7.7244489123445605" Properties=species:S:1:pos:R:3:forces:R:3 energy=-34.995094299316406 free_energy=-34.995094299316406 stress="7.270412606885657e-05 1.2653959657882297e-08 1.1864240256898029e-08 1.2653959657882297e-08 7.271939102793112e-05 -1.842833263765442e-08 1.1864240256898029e-08 -1.842833263765442e-08 7.271963841049e-05" pbc="T T T"
Mn       2.22985594       1.57674671       3.86222495      -0.00000209       0.00000076       0.00000264
Mn       6.68956942       4.73023934      11.58667373       0.00000103      -0.00000093       0.00000150
Mo      -0.00000028       0.00000032      -0.00000024       0.00000492      -0.00000518       0.00000307
I        2.26032520       1.59829165       7.72444875      -0.00148112      -0.00104779      -0.00000057
I        6.65910048       4.70869496       7.72444883       0.00148037       0.00104666      -0.00000162
I        5.55940673       1.59829107       5.81972295       0.00073895      -0.00104408      -0.00127997
I        3.36001903       4.70869476       9.62917416      -0.00073978       0.00104660       0.00128165
I        3.36001885       4.70869453       5.81972373      -0.00074203       0.00104934      -0.00128603
I        5.55940710       1.59829095       9.62917467       0.00073979      -0.00104544       0.00127932
