9
Lattice="5.757732548219894 2.264163214424081e-07 3.3242284430210893 1.919244380451285 5.4284424733337975 3.324228470311329 5.163868644472563e-08 6.993762476181433e-08 6.6484567966013755" Properties=species:S:1:pos:R:3:forces:R:3 energy=-42.44795227050781 free_energy=-42.44795227050781 stress="0.00012564206554088742 4.0036681525634776e-08 5.661397750600372e-08 4.0036681525634776e-08 0.0001257221883861348 2.874083548931594e-08 5.661397750600372e-08 2.874083548931594e-08 0.00012565168435685337" pbc="T T T"
Mn       1.91924362       1.35711280       3.32422792      -0.00000682       0.00002045      -0.00000845
Mn       5.75773313       4.07133000       9.97268563       0.00000172      -0.00001707       0.00000583
Mo       0.00000028       0.00000072      -0.00000026      -0.00000589      -0.00000823       0.00001374
Cl       1.95801910       1.38452944       6.64845682      -0.00239116      -0.00168588       0.00000218
Cl       5.71895789       4.04391307       6.64845622       0.00240096       0.00169231      -0.00000025
Cl       4.77872317       1.38452981       5.01992298       0.00120079      -0.00169265      -0.00207410
Cl       2.89825345       4.04391328       8.27699145      -0.00119391       0.00168377       0.00206717
Cl       2.89825433       4.04391279       5.01992270      -0.00120177       0.00169454      -0.00207715
Cl       4.77872302       1.38452925       8.27699135       0.00119606      -0.00168719       0.00207104
