9
Lattice="4.982567575810289 -9.492480902708786e-08 2.876686713872776 1.6608557921101657 4.69760967146417 2.876686674030959 8.916473592876236e-08 1.425290971972495e-08 5.753373273307651" Properties=species:S:1:pos:R:3:forces:R:3 energy=-52.27350616455078 free_energy=-52.27350616455078 stress="0.00039110323996283114 1.8980648164301783e-08 1.675848437798777e-08 1.8980648164301783e-08 0.0003910865925718099 -2.2502907981447606e-08 1.675848437798777e-08 -2.2502907981447606e-08 0.0003910962550435215" pbc="T T T"
Mn       1.66085562       1.17440235       2.87668699      -0.00000035       0.00000040       0.00000117
Mn       4.98256767       3.52320713       8.63006043       0.00000018       0.00000024       0.00000053
Mo      -0.00000007       0.00000018      -0.00000019      -0.00000207      -0.00001034       0.00000401
F        1.66209017       1.17527555       5.75337329      -0.00372766      -0.00263431      -0.00000005
F        4.98133325       3.52233395       5.75337316       0.00373353       0.00263860      -0.00000047
F        4.15152205       1.17527506       4.31609894       0.00186278      -0.00263554      -0.00322772
F        2.49190117       3.52233472       7.19064756      -0.00186342       0.00263678       0.00322822
F        2.49190125       3.52233439       4.31609910      -0.00186645       0.00263950      -0.00323289
F        4.15152256       1.17527504       7.19064753       0.00186348      -0.00263533       0.00322726
