9
Lattice="6.133264490027416 -6.059642294860569e-08 3.5410418726229786 2.044421476351394 5.782497192543573 3.5410418088723317 -3.4224318755999482e-09 -8.049839987164538e-08 7.082083751173878" Properties=species:S:1:pos:R:3:forces:R:3 energy=-38.702823638916016 free_energy=-38.702823638916016 stress="8.05248346296139e-05 -1.567807217384143e-08 1.9041571874822694e-08 -1.567807217384143e-08 8.0539146438241e-05 -2.328422787911677e-09 1.9041571874822694e-08 -2.328422787911677e-09 8.052810153458267e-05" pbc="T T T"
Mn       2.04442138       1.44562390       3.54104213      -0.00000001      -0.00000122       0.00000180
Mn       6.13326505       4.33687372      10.62312829       0.00000290       0.00000454       0.00001406
Mo      -0.00000001       0.00000034       0.00000035       0.00000001      -0.00000702      -0.00000468
Br       2.08662411       1.47546567       7.08208352      -0.00128209      -0.00090723      -0.00000189
Br       6.09106164       4.30703096       7.08208301       0.00128475       0.00090924      -0.00000422
Br       5.08995262       1.47546603       5.34811096       0.00064055      -0.00090624      -0.00111023
Br       3.08773295       4.30703091       8.81605518      -0.00064683       0.00091106       0.00111056
Br       3.08773411       4.30703081       5.34811113      -0.00064167       0.00090899      -0.00111569
Br       5.08995198       1.47546584       8.81605517       0.00064236      -0.00091207       0.00111035
