9
Lattice="4.982722840389246 -1.7740812683312178e-07 2.876776469914954 1.6609075189483198 4.697755574097116 2.876776343913092 4.8260902110143075e-08 -1.2019455317354577e-07 5.753552856239561" Properties=species:S:1:pos:R:3:forces:R:3 energy=-52.273502349853516 free_energy=-52.273502349853516 stress="0.00041596253868192434 1.3402275955698428e-09 -1.4535378234370455e-08 1.3402275955698428e-09 0.0004160159733146429 3.38306946900957e-08 -1.4535378234370455e-08 3.38306946900957e-08 0.0004159941745456308" pbc="T T T"
Mn       1.66090799       1.17443888       2.87677672       0.00000075      -0.00000155       0.00000031
Mn       4.98272280       3.52331659       8.63032959       0.00000001       0.00000198       0.00000083
Mo       0.00000016       0.00000005      -0.00000011      -0.00000120       0.00000374       0.00000132
F        1.66210392       1.17528430       5.75355295      -0.00384813      -0.00272165      -0.00000030
F        4.98152655       3.52247115       5.75355244       0.00384659       0.00272107       0.00000022
F        4.15167076       1.17528452       4.31620078       0.00192553      -0.00272367      -0.00333589
F        2.49195940       3.52247069       7.19090501      -0.00192404       0.00272113       0.00333256
F        2.49195935       3.52247070       4.31620036      -0.00192383       0.00271907      -0.00333146
F        4.15167080       1.17528420       7.19090490       0.00192428      -0.00272009       0.00333239
