9
Lattice="5.5697712222224 -6.88552264617906e-08 3.2157089755738912 1.8565903298668 5.251230636338417 3.2157089974381803 -2.4384378067257516e-08 9.535764289054812e-09 6.431417993382681" Properties=species:S:1:pos:R:3:forces:R:3 energy=-33.34416198730469 free_energy=-33.34416198730469 stress="0.00020175125973764807 1.7323404932767517e-08 -2.075351801522629e-08 1.7323404932767517e-08 0.00020173256052657962 -2.6386553386714695e-08 -2.075351801522629e-08 -2.6386553386714695e-08 0.00020172739459667355" pbc="T T T"
Mn       1.85659031       1.31280791       3.21570917      -0.00000023       0.00000083      -0.00000057
Mn       5.56977101       3.93842193       9.64712539      -0.00000188      -0.00000361      -0.00000876
N        0.00000058       0.00000081       0.00000325       0.00000509       0.00000962       0.00003963
Cl       1.80949076       1.27950336       6.43141774      -0.00345625      -0.00244121      -0.00000133
Cl       5.61687038       3.97172731       6.43141843       0.00344732       0.00243579       0.00000227
Cl       4.66502561       1.27950262       4.78277364       0.00173094      -0.00244702      -0.00299944
Cl       2.76133680       3.97172654       8.08006120      -0.00171825       0.00243250       0.00298192
Cl       2.76133531       3.97172793       4.78277381      -0.00173090       0.00244612      -0.00299612
Cl       4.66502537       1.27950394       8.08006123       0.00172400      -0.00243287       0.00298265
