9
Lattice="6.4612287693720845 -7.621673371434637e-08 3.7303922268639504 2.153742867029082 6.091704793495613 3.7303921995618174 8.183979964571711e-09 -2.7651221871272203e-08 7.460784439552797" Properties=species:S:1:pos:R:3:forces:R:3 energy=-30.118724822998047 free_energy=-30.118724822998047 stress="1.3646107390741236e-06 -1.813878824918902e-09 -3.2746052536225534e-09 -1.813878824918902e-09 1.3612774409921258e-06 -6.248592310242884e-09 -3.2746052536225534e-09 -6.248592310242884e-09 1.3712930240217247e-06" pbc="T T T"
Mn       2.15374267       1.52292682       3.73039221      -0.00000177       0.00000325       0.00000108
Mn       6.46122824       4.56877797      11.19117643      -0.00000204      -0.00000238      -0.00000113
Ni       0.00000003      -0.00000007       0.00000008       0.00000045       0.00000037      -0.00000012
I        2.17100006       1.53512881       7.46078440      -0.00130893      -0.00092491       0.00000034
I        6.44397183       4.55657573       7.46078443       0.00130966       0.00092401       0.00000027
I        5.37572878       1.53512881       5.61053352       0.00065473      -0.00092527      -0.00113375
I        3.23924311       4.55657589       9.31103558      -0.00065423       0.00092477       0.00113404
I        3.23924296       4.55657572       5.61053329      -0.00065394       0.00092427      -0.00113466
I        5.37572885       1.53512908       9.31103550       0.00065616      -0.00092422       0.00113384
