9
Lattice="4.258706296520873 -1.4258945817819646e-07 2.4587651896975715 1.4195686444832565 4.015146742138779 2.4587651664692425 3.459091675558973e-08 -3.9892945297639194e-09 4.91753031948193" Properties=species:S:1:pos:R:3:forces:R:3 energy=-42.811248779296875 free_energy=-42.811248779296875 stress="0.0006450751097872853 -2.893673389792184e-08 -1.373218623257344e-07 -2.893673389792184e-08 0.000645079358946532 1.782052123644462e-07 -1.373218623257344e-07 1.782052123644462e-07 0.0006451535737141967" pbc="T T T"
Mn       1.41956931       1.00378787       2.45876528       0.00000284       0.00000485       0.00000239
Mn       4.25870598       3.01136043       7.37629456       0.00000194       0.00000584      -0.00000450
N       -0.00000054      -0.00000120       0.00000017      -0.00000490       0.00000309      -0.00000371
F        1.36883589       0.96791268       4.91753015      -0.00455076      -0.00322118       0.00000068
F        4.30943993       3.04723400       4.91753066       0.00456607       0.00322056       0.00000476
F        3.57428821       0.96791255       3.64421156       0.00227639      -0.00322938      -0.00394833
F        2.10398648       3.04723378       6.19084918      -0.00228101       0.00321761       0.00395650
F        2.10398620       3.04723434       3.64421149      -0.00228044       0.00321642      -0.00394744
F        3.57428863       0.96791168       6.19084964       0.00226983      -0.00321820       0.00394011
