9
Lattice="6.279216784756828 -4.457315753315622e-08 3.6253074751352337 2.0930722407355082 5.920102338174756 3.62530743846099 -4.892217214240721e-09 -4.8375882623921125e-08 7.250614958744044" Properties=species:S:1:pos:R:3:forces:R:3 energy=-39.619266510009766 free_energy=-39.619266510009766 stress="8.286737283924595e-05 -1.4273355830596302e-08 1.0715475617928405e-08 -1.4273355830596302e-08 8.287389937322587e-05 -1.2737931598394425e-08 1.0715475617928405e-08 -1.2737931598394425e-08 8.290179539471865e-05" pbc="T T T"
Mn       2.09307266       1.48002506       3.62530776       0.00000192      -0.00000309       0.00000144
Mn       6.27921686       4.44007732      10.87592193       0.00000152       0.00000263      -0.00000183
Nb      -0.00000002      -0.00000015       0.00000037       0.00000060       0.00000460      -0.00000672
Br       2.09569299       1.48187862       7.25061492       0.00022532       0.00015953      -0.00000059
Br       6.27659610       4.43822377       7.25061522      -0.00023097      -0.00016142      -0.00000089
Br       5.23137017       1.48187833       5.44023071      -0.00011577       0.00016174       0.00019741
Br       3.14091880       4.43822354       9.06099865       0.00011267      -0.00015815      -0.00019512
Br       3.14091831       4.43822371       5.44023107       0.00011518      -0.00016165       0.00019835
Br       5.23137019       1.48187877       9.06099882      -0.00011047       0.00015581      -0.00019208
