9
Lattice="4.328478717860298 -2.5433205153554167e-07 2.499048249791185 1.4428260915950086 4.080928283195724 2.4990480902783543 -1.7110429690441784e-09 -1.9657243261116654e-07 4.998096502546002" Properties=species:S:1:pos:R:3:forces:R:3 energy=-52.208038330078125 free_energy=-52.208038330078125 stress="3.3040239941328764e-05 -7.486286790481245e-08 1.651698156024395e-08 -7.486286790481245e-08 3.3153872209368274e-05 2.1992908827428437e-08 1.651698156024395e-08 2.1992908827428437e-08 3.312619446660392e-05" pbc="T T T"
Mn       1.44282389       1.02023011       2.49904809      -0.00001968      -0.00001826      -0.00000107
Mn       4.32847638       3.06069406       7.49714465      -0.00002050      -0.00001730      -0.00000207
N       -0.00001982      -0.00001711      -0.00000176      -0.00016243      -0.00013364      -0.00001060
O        1.30867066       0.92536981       4.99809627       0.00446653       0.00316107       0.00000025
O        4.46266279       3.15557802       4.99809587      -0.00423658      -0.00300014      -0.00000190
O        3.67414864       0.92535976       3.63237930      -0.00218385       0.00308275       0.00378060
O        2.09715283       3.15556905       6.36381649       0.00216496      -0.00307095      -0.00375831
O        2.09715358       3.15556821       3.63237764       0.00217074      -0.00307953       0.00376713
O        3.67414984       0.92535916       6.36381461      -0.00217968       0.00307822      -0.00377429
