9
Lattice="4.257341150380687 -2.0991770001179465e-07 2.457976972487157 1.4191133756457657 4.013859946754755 2.4579772205782295 -1.7718999860314154e-07 1.7855602640920973e-07 4.9159542518764106" Properties=species:S:1:pos:R:3:forces:R:3 energy=-42.811279296875 free_energy=-42.811279296875 stress="0.0001039049748214893 -8.649871574561985e-08 -1.017877693243463e-07 -8.649871574561985e-08 0.00010382926120655611 3.9438685917048133e-07 -1.017877693243463e-07 3.9438685917048133e-07 0.00010378359002061188" pbc="T T T"
Mn       1.41911269       1.00346532       2.45797723      -0.00000065       0.00000420      -0.00000151
Mn       4.25734106       3.01039617       7.37393042      -0.00000353       0.00001146       0.00000182
N       -0.00000023      -0.00000184      -0.00000038       0.00000224      -0.00001020      -0.00001018
F        1.36841771       0.96761533       4.91595477      -0.00057065      -0.00040495      -0.00000307
F        4.30803921       3.04624396       4.91595357       0.00057673       0.00040436       0.00000853
F        3.57313214       0.96761790       3.64306091       0.00029096      -0.00041437      -0.00049585
F        2.10332055       3.04624344       6.18884916      -0.00029156       0.00040972       0.00050598
F        2.10332138       3.04624401       3.64305983      -0.00029278       0.00039774      -0.00048876
F        3.57313279       0.96761559       6.18884816       0.00028908      -0.00039828       0.00048250
