9
Lattice="5.552245479317876 1.2176340544847098e-08 3.2055902857746723 1.8507484920935164 5.234707098766433 3.205590307412097 -3.507763957008095e-08 1.6967252366107533e-09 6.411180632305566" Properties=species:S:1:pos:R:3:forces:R:3 energy=-37.10126495361328 free_energy=-37.10126495361328 stress="1.699473250482697e-05 -6.0142868463231025e-09 2.6776456607535692e-08 -6.0142868463231025e-09 1.6918667824938893e-05 -1.1897716145625736e-09 2.6776456607535692e-08 -1.1897716145625736e-09 1.6979893189272843e-05" pbc="T T T"
Mn       1.85074865       1.30867737       3.20559015       0.00000090       0.00000211      -0.00000010
Mn       5.55224493       3.92603003       9.61676937      -0.00000455      -0.00000122      -0.00000809
Ni       0.00000015      -0.00000027      -0.00000088      -0.00000140       0.00000398       0.00001761
Cl       1.86199135       1.31662652       6.41118059       0.00050828       0.00036074       0.00000304
Cl       5.54100269       3.91808060       6.41118125      -0.00050914      -0.00036091       0.00000590
Cl       4.62124951       1.31662672       4.81812265      -0.00024864       0.00035313       0.00043388
Cl       2.78174406       3.91808077       8.00423966       0.00026016      -0.00036849      -0.00044644
Cl       2.78174441       3.91807995       4.81812243       0.00025126      -0.00035621       0.00043623
Cl       4.62125004       1.31662674       8.00423970      -0.00025681       0.00036667      -0.00044230
