9
Lattice="6.791784085827107 1.0969527687838044e-08 3.921238322962636 2.2639280226303073 6.4033554509613735 3.9212383512312625 -3.115422563300205e-08 1.2592467109157139e-08 7.842476699885949" Properties=species:S:1:pos:R:3:forces:R:3 energy=-35.587181091308594 free_energy=-35.587181091308594 stress="0.00023947232693899423 -1.2523669212782806e-08 2.7294437821012707e-09 -1.2523669212782806e-08 0.0002394708717474714 9.506680997972694e-10 2.7294437821012707e-09 9.506680997972694e-10 0.00023948172747623175" pbc="T T T"
Mn       2.26392821       1.60083888       3.92123783       0.00000062      -0.00000010      -0.00000107
Mn       6.79178392       4.80251644      11.76371527      -0.00000077      -0.00000066      -0.00000139
Nb      -0.00000019      -0.00000003      -0.00000010       0.00000194       0.00000046      -0.00000066
I        2.26951077       1.60478648       7.84247665      -0.00487586      -0.00344767       0.00000023
I        6.78620144       4.79856921       7.84247672       0.00487464       0.00344657       0.00000080
I        5.65702875       1.60478642       5.88669225       0.00243802      -0.00344785      -0.00422271
I        3.39868332       4.79856889       9.79826122      -0.00243814       0.00344828       0.00422418
I        3.39868352       4.79856913       5.88669245      -0.00243851       0.00344858      -0.00422282
I        5.65702858       1.60478648       9.79826122       0.00243805      -0.00344764       0.00422341
