9
Lattice="4.906928955909176 6.889439997664361e-08 2.83301682326665 1.6356430409924227 4.626297516643981 2.833016839313985 -1.2415324005353752e-07 -6.813574652720384e-08 5.666033861573013" Properties=species:S:1:pos:R:3:forces:R:3 energy=-56.446136474609375 free_energy=-56.446136474609375 stress="0.0002703377977013588 -2.3419895356369125e-08 1.0972732944480867e-08 -2.3419895356369125e-08 0.00027032947400584817 -2.850433666878871e-09 1.0972732944480867e-08 -2.850433666878871e-09 0.00027033285005018115" pbc="T T T"
Mn       1.63564281       1.15657419       2.83301680      -0.00000063       0.00000004       0.00000003
Mn       4.90692874       3.46972320       8.49905055      -0.00000049      -0.00000020      -0.00000091
Nb       0.00000001       0.00000008      -0.00000033      -0.00000258      -0.00000382       0.00000856
F        1.64388181       1.16240007       5.66603389       0.00007671       0.00005338       0.00000001
F        4.89868991       3.46389720       5.66603403      -0.00007179      -0.00005102       0.00000058
F        4.08498825       1.16239996       4.25666038      -0.00003736       0.00005260       0.00006521
F        2.45758409       3.46389753       7.07540693       0.00003953      -0.00005537      -0.00006804
F        2.45758393       3.46389738       4.25666031       0.00003618      -0.00005123       0.00006264
F        4.08498797       1.16240030       7.07540706      -0.00003934       0.00005549      -0.00006810
