9
Lattice="4.568018449835473 8.925848485073542e-09 2.6373466010871507 1.5226728477430145 4.30676901476985 2.6373465617422047 2.828199765089089e-08 -2.8189129336288485e-08 5.274693153188464" Properties=species:S:1:pos:R:3:forces:R:3 energy=-47.49628448486328 free_energy=-47.49628448486328 stress="0.00025059914332814515 6.119226725331828e-08 -1.000408644813433e-08 6.119226725331828e-08 0.0002504753356333822 5.665613045380269e-08 -1.000408644813433e-08 5.665613045380269e-08 0.0002505501906853169" pbc="T T T"
Mn       1.52267304       1.07669265       2.63734653       0.00000369       0.00000163      -0.00000013
Mn       4.56801859       3.23007655       7.91203979      -0.00000147       0.00000051      -0.00000048
Ni       0.00000012      -0.00000015      -0.00000032      -0.00000150       0.00000582       0.00001132
F        1.54413769       1.09187023       5.27469314      -0.00075399      -0.00053223       0.00000092
F        4.54655352       3.21489872       5.27469316       0.00075347       0.00053094       0.00000066
F        3.79594952       1.09187033       3.97460892       0.00037818      -0.00053379      -0.00065534
F        2.29474163       3.21489881       6.57477765      -0.00037525       0.00052603       0.00064566
F        2.29474163       3.21489879       3.97460872      -0.00037627       0.00052962      -0.00064959
F        3.79594959       1.09187000       6.57477756       0.00037304      -0.00052845       0.00064670
