9
Lattice="5.5699408542297215 2.9834460467637535e-08 3.215806833552302 1.8566470110839046 5.251390555674578 3.215806778913395 4.712425490637131e-08 -3.359687028165807e-08 6.431613585483033" Properties=species:S:1:pos:R:3:forces:R:3 energy=-33.34416198730469 free_energy=-33.34416198730469 stress="0.0002264589275000617 -9.417739477157738e-09 -9.871892636681423e-09 -9.417739477157738e-09 0.0002264305076096207 -1.819749506637436e-08 -9.871892636681423e-09 -1.819749506637436e-08 0.000226413641939871" pbc="T T T"
Mn       1.85664761       1.31284746       3.21580669       0.00000196      -0.00000149       0.00000086
Mn       5.56994124       3.93854341       9.64741961       0.00000104       0.00000359      -0.00000334
N        0.00000026      -0.00000069      -0.00000100       0.00000167      -0.00000745      -0.00001719
Cl       1.80945909       1.27948100       6.43161360      -0.00295845      -0.00209396       0.00000066
Cl       5.61712861       3.97190995       6.43161396       0.00296056       0.00209187       0.00000071
Cl       4.66521075       1.27948069       4.78284482       0.00147576      -0.00208828      -0.00255570
Cl       2.76137648       3.97191017       8.08038320      -0.00148267       0.00209948       0.00256954
Cl       2.76137641       3.97190964       4.78284485      -0.00147964       0.00209153      -0.00256009
Cl       4.66521121       1.27948054       8.08038306       0.00147996      -0.00209497       0.00256479
