9
Lattice="4.924513350032259 2.622681009402637e-07 2.8431686796066296 1.6415047156822775 4.64287519122554 2.843168647732099 1.1078731829925742e-08 -3.120430685787438e-08 5.686337340024357" Properties=species:S:1:pos:R:3:forces:R:3 energy=-51.78056716918945 free_energy=-51.78056716918945 stress="2.122300793416798e-05 4.549694665456627e-08 -1.358692625075264e-08 4.549694665456627e-08 2.1203002688707784e-05 1.3184624059192629e-08 -1.358692625075264e-08 1.3184624059192629e-08 2.119212513207458e-05" pbc="T T T"
Mn       1.64150521       1.16071899       2.84316769       0.00000148       0.00000066      -0.00000255
Mn       4.92451332       3.48215710       8.52950541       0.00000059       0.00000128      -0.00000190
Os      -0.00000016       0.00000000       0.00000001      -0.00000037      -0.00000198      -0.00000432
F        1.64998393       1.16671473       5.68633739       0.00059548       0.00042132       0.00000091
F        4.91603409       3.47616036       5.68633778      -0.00059463      -0.00042041       0.00000100
F        4.09952120       1.16671456       4.27209665      -0.00029918       0.00042208       0.00051861
F        2.46649650       3.47616037       7.10057831       0.00029740      -0.00042125      -0.00051405
F        2.46649669       3.47616109       4.27209657       0.00030027      -0.00042400       0.00051978
F        4.09952122       1.16671483       7.10057890      -0.00030094       0.00042239      -0.00051744
