9
Lattice="5.751460681667192 9.626388961822022e-08 3.3206074407047064 1.9171537386439002 5.422529195458162 3.3206072894452126 5.219191414745868e-09 -1.8156375404793966e-07 6.641214872369542" Properties=species:S:1:pos:R:3:forces:R:3 energy=-41.19784164428711 free_energy=-41.19784164428711 stress="0.00010614027996780351 4.632288863604117e-08 -3.4335840837229625e-08 4.632288863604117e-08 0.00010624901187838987 -2.0425522606615232e-08 -3.4335840837229625e-08 -2.0425522606615232e-08 0.00010623747948557138" pbc="T T T"
Mn       1.91715361       1.35563290       3.32060717       0.00000121       0.00000328       0.00000140
Mn       5.75146050       4.06689640       9.96182126      -0.00000081      -0.00000452      -0.00000590
Os       0.00000019      -0.00000021      -0.00000028      -0.00000224      -0.00000054       0.00000530
Cl       1.92580519       1.36175020       6.64121492      -0.00104174      -0.00073570       0.00000024
Cl       5.74280903       4.06077876       6.64121513       0.00104162       0.00073485       0.00000384
Cl       4.78855813       1.36175000       4.98840378       0.00052233      -0.00073563      -0.00090115
Cl       2.88005672       4.06077909       8.29402635      -0.00051668       0.00073355       0.00090045
Cl       2.88005624       4.06077901       4.98840401      -0.00052199       0.00073710      -0.00090355
Cl       4.78855809       1.36175027       8.29402599       0.00051816      -0.00073266       0.00089967
