9
Lattice="6.1043281815247195 -7.813443400547205e-08 3.5243356673617963 2.0347759737739546 5.755215924972756 3.524335689996941 -3.2014971121536734e-08 5.084237479552931e-09 7.048671390175154" Properties=species:S:1:pos:R:3:forces:R:3 energy=-37.62484359741211 free_energy=-37.62484359741211 stress="0.00015156774315983057 -2.8490786618817765e-08 3.991530661551224e-09 -2.8490786618817765e-08 0.00015159159374888986 -5.5291180522942796e-09 3.991530661551224e-09 -5.5291180522942796e-09 0.0001515889453003183" pbc="T T T"
Mn       2.03477629       1.43880372       3.52433507       0.00000115      -0.00000102      -0.00000551
Mn       6.10432750       4.31641178      10.57300744      -0.00000258      -0.00000043       0.00000407
Os       0.00000011      -0.00000012       0.00000072       0.00000041      -0.00000086      -0.00000669
Br       2.03322027       1.43770402       7.04867152      -0.00288537      -0.00204076       0.00000152
Br       6.10588378       4.31751178       7.04867097       0.00288726       0.00204142      -0.00000152
Br       5.08771796       1.43770419       5.28515650       0.00144278      -0.00204139      -0.00249924
Br       3.05138655       4.31751157       8.81218598      -0.00144463       0.00204480       0.00250416
Br       3.05138664       4.31751210       5.28515655      -0.00144223       0.00204302      -0.00250047
Br       5.08771739       1.43770438       8.81218625       0.00144329      -0.00204471       0.00250387
