9
Lattice="6.574841435193982 2.7742134463569824e-08 3.795986459614059 2.191613810128981 6.1988200012808345 3.7959865076921737 -1.566477177099881e-08 4.780678702034526e-08 7.5919729463603245" Properties=species:S:1:pos:R:3:forces:R:3 energy=-34.31615447998047 free_energy=-34.31615447998047 stress="-6.823296644142829e-06 7.300163806789328e-10 1.2361812684602569e-09 7.300163806789328e-10 -6.827583092672285e-06 3.866804654251155e-09 1.2361812684602569e-09 3.866804654251155e-09 -6.823284820711706e-06" pbc="T T T"
Mn       2.19161346       1.54970458       3.79598661      -0.00000139      -0.00000240       0.00000087
Mn       6.57484128       4.64911446      11.38796026      -0.00000025      -0.00000192       0.00000417
Os       0.00000001      -0.00000005      -0.00000028      -0.00000197      -0.00000016       0.00000230
I        2.19314172       1.55078560       7.59197296      -0.00801410      -0.00566575      -0.00000021
I        6.57331340       4.64803469       7.59197280       0.00801583       0.00566882      -0.00000122
I        5.47827060       1.55078594       5.69530280       0.00400923      -0.00566750      -0.00694296
I        3.28818467       4.64803490       9.48864276      -0.00400753       0.00566708       0.00693877
I        3.28818502       4.64803468       5.69530284      -0.00400729       0.00566906      -0.00694211
I        5.47827076       1.55078552       9.48864293       0.00400752      -0.00566733       0.00694043
