9
Lattice="6.874026315263159 3.2430708953743317e-08 3.968720929763155 2.2913421796181312 6.480894283892848 3.9687208536317393 7.770663000303277e-08 -3.829461752100315e-08 7.937441724934374" Properties=species:S:1:pos:R:3:forces:R:3 energy=-27.988384246826172 free_energy=-27.988384246826172 stress="0.0001377324661007151 1.7087909753854547e-08 2.6655695428701165e-09 1.7087909753854547e-08 0.00013772863894701004 -1.0811713746505802e-09 2.6655695428701165e-09 -1.0811713746505802e-09 0.0001377018925268203" pbc="T T T"
Mn       2.29134188       1.62022379       3.96872122      -0.00000129       0.00000059       0.00000047
Mn       6.87402663       4.86067032      11.90616253      -0.00000007      -0.00000130      -0.00000097
Pb       0.00000007      -0.00000013       0.00000030      -0.00000147       0.00000034      -0.00000104
I        2.48354163       1.75612941       7.93744166      -0.00322066      -0.00227669      -0.00000074
I        6.68182679       4.72476504       7.93744175       0.00322153       0.00227819       0.00000039
I        5.63225571       1.75612913       6.11953079       0.00160875      -0.00227547      -0.00278696
I        3.53311307       4.72476499       9.75535252      -0.00160930       0.00227606       0.00278619
I        3.53311291       4.72476509       6.11953090      -0.00160925       0.00227521      -0.00278622
I        5.63225563       1.75612946       9.75535235       0.00161173      -0.00227688       0.00278888
