9
Lattice="4.9147186079249945 -1.5461844133007185e-06 2.8375137004969937 1.6382389507997344 4.633633523046096 2.83751218914203 4.508383576104748e-07 -1.5322335745602932e-06 5.675026620119053" Properties=species:S:1:pos:R:3:forces:R:3 energy=-48.83592987060547 free_energy=-48.83592987060547 stress="-0.00014846007979940623 3.4880285326721605e-09 -1.125949609104282e-07 3.4880285326721605e-09 -0.00014743207430001348 -1.77693841862947e-08 -1.125949609104282e-07 -1.77693841862947e-08 -0.00014821271179243922" pbc="T T T"
Mn       1.63822445       1.15841359       2.83751294      -0.00006408       0.00002550      -0.00000346
Mn       4.91470643       3.47521560       8.51253569      -0.00005264      -0.00002901      -0.00001180
P        0.00000304      -0.00000009       0.00000073       0.00002741      -0.00001286      -0.00000503
F        1.34333747       0.94987880       5.67502744       0.00008389       0.00005147       0.00000405
F        5.20962746       3.68375067       5.67502597      -0.00005838      -0.00006083       0.00000353
F        4.24305635       0.94987936       4.00087648      -0.00001496       0.00005582       0.00006640
F        2.30991022       3.68375143       7.34917832       0.00004727      -0.00004214      -0.00004688
F        2.30990968       3.68375171       4.00087311       0.00004925      -0.00005072       0.00005773
F        4.24305764       0.94987935       7.34918000      -0.00001775       0.00006291      -0.00006413
