9
Lattice="6.602332722868893 -1.465052782802624e-08 3.81185852762264 2.200777567666059 6.224738852684677 3.8118585151707753 1.870042822307216e-08 -2.027140292187723e-09 7.623717022855146" Properties=species:S:1:pos:R:3:forces:R:3 energy=-29.18562126159668 free_energy=-29.18562126159668 stress="7.956609624670818e-05 9.44985756312633e-10 -4.13288070433282e-09 9.44985756312633e-10 7.95605155872181e-05 6.36068042680904e-09 -4.13288070433282e-09 6.36068042680904e-09 7.955932233016938e-05" pbc="T T T"
Mn       2.20077786       1.55618498       3.81185855       0.00000225       0.00000264       0.00000053
Mn       6.60233318       4.66855365      11.43557461       0.00000065      -0.00000291      -0.00000515
P       -0.00000002       0.00000005      -0.00000012      -0.00000035      -0.00000011       0.00000076
I        2.25351339       1.59347477       7.62371703      -0.00313058      -0.00221235      -0.00000048
I        6.54959673       4.63126424       7.62371756       0.00313013       0.00221350       0.00000241
I        5.47557598       1.59347462       5.76345834       0.00156467      -0.00221321      -0.00271021
I        3.32753406       4.63126426       9.48397592      -0.00156539       0.00221208       0.00271076
I        3.32753396       4.63126406       5.76345845      -0.00156625       0.00221244      -0.00270994
I        5.47557609       1.59347472       9.48397592       0.00156488      -0.00221210       0.00271138
