9
Lattice="6.604163802301181 -1.1972802318596874e-08 3.812915733805319 2.201387920846754 6.226465312811013 3.8129157372097704 -1.946664147741755e-08 -9.595358310683762e-09 7.625831501327795" Properties=species:S:1:pos:R:3:forces:R:3 energy=-29.18558692932129 free_energy=-29.18558692932129 stress="0.00022755369718652219 -2.2429609281005014e-09 9.67982582977811e-10 -2.2429609281005014e-09 0.00022754774545319378 3.4001597093435976e-09 9.67982582977811e-10 3.4001597093435976e-09 0.00022755116515327245" pbc="T T T"
Mn       2.20138795       1.55661624       3.81291567      -0.00000153      -0.00000130      -0.00000053
Mn       6.60416378       4.66984911      11.43874714       0.00000056       0.00000031      -0.00000037
P        0.00000002      -0.00000005       0.00000004       0.00000010      -0.00000008       0.00000000
I        2.25311152       1.59319042       7.62583149       0.00168932       0.00119474       0.00000054
I        6.55244025       4.63327491       7.62583152      -0.00168972      -0.00119457       0.00000004
I        5.47760812       1.59319026       5.76416764      -0.00084432       0.00119496       0.00146351
I        3.32794366       4.63327491       9.48749543       0.00084508      -0.00119472      -0.00146310
I        3.32794349       4.63327502       5.76416756       0.00084500      -0.00119457       0.00146335
I        5.47760801       1.59319034       9.48749541      -0.00084448       0.00119524      -0.00146355
