9
Lattice="5.83746041308683 -1.9209181879029463e-08 3.370259214820817 1.9458201009017393 5.503610290574571 3.3702592471811816 5.565183675771151e-08 7.898497330161288e-08 6.740518333249855" Properties=species:S:1:pos:R:3:forces:R:3 energy=-35.35977554321289 free_energy=-35.35977554321289 stress="0.00010141388338524848 1.710939834254077e-08 -1.7387126405310482e-08 1.710939834254077e-08 0.00010143900726689026 3.868523723582484e-09 -1.7387126405310482e-08 3.868523723582484e-09 0.00010146496060770005" pbc="T T T"
Mn       1.94581971       1.37590341       3.37025962      -0.00000229       0.00000299       0.00000259
Mn       5.83746092       4.12770781      10.11077618       0.00000171       0.00000253      -0.00001023
P       -0.00000003      -0.00000026       0.00000037       0.00000064      -0.00000070      -0.00000304
Cl       1.93112882       1.36551399       6.74051816       0.00210635       0.00148851       0.00000012
Cl       5.85215176       4.13809618       6.74051885      -0.00210305      -0.00148927       0.00000455
Cl       4.87189610       1.36551378       5.04266599      -0.00105288       0.00148758       0.00182407
Cl       2.91138472       4.13809637       8.43837135       0.00105229      -0.00148931      -0.00182047
Cl       2.91138408       4.13809590       5.04266562       0.00104922      -0.00149046       0.00182475
Cl       4.87189620       1.36551422       8.43837108      -0.00105201       0.00148813      -0.00182220
