9
Lattice="5.837044434807903 9.19816675884219e-09 3.370019131965108 1.9456814417450343 5.503218790892829 3.3700192102475204 -1.999005671330564e-08 8.174089805234865e-08 6.740038298553995" Properties=species:S:1:pos:R:3:forces:R:3 energy=-35.35978317260742 free_energy=-35.35978317260742 stress="6.547540397150442e-05 1.1037215585929516e-08 7.095132481538258e-09 1.1037215585929516e-08 6.549050158355385e-05 1.0251217652523792e-08 7.095132481538258e-09 1.0251217652523792e-08 6.544038478750736e-05" pbc="T T T"
Mn       1.94568162       1.37580227       3.37001894       0.00000105      -0.00001308      -0.00000246
Mn       5.83704429       4.12741396      10.11005719      -0.00000260      -0.00000085      -0.00000336
P        0.00000010      -0.00000007      -0.00000020       0.00000147       0.00000019      -0.00000117
Cl       1.93126961       1.36561364       6.74003846       0.00105383       0.00074404       0.00000034
Cl       5.85145613       4.13760626       6.74003807      -0.00105625      -0.00074005       0.00000119
Cl       4.87140999       1.36561389       5.04254767      -0.00052713       0.00074798       0.00091514
Cl       2.91131592       4.13760561       8.43752939       0.00052843      -0.00074358      -0.00091431
Cl       2.91131607       4.13760577       5.04254737       0.00052685      -0.00074327       0.00091618
Cl       4.87140967       1.36561416       8.43752971      -0.00052554       0.00074863      -0.00091124
