9
Lattice="6.056193822735826 3.812064886527542e-08 3.496545077154508 2.018731296959389 5.709834172111483 3.496545100063222 -3.259227368292936e-09 2.575269717402556e-08 6.993090159954167" Properties=species:S:1:pos:R:3:forces:R:3 energy=-32.44241714477539 free_energy=-32.44241714477539 stress="9.532130206935108e-05 -3.1943361289421546e-09 -2.048108793673009e-09 -3.1943361289421546e-09 9.532637341180816e-05 -4.1530872074702074e-09 -2.048108793673009e-09 -4.1530872074702074e-09 9.531988325761631e-05" pbc="T T T"
Mn       2.01873170       1.42745747       3.49654472       0.00000230      -0.00000756      -0.00000116
Mn       6.05619513       4.28237517      10.48963571       0.00000711      -0.00000264       0.00000098
P       -0.00000002      -0.00000011       0.00000005       0.00000064       0.00000046       0.00000020
Br       2.07367573       1.46631097       6.99309022      -0.00198317      -0.00139793      -0.00000060
Br       6.00124870       4.24352420       6.99308994       0.00197913       0.00140226      -0.00000035
Br       5.01935560       1.46631050       5.29240104       0.00098819      -0.00139898      -0.00171459
Br       3.05556908       4.24352392       8.69377896      -0.00099213       0.00140252       0.00171356
Br       3.05556926       4.24352438       5.29240143      -0.00099094       0.00140310      -0.00171291
Br       5.01935530       1.46631041       8.69377929       0.00098893      -0.00140125       0.00171493
