9
Lattice="6.075413031400661 -3.6252913312501896e-08 3.507641351177768 2.0251375871631874 5.727954339500455 3.50764144781026 -2.4718382128467356e-08 1.0087159914360188e-07 7.015282745169002" Properties=species:S:1:pos:R:3:forces:R:3 energy=-33.7621955871582 free_energy=-33.7621955871582 stress="7.854426803532988e-05 -1.906874302903816e-08 -4.1266552841534576e-08 -1.906874302903816e-08 7.85759330028668e-05 4.398576436415169e-08 -4.1266552841534576e-08 4.398576436415169e-08 7.855900912545621e-05" pbc="T T T"
Mn       2.02513725       1.43198931       3.50764213       0.00000014       0.00000315       0.00000333
Mn       6.07541339       4.29596505      10.52292354       0.00000047      -0.00000387      -0.00000523
Pt       0.00000007       0.00000007       0.00000007       0.00000117      -0.00000166      -0.00000329
Br       2.01391171       1.42405109       7.01528247      -0.00137380      -0.00096922      -0.00000167
Br       6.08663901       4.30390337       7.01528293       0.00137255       0.00096903       0.00000050
Br       5.06845660       1.42405089       5.25174063       0.00068728      -0.00097276      -0.00118968
Br       3.03209392       4.30390333       8.77882489      -0.00068981       0.00097568       0.00119485
Br       3.03209323       4.30390350       5.25174015      -0.00068569       0.00096805      -0.00118728
Br       5.06845719       1.42405104       8.77882537       0.00068771      -0.00096837       0.00118853
