9
Lattice="4.709592344453851 -9.484690124067074e-08 2.7190844105622465 1.569864095001278 4.440246094216048 2.7190842900013705 5.4162772155445965e-08 -1.0935744563977262e-07 5.438168727311831" Properties=species:S:1:pos:R:3:forces:R:3 energy=-46.76798629760742 free_energy=-46.76798629760742 stress="-0.00013537777704186738 2.557156442151154e-08 4.889305671440525e-08 2.557156442151154e-08 -0.0001353545521851629 -9.689675728452585e-09 4.889305671440525e-08 -9.689675728452585e-09 -0.00013535749167203903" pbc="T T T"
Mn       1.56986412       1.11006152       2.71908438      -0.00000035       0.00000061       0.00000007
Mn       4.70959225       3.33018434       8.15725314       0.00000002       0.00000004       0.00000085
Pt      -0.00000009       0.00000014       0.00000040      -0.00000099      -0.00000574      -0.00003239
F        1.62795026       1.15113442       5.43816860       0.00105304       0.00074631       0.00000044
F        4.65150629       3.28911147       5.43816884      -0.00105202      -0.00074273       0.00000076
F        3.89561737       1.15113435       4.12893043      -0.00053060       0.00075263       0.00092047
F        2.38383924       3.28911135       6.74740682       0.00052330      -0.00074112      -0.00090569
F        2.38383925       3.28911161       4.12893025       0.00053069      -0.00074959       0.00091952
F        3.89561727       1.15113426       6.74740668      -0.00052327       0.00073978      -0.00090456
