9
Lattice="6.191317239482817 -2.160585153054723e-08 3.574558650923845 2.063772389100205 5.837229853620429 3.574558657316055 -1.5174563578992602e-08 -2.9012293989423376e-09 7.1491173281307985" Properties=species:S:1:pos:R:3:forces:R:3 energy=-31.598430633544922 free_energy=-31.598430633544922 stress="0.00015063813771121204 8.32330737665643e-09 2.803305498844111e-08 8.32330737665643e-09 0.00015062684542499483 -1.0877189815516886e-08 2.803305498844111e-08 -1.0877189815516886e-08 0.00015062156307976693" pbc="T T T"
Mn       2.06377240       1.45930743       3.57455838      -0.00000135      -0.00000015      -0.00000159
Mn       6.19131703       4.37792311      10.72367507       0.00000027       0.00000576      -0.00000673
Pb       0.00000014       0.00000015       0.00000042      -0.00000293       0.00000068      -0.00000556
Br       2.20284881       1.55764927       7.14911752      -0.00318629      -0.00225458       0.00000132
Br       6.05224095       4.27958025       7.14911753       0.00318833       0.00225364       0.00000374
Br       5.08989271       1.55764881       5.48228202       0.00159138      -0.00225452      -0.00275777
Br       3.16519701       4.27958050       8.81595298      -0.00159105       0.00225197       0.00276069
Br       3.16519670       4.27958053       5.48228193      -0.00159349       0.00225323      -0.00275829
Br       5.08989269       1.55764927       8.81595271       0.00159521      -0.00225616       0.00276420
