9
Lattice="5.789859456301685 8.46706359445285e-08 3.3427768366917117 1.9299532290295789 5.4587317640378625 3.342776841713313 8.973509742163464e-08 6.960246211766943e-08 6.685553517957701" Properties=species:S:1:pos:R:3:forces:R:3 energy=-36.729835510253906 free_energy=-36.729835510253906 stress="0.00011836798512376845 -6.448626077570907e-09 -4.028779798659343e-08 -6.448626077570907e-09 0.00011827140406239778 -3.185225239121792e-08 -4.028779798659343e-08 -3.185225239121792e-08 0.00011835110490210354" pbc="T T T"
Mn       1.92995394       1.36468265       3.34277717       0.00000666      -0.00000548       0.00000390
Mn       5.78986034       4.09405042      10.02833026       0.00000698       0.00001155      -0.00000175
Pt      -0.00000017      -0.00000003      -0.00000033       0.00000115      -0.00000081       0.00001708
Cl       1.91159246       1.35169972       6.68555373      -0.00000611      -0.00000535      -0.00000142
Cl       5.80822042       4.10703201       6.68555341       0.00000323       0.00000286       0.00000119
Cl       4.83406240       1.35169934       4.99826416       0.00000036      -0.00001012      -0.00000779
Cl       2.88574932       4.10703256       8.37284285      -0.00000042       0.00000113      -0.00000134
Cl       2.88574915       4.10703196       4.99826456      -0.00000860       0.00000802      -0.00000803
Cl       4.83406326       1.35169906       8.37284301      -0.00000320      -0.00000170      -0.00000180
