9
Lattice="4.9151636843315885 1.725603295004968e-06 2.837771860798166 1.638389295460222 4.634058500798367 2.837772252640401 -1.8465675980938612e-06 -8.258149850118194e-07 5.675546919945007" Properties=species:S:1:pos:R:3:forces:R:3 energy=-48.8359260559082 free_energy=-48.8359260559082 stress="7.480865315301344e-05 -4.713200496553327e-07 -3.706936411163042e-07 -4.713200496553327e-07 7.887606625445187e-05 1.7315941249762545e-06 -3.706936411163042e-07 1.7315941249762545e-06 7.15964924893342e-05" pbc="T T T"
Mn       1.63842603       1.15861517       2.83778694       0.00013111       0.00035582       0.00006631
Mn       4.91513740       3.47551151       8.51335552      -0.00007718      -0.00007156       0.00014413
P       -0.00000020      -0.00000885      -0.00001125      -0.00006101       0.00000328       0.00015887
F        1.34347742       0.94998091       5.67554217      -0.00260141      -0.00185183      -0.00004365
F        5.21007255       3.68405984       5.67553628       0.00263175       0.00177574      -0.00006086
F        4.24341833       0.94998398       4.00125267       0.00131097      -0.00187588      -0.00237113
F        2.31012700       3.68405489       7.34982574      -0.00130579       0.00174588       0.00223932
F        2.31012788       3.68406121       4.00124463      -0.00125553       0.00169533      -0.00227451
F        4.24341730       0.94997810       7.34983130       0.00122669      -0.00177675       0.00214136
