9
Lattice="5.103696971878659 -2.416518164196176e-07 2.9466206675407682 1.7012322082137852 4.811811261606281 2.9466204734025587 1.2913673150416688e-07 -1.4645631347798336e-07 5.893241111410179" Properties=species:S:1:pos:R:3:forces:R:3 energy=-46.34150314331055 free_energy=-46.34150314331055 stress="-0.00020762292842846364 -5.162186234031196e-09 4.9020481895922785e-08 -5.162186234031196e-09 -0.00020761694759130478 -7.121420964040226e-08 4.9020481895922785e-08 -7.121420964040226e-08 -0.00020760405459441245" pbc="T T T"
Mn       1.70123258       1.20295376       2.94661990      -0.00000002       0.00000589      -0.00000303
Mn       5.10369640       3.60885911       8.83986124      -0.00000293       0.00000253      -0.00000152
Pb      -0.00000006      -0.00000006      -0.00000012       0.00000301       0.00001353       0.00000315
F        1.75106243       1.23818728       5.89324203       0.00146336       0.00103256       0.00000187
F        5.05386786       3.57362274       5.89324151      -0.00146836      -0.00104151       0.00000136
F        4.22816575       1.23818749       4.46308471      -0.00073317       0.00103383       0.00126938
F        2.57676347       3.57362318       7.32339799       0.00073720      -0.00104282      -0.00127352
F        2.57676341       3.57362291       4.46308438       0.00073157      -0.00103576       0.00126717
F        4.22816554       1.23818718       7.32339734      -0.00073061       0.00103160      -0.00126487
