9
Lattice="6.539215987878508 -5.454168892918886e-08 3.7754181681112655 2.1797386127974008 6.165232002979358 3.7754181653509846 -6.148245695514053e-09 -7.728080240200163e-09 7.550836346871613" Properties=species:S:1:pos:R:3:forces:R:3 energy=-29.974977493286133 free_energy=-29.974977493286133 stress="-8.237487054429948e-05 -3.4263305526138765e-09 5.981607431593261e-10 -3.4263305526138765e-09 -8.237731526605785e-05 -1.4903467349114408e-09 5.981607431593261e-10 -1.4903467349114408e-09 -8.23729278636165e-05" pbc="T T T"
Mn       2.17973893       1.54130780       3.77541817       0.00000073       0.00000106       0.00000076
Mn       6.53921608       4.62392378      11.32625460       0.00000112      -0.00000128       0.00000038
Pd      -0.00000017       0.00000021       0.00000036       0.00000174      -0.00000111      -0.00000407
I        2.21617215       1.56707070       7.55083630      -0.00150733      -0.00106577       0.00000024
I        6.50278219       4.59816145       7.55083620       0.00150641       0.00106565       0.00000011
I        5.43112977       1.56707046       5.69467970       0.00075213      -0.00106474      -0.00130409
I        3.28782492       4.59816130       9.40699257      -0.00075402       0.00106631       0.00130726
I        3.28782472       4.59816141       5.69468004      -0.00075427       0.00106588      -0.00130612
I        5.43112981       1.56707065       9.40699276       0.00075346      -0.00106597       0.00130555
