9
Lattice="6.0568591761495965 -1.7597304328327917e-08 3.4969292148491236 2.018953068259287 5.710461238035593 3.4969291695843108 -3.038509749281405e-09 -5.758639965372471e-08 6.993858434961144" Properties=species:S:1:pos:R:3:forces:R:3 energy=-32.442405700683594 free_energy=-32.442405700683594 stress="0.00018363194249104708 1.871201416037138e-09 1.456261555787819e-09 1.871201416037138e-09 0.00018364556308370084 1.8685377689564575e-09 1.456261555787819e-09 1.8685377689564575e-09 0.00018364728020969778" pbc="T T T"
Mn       2.01895301       1.42761415       3.49692915      -0.00000108      -0.00000606      -0.00000120
Mn       6.05685860       4.28284601      10.49078881      -0.00000249       0.00000073       0.00000596
P       -0.00000008       0.00000024      -0.00000001       0.00000013       0.00000008      -0.00000040
Br       2.07383064       1.46641921       6.99385880      -0.00261365      -0.00185028       0.00000028
Br       6.00198188       4.24404235       6.99385798       0.00261344       0.00185084      -0.00000233
Br       5.01994420       1.46641968       5.29291875       0.00130788      -0.00184732      -0.00226578
Br       3.05586832       4.24404167       8.69479726      -0.00130732       0.00185128       0.00226543
Br       3.05586817       4.24404197       5.29291895      -0.00130600       0.00185024      -0.00226465
Br       5.01994424       1.46641935       8.69479760       0.00130909      -0.00184952       0.00226260
