9
Lattice="6.028500291933925 -8.252296244809443e-08 3.480556264860037 2.009500030984052 5.683724595488167 3.4805562449828136 -3.0190855399634035e-08 -4.569269560077799e-08 6.9611125820121575" Properties=species:S:1:pos:R:3:forces:R:3 energy=-32.945213317871094 free_energy=-32.945213317871094 stress="8.28031716082478e-06 -1.7242616223711593e-08 7.177659355761534e-09 -1.7242616223711593e-08 8.302619789901655e-06 1.1460196347456986e-08 7.177659355761534e-09 1.1460196347456986e-08 8.280480869871099e-06" pbc="T T T"
Mn       2.00950134       1.42093158       3.48055522       0.00000986       0.00000303      -0.00000683
Mn       6.02849854       4.26279319      10.44166976      -0.00001140      -0.00000166       0.00000501
Pd      -0.00000031      -0.00000020      -0.00000009       0.00000407       0.00000132      -0.00000161
Br       2.03127187       1.43632567       6.96111265      -0.00493090      -0.00348914       0.00000095
Br       6.00672882       4.24739871       6.96111227       0.00492799       0.00348646      -0.00000087
Br       5.01286455       1.43632632       5.23968911       0.00246540      -0.00348394      -0.00427193
Br       3.02513612       4.24739810       8.68253612      -0.00246558       0.00348472       0.00427476
Br       3.02513656       4.24739851       5.23968898      -0.00246214       0.00348618      -0.00427317
Br       5.01286366       1.43632598       8.68253634       0.00246265      -0.00348699       0.00427374
