9
Lattice="5.6661171061517965 -5.22879218889092e-09 3.2713341716432724 1.8887057175683701 5.342066376711101 3.271334136227136 -2.0594937983645683e-08 -5.793854193522176e-08 6.542668378957959" Properties=species:S:1:pos:R:3:forces:R:3 energy=-36.23888397216797 free_energy=-36.23888397216797 stress="2.3544387659057975e-05 1.5343742276741068e-08 2.0495981800650043e-08 1.5343742276741068e-08 2.3549860998173244e-05 3.504530710074505e-08 2.0495981800650043e-08 3.504530710074505e-08 2.3572811187477782e-05" pbc="T T T"
Mn       1.88870564       1.33551658       3.27133382       0.00000138       0.00000151      -0.00000223
Mn       5.66611745       4.00654949       9.81400233       0.00000400      -0.00000464      -0.00000579
Pd      -0.00000011       0.00000011       0.00000003       0.00000171      -0.00000251      -0.00000726
Cl       1.91277073       1.35253373       6.54266831      -0.00676200      -0.00477749       0.00000117
Cl       5.64205150       3.98953289       6.54266881       0.00676058       0.00478004       0.00000128
Cl       4.70973158       1.35253299       4.92784199       0.00337734      -0.00477647      -0.00584848
Cl       2.84509138       3.98953274       8.15749473      -0.00338305       0.00477991       0.00585728
Cl       2.84509119       3.98953330       4.92784204      -0.00337912       0.00477776      -0.00584955
Cl       4.70973186       1.35253337       8.15749464       0.00337925      -0.00477819       0.00585342
