9
Lattice="6.532674945451398 3.4937010931575847e-09 3.771641563459371 2.1775582831066633 6.159065020572599 3.7716416246661226 -5.747904336731998e-08 3.431884130013205e-08 7.543283226475411" Properties=species:S:1:pos:R:3:forces:R:3 energy=-32.376468658447266 free_energy=-32.376468658447266 stress="-0.00010860541806323454 -1.102794855434297e-09 -5.578276951467842e-09 -1.102794855434297e-09 -0.00010860918700927868 1.702285645777124e-09 -5.578276951467842e-09 1.702285645777124e-09 -0.0001086141710402444" pbc="T T T"
Mn       2.17755838       1.53976579       3.77164178       0.00000108      -0.00000080       0.00000084
Mn       6.53267492       4.61929914      11.31492488      -0.00000059      -0.00000029       0.00000114
Rh      -0.00000008      -0.00000010       0.00000003       0.00000051       0.00000091      -0.00000084
I        2.17795211       1.54004458       7.54328311      -0.00451698      -0.00319391      -0.00000015
I        6.53228107       4.61902062       7.54328311       0.00451640       0.00319428      -0.00000023
I        5.44369866       1.54004473       5.65780329       0.00225877      -0.00319476      -0.00391169
I        3.26653434       4.61902053       9.42876307      -0.00225869       0.00319431       0.00391108
I        3.26653436       4.61902038       5.65780327      -0.00225839       0.00319424      -0.00391094
I        5.44369892       1.54004453       9.42876310       0.00225789      -0.00319400       0.00391077
