9
Lattice="5.715749185983178 -3.78713990395981e-08 3.299989400887999 1.9052496637414884 5.388860026817478 3.2999894514882095 2.7527667108216264e-08 8.143735545351495e-08 6.599978754096698" Properties=species:S:1:pos:R:3:forces:R:3 energy=-39.91755676269531 free_energy=-39.91755676269531 stress="0.00018016915419138968 -2.1724510190779256e-08 3.799415893013247e-08 -2.1724510190779256e-08 0.00018016282410826534 1.996800946812982e-08 3.799415893013247e-08 1.996800946812982e-08 0.0001802383194444701" pbc="T T T"
Mn       1.90524908       1.34721439       3.29998962      -0.00000260      -0.00000732       0.00000322
Mn       5.71574984       4.04164504       9.89996759       0.00000342      -0.00000064      -0.00000795
Ru      -0.00000027       0.00000003       0.00000007       0.00000491      -0.00000174       0.00000011
Cl       1.92336109       1.36002185       6.59997887      -0.00525290      -0.00371218      -0.00000115
Cl       5.69763778       4.02883869       6.59997909       0.00524902       0.00371313       0.00000295
Cl       4.75406827       1.36002150       4.96566914       0.00262625      -0.00371403      -0.00454636
Cl       2.86693052       4.02883870       8.23428833      -0.00262731       0.00371915       0.00455038
Cl       2.86693025       4.02883815       4.96566940      -0.00263031       0.00371708      -0.00455132
Cl       4.75406901       1.36002200       8.23428827       0.00262947      -0.00371343       0.00454995
