9
Lattice="4.723830162165545 -2.1475808157233646e-08 2.727304667281584 1.5746100049170295 4.453669890366645 2.727304717321526 -3.742350699976486e-08 3.482371767592739e-08 5.454609399382601" Properties=species:S:1:pos:R:3:forces:R:3 energy=-51.12916564941406 free_energy=-51.12916564941406 stress="0.00034819685970433056 1.8932635015289634e-08 1.091144508080788e-08 1.8932635015289634e-08 0.000348171015502885 -1.1881134298619145e-08 1.091144508080788e-08 -1.1881134298619145e-08 0.0003481485473457724" pbc="T T T"
Mn       1.57460954       1.11341757       2.72730485      -0.00000181       0.00000068       0.00000093
Mn       4.72382980       3.34025226       8.18191410      -0.00000177      -0.00000143       0.00000131
Ru      -0.00000016       0.00000002       0.00000010       0.00000527      -0.00000319      -0.00000173
F        1.61656537       1.14308426       5.45460955      -0.00564389      -0.00399099      -0.00000053
F        4.68187478       3.31058556       5.45460931       0.00564389       0.00399061      -0.00000023
F        3.91554776       1.14308422       4.12729098       0.00282064      -0.00398715      -0.00488405
F        2.38289263       3.31058576       6.78192747      -0.00282183       0.00399042       0.00488721
F        2.38289295       3.31058556       4.12729110      -0.00282203       0.00399040      -0.00488907
F        3.91554776       1.14308431       6.78192762       0.00282151      -0.00398935       0.00488627
