9
Lattice="5.780810641933995 1.5553423456265444e-07 3.3375525417082117 1.9269369877239673 5.45020050440492 3.3375526102277777 8.656073440457083e-08 1.4512666596140852e-07 6.675104933488836" Properties=species:S:1:pos:R:3:forces:R:3 energy=-43.163028717041016 free_energy=-43.163028717041016 stress="0.00020999346452299505 4.662570773916741e-09 4.736531522553378e-08 4.662570773916741e-09 0.0002099836419802159 -1.281528216878769e-09 4.736531522553378e-08 -1.281528216878769e-09 0.00020995222439523786" pbc="T T T"
Mn       1.92693488       1.36254817       3.33755316      -0.00001089      -0.00001228       0.00000508
Mn       5.78081166       4.08765097      10.01265650       0.00000411       0.00000273      -0.00000569
Re       0.00000018       0.00000029       0.00000012       0.00000072      -0.00000058       0.00000234
Cl       1.94053067       1.37216265       6.67510457      -0.00304747      -0.00215210      -0.00000331
Cl       5.76721744       4.07803863       6.67510567       0.00304683       0.00215451       0.00000375
Cl       4.81054556       1.37216177       5.01810161       0.00152498      -0.00215691      -0.00263393
Cl       2.89720246       4.07803907       8.33210886      -0.00152062       0.00215758       0.00263247
Cl       2.89720239       4.07803926       5.01810153      -0.00152479       0.00216074      -0.00263473
Cl       4.81054562       1.37216236       8.33210831       0.00152715      -0.00215361       0.00263396
