9
Lattice="6.076374207671953 6.569605313454181e-09 3.508196270310741 2.0254580865619487 5.7288604704524095 3.508196251008617 -1.7446744680354795e-08 -3.597687855221274e-08 7.016392570840108" Properties=species:S:1:pos:R:3:forces:R:3 energy=-36.643611907958984 free_energy=-36.643611907958984 stress="0.00011197544517926872 3.361607658902699e-09 -9.656906385657749e-10 3.361607658902699e-09 0.00011196643754374236 3.1055165106153026e-09 -9.656906385657749e-10 3.1055165106153026e-09 0.00011196429113624617" pbc="T T T"
Mn       2.02545812       1.43221484       3.50819590      -0.00000152      -0.00000169      -0.00000260
Mn       6.07637222       4.29664549      10.52458954      -0.00001291       0.00000226       0.00000540
Ru       0.00000029       0.00000054      -0.00000007      -0.00000142      -0.00000636      -0.00000385
Br       2.02714969       1.43341064       7.01639254      -0.00277243      -0.00196563       0.00000052
Br       6.07468263       4.29544938       7.01639208       0.00278104       0.00196613      -0.00000174
Br       5.06280007       1.43341120       5.26375904       0.00138928      -0.00196089      -0.00240460
Br       3.03903312       4.29544936       8.76902615      -0.00138679       0.00196560       0.00240965
Br       3.03903347       4.29544941       5.26375904      -0.00138409       0.00196444      -0.00240838
Br       5.06279948       1.43341091       8.76902614       0.00138879      -0.00196393       0.00240565
