9
Lattice="5.7153478750371445 4.611366514002713e-08 3.2997576659304064 1.9051160078736706 5.388481676540186 3.299757655448818 -1.2939903351966654e-08 -2.1987171664609055e-08 6.599515354273377" Properties=species:S:1:pos:R:3:forces:R:3 energy=-39.91756057739258 free_energy=-39.91756057739258 stress="9.923256584443152e-05 1.2763100798451887e-08 3.079300014974251e-08 1.2763100798451887e-08 9.91757187875919e-05 2.5433847028466516e-08 3.079300014974251e-08 2.5433847028466516e-08 9.916508861351758e-05" pbc="T T T"
Mn       1.90511696       1.34712078       3.29975744       0.00000868       0.00000103      -0.00000196
Mn       5.71534751       4.04136207       9.89927378      -0.00000386       0.00000389       0.00000648
Ru       0.00000027      -0.00000021      -0.00000038      -0.00000413      -0.00000249       0.00000745
Cl       1.92326083       1.35995031       6.59951527      -0.00430717      -0.00304919      -0.00000018
Cl       5.69720275       4.02853118       6.59951507       0.00431238       0.00305146      -0.00000208
Cl       4.75371726       1.35995083       4.96535032       0.00215355      -0.00304934      -0.00373480
Cl       2.86674609       4.02853079       8.23368074      -0.00215614       0.00304466       0.00373235
Cl       2.86674660       4.02853056       4.96534992      -0.00215447       0.00304855      -0.00373812
Cl       4.75371719       1.35995050       8.23368049       0.00215115      -0.00304864       0.00373068
