9
Lattice="6.011904227880663 8.770611741733195e-08 3.4709745628051287 2.003968179497399 5.66807774111632 3.4709745266969545 3.639577387641546e-08 -1.8487583782303185e-08 6.941949062570938" Properties=species:S:1:pos:R:3:forces:R:3 energy=-35.54573440551758 free_energy=-35.54573440551758 stress="-2.2555470422958024e-05 8.889557534530468e-09 -1.0339984868323882e-08 8.889557534530468e-09 -2.2578276912099682e-05 -4.61470994750357e-09 -1.0339984868323882e-08 -4.61470994750357e-09 -2.258924905618187e-05" pbc="T T T"
Mn       2.00396932       1.41702020       3.47097435       0.00001084       0.00000665      -0.00000009
Mn       6.01190319       4.25105815      10.41292216      -0.00000793      -0.00000194      -0.00001193
Rh       0.00000056      -0.00000017      -0.00000024      -0.00000696      -0.00000217       0.00000118
Br       1.99913647       1.41360258       6.94194892      -0.00070766      -0.00050259       0.00000067
Br       6.01673606       4.25447502       6.94195005       0.00071248       0.00050390       0.00000477
Br       5.01233596       1.41360280       5.20227723       0.00035300      -0.00050258      -0.00061576
Br       3.00353644       4.25447474       8.68162172      -0.00035199       0.00049835       0.00061725
Br       3.00353606       4.25447485       5.20227718      -0.00035477       0.00049947      -0.00061399
Br       5.01233574       1.41360311       8.68162126       0.00035297      -0.00049909       0.00061776
