9
Lattice="4.723482666116283 -1.4179564476487537e-07 2.7271039087451827 1.5744941085411626 4.4533420110413475 2.727103873777461 -3.220852431223041e-08 -6.560140976300819e-08 5.454207873277162" Properties=species:S:1:pos:R:3:forces:R:3 energy=-51.129173278808594 free_energy=-51.129173278808594 stress="0.00022345097386278212 1.6194146468251347e-08 3.2258178350730304e-08 1.6194146468251347e-08 0.00022345507750287652 -3.030158524097715e-08 3.2258178350730304e-08 -3.030158524097715e-08 0.000223446506424807" pbc="T T T"
Mn       1.57449410       1.11333550       2.72710397      -0.00000029       0.00000035       0.00000009
Mn       4.72348256       3.34000649       8.18131142       0.00000009       0.00000158      -0.00000103
Ru      -0.00000005      -0.00000025      -0.00000001       0.00000157       0.00001007       0.00000009
F        1.61648757       1.14302904       5.45420777      -0.00436039      -0.00308344       0.00000032
F        4.68148937       3.31031272       5.45420791       0.00435503       0.00307946       0.00000043
F        3.91523903       1.14302858       4.12702299       0.00217845      -0.00308175      -0.00377260
F        2.38273768       3.31031301       6.78139323      -0.00217659       0.00307794       0.00376855
F        2.38273779       3.31031265       4.12702273      -0.00217802       0.00307900      -0.00377254
F        3.91523895       1.14302926       6.78139262       0.00218014      -0.00308333       0.00377668
