9
Lattice="5.686118571153355 3.73994939335603e-09 3.2828821613273735 1.8953728254333617 5.360923925023761 3.282882222198231 1.2777421163284543e-07 1.6490129552181403e-07 6.565764101343305" Properties=species:S:1:pos:R:3:forces:R:3 energy=-38.77406311035156 free_energy=-38.77406311035156 stress="1.1740070476662368e-05 -1.601681098861718e-08 -2.8695481546492374e-08 -1.601681098861718e-08 1.1729210200428497e-05 -2.004478893979922e-08 -2.8695481546492374e-08 -2.004478893979922e-08 1.157332462753402e-05" pbc="T T T"
Mn       1.89537341       1.34023054       3.28288184       0.00000302      -0.00000034      -0.00000301
Mn       5.68611854       4.02069348       9.84864771      -0.00000246      -0.00000008       0.00000782
Rh      -0.00000014      -0.00000002      -0.00000039      -0.00000113       0.00000051       0.00000092
Cl       1.89726433       1.34156847       6.56576437      -0.00283475      -0.00200608       0.00000268
Cl       5.68422707       4.01935553       6.56576389       0.00283648       0.00200860      -0.00000697
Cl       4.73748627       1.34156864       4.92596076       0.00141657      -0.00200371      -0.00245558
Cl       2.84400525       4.01935578       8.20556749      -0.00141878       0.00200459       0.00245339
Cl       2.84400493       4.01935544       4.92596075      -0.00141401       0.00200513      -0.00245412
Cl       4.73748652       1.34156852       8.20556754       0.00141498      -0.00200881       0.00245485
