9
Lattice="6.533628751275192 1.5926358895478264e-08 3.7721922839358535 2.177876308999416 6.1599642197943 3.7721922084897352 3.271871679536377e-08 -6.926662581264903e-08 7.544384511201209" Properties=species:S:1:pos:R:3:forces:R:3 energy=-32.376487731933594 free_energy=-32.376487731933594 stress="-4.512182204052806e-05 -2.6234134864466796e-09 3.2941471772574005e-09 -2.6234134864466796e-09 -4.5119777496438473e-05 -4.278990051176379e-09 3.2941471772574005e-09 -4.278990051176379e-09 -4.510864528128877e-05" pbc="T T T"
Mn       2.17787665       1.53999104       3.77219218       0.00000249       0.00000040      -0.00000066
Mn       6.53362909       4.61997340      11.31657621       0.00000098       0.00000103      -0.00000309
Rh       0.00000019      -0.00000001       0.00000059      -0.00000125       0.00000001      -0.00000783
I        2.17774015       1.53989483       7.54438467      -0.00061689      -0.00043608      -0.00000011
I        6.53376467       4.62006918       7.54438467       0.00061785       0.00043638       0.00000029
I        5.44475865       1.53989436       5.65817029       0.00030566      -0.00043645      -0.00053277
I        3.26674641       4.62006924       9.43059849      -0.00030986       0.00043789       0.00053800
I        3.26674608       4.62006957       5.65817050      -0.00030857       0.00043553      -0.00053256
I        5.44475847       1.53989505       9.43059840       0.00030952      -0.00043874       0.00053867
