9
Lattice="5.684169385792416 -2.5259102044575857e-08 3.281756797722472 1.8947231082980105 5.359086334636432 3.281756791634233 4.277016470795359e-09 -4.4322327892747e-09 6.56351358803694" Properties=species:S:1:pos:R:3:forces:R:3 energy=-38.77402114868164 free_energy=-38.77402114868164 stress="-0.00039577382267452776 -1.8890004227500867e-08 -2.1754247292449236e-09 -1.8890004227500867e-08 -0.00039575519622303545 -3.441727569608588e-09 -2.1754247292449236e-09 -3.441727569608588e-09 -0.0003957449516747147" pbc="T T T"
Mn       1.89472305       1.33977168       3.28175687      -0.00000249       0.00000124       0.00000011
Mn       5.68416938       4.01931479       9.84527025       0.00000125       0.00000071      -0.00000252
Rh       0.00000004       0.00000015       0.00000010       0.00000087      -0.00000305       0.00000007
Cl       1.89675280       1.34120676       6.56351361       0.00116526       0.00082324      -0.00000064
Cl       5.68213958       4.01787940       6.56351366      -0.00116301      -0.00082296       0.00000120
Cl       4.73579290       1.34120681       4.92439302      -0.00058128       0.00082164       0.00100799
Cl       2.84309963       4.01787945       8.20263400       0.00057993      -0.00082137      -0.00100473
Cl       2.84309958       4.01787934       4.92439308       0.00058012      -0.00082190       0.00100610
Cl       4.73579302       1.34120683       8.20263411      -0.00058052       0.00082245      -0.00100765
