9
Lattice="6.173985213801413 1.5953907808661063e-07 3.5645520619139193 2.0579952371197994 5.820889164306799 3.5645520351749 7.072409199981452e-08 1.7260984191285447e-08 7.129104001330124" Properties=species:S:1:pos:R:3:forces:R:3 energy=-39.43244171142578 free_energy=-39.43244171142578 stress="0.00022886463557370007 3.109193613681782e-08 1.0628222746333904e-09 3.109193613681782e-08 0.00022883347992319614 -6.421732923200807e-09 1.0628222746333904e-09 -6.421732923200807e-09 0.00022881866607349366" pbc="T T T"
Mn       2.05799504       1.45522275       3.56455265      -0.00000087       0.00000261       0.00000323
Mn       6.17398491       4.36566724      10.69365551      -0.00000154       0.00000190      -0.00000123
Re       0.00000008       0.00000020      -0.00000043       0.00000143      -0.00000216       0.00000533
Br       2.04480474       1.44589517       7.12910389      -0.00285285      -0.00201966      -0.00000070
Br       6.18717589       4.37499383       7.12910430       0.00285526       0.00201781       0.00000044
Br       5.15158312       1.44589501       5.33540448       0.00142579      -0.00201715      -0.00246912
Br       3.08039742       4.37499432       8.92280383      -0.00142413       0.00201360       0.00246816
Br       3.08039728       4.37499386       5.33540448      -0.00142727       0.00201733      -0.00247225
Br       5.15158362       1.44589497       8.92280373       0.00142420      -0.00201433       0.00246624
