9
Lattice="6.01187229668071 -1.4682135594592124e-07 3.4709561885428033 2.0039573423297923 5.668047559894248 3.4709561044909196 5.957688707241976e-08 -6.081490611742064e-08 6.941912273895422" Properties=species:S:1:pos:R:3:forces:R:3 energy=-35.54573440551758 free_energy=-35.54573440551758 stress="-2.9922395697212778e-05 -4.3486355849609026e-08 -2.458926395831895e-09 -4.3486355849609026e-08 -2.989189488289412e-05 1.380004444051508e-09 -2.458926395831895e-09 1.380004444051508e-09 -2.9849297789041884e-05" pbc="T T T"
Mn       2.00395739       1.41701122       3.47095652       0.00000026      -0.00000439       0.00000311
Mn       6.01187151       4.25103538      10.41286708      -0.00000610      -0.00000218      -0.00000685
Rh       0.00000009      -0.00000016       0.00000035       0.00000396       0.00000329      -0.00000408
Br       1.99911341       1.41358637       6.94191228      -0.00045115      -0.00032065       0.00000010
Br       6.01671638       4.25446121       6.94191265       0.00044745       0.00031768       0.00000104
Br       5.01231536       1.41358644       5.20223927       0.00022618      -0.00031865      -0.00039210
Br       3.00351478       4.25446095       8.68158551      -0.00022474       0.00032381       0.00039577
Br       3.00351415       4.25446090       5.20223939      -0.00022612       0.00032111      -0.00039155
Br       5.01231573       1.41358708       8.68158524       0.00023012      -0.00032006       0.00039456
