9
Lattice="6.647123902875786 -3.628525489938904e-09 3.8377187733224423 2.2157079750804325 6.266968508298279 3.8377187544844413 2.096534502462892e-08 -8.247062656081771e-09 7.6754375103318955" Properties=species:S:1:pos:R:3:forces:R:3 energy=-35.89598083496094 free_energy=-35.89598083496094 stress="8.418576908297837e-05 1.6176686656876882e-08 1.4079486909679417e-08 1.6176686656876882e-08 8.416733180638403e-05 -2.0127169264583245e-08 1.4079486909679417e-08 -2.0127169264583245e-08 8.416437776759267e-05" pbc="T T T"
Mn       2.21570785       1.56674169       3.83771877      -0.00000059      -0.00000014      -0.00000029
Mn       6.64712415       4.70022655      11.51315600       0.00000127       0.00000182      -0.00000067
Re      -0.00000019      -0.00000032       0.00000013       0.00000216       0.00000349      -0.00000023
I        2.20644924       1.56019523       7.67543752      -0.00301535      -0.00213209      -0.00000039
I        6.65638316       4.70677387       7.67543766       0.00301044       0.00212924      -0.00000028
I        5.54389933       1.56019493       5.74855968       0.00150583      -0.00212905      -0.00260652
I        3.31893243       4.70677351       9.60231545      -0.00150443       0.00212862       0.00260590
I        3.31893233       4.70677346       5.74855963      -0.00150633       0.00212950      -0.00260652
I        5.54389928       1.56019508       9.60231528       0.00150702      -0.00213137       0.00260900
