9
Lattice="4.959830257579539 2.528106165617823e-07 2.8635592897374775 1.6532770524778106 4.676172790955486 2.8635591830447122 9.928584804836917e-08 -6.046575501544884e-08 5.727118407506808" Properties=species:S:1:pos:R:3:forces:R:3 energy=-54.89435577392578 free_energy=-54.89435577392578 stress="-1.3315916476130951e-05 4.1447169252251115e-08 -1.8969892323639215e-08 4.1447169252251115e-08 -1.3365273844101466e-05 3.1863574889712254e-08 -1.8969892323639215e-08 3.1863574889712254e-08 -1.3388256775215268e-05" pbc="T T T"
Mn       1.65327696       1.16904257       2.86355950       0.00000036      -0.00000177       0.00000073
Mn       4.95983126       3.50712878       8.59067807       0.00000138      -0.00000309       0.00000108
Re      -0.00000040      -0.00000006       0.00000039       0.00000421       0.00000146       0.00000001
F        1.63086373       1.15319529       5.72711784      -0.00024601      -0.00017186      -0.00000013
F        4.98224313       3.52297817       5.72711797       0.00024215       0.00017195      -0.00000008
F        4.14439800       1.15319561       4.27592874       0.00012102      -0.00017075      -0.00021058
F        2.46870888       3.52297799       7.17830818      -0.00012163       0.00017142       0.00020945
F        2.46870920       3.52297822       4.27592885      -0.00012066       0.00017085      -0.00020786
F        4.14439875       1.15319529       7.17830805       0.00011916      -0.00016821       0.00020741
