9
Lattice="4.777269798427914 -9.867024482913189e-08 2.7581580720478533 1.5924231814834053 4.504053118121186 2.7581580575541174 1.6704060628272217e-08 -5.939573731673353e-09 5.516316115163422" Properties=species:S:1:pos:R:3:forces:R:3 energy=-49.22730255126953 free_energy=-49.22730255126953 stress="0.0002482974377926439 -6.534748564490656e-08 1.0394463956231448e-08 -6.534748564490656e-08 0.00024834147188812494 -1.6367744493095415e-08 1.0394463956231448e-08 -1.6367744493095415e-08 0.00024838821263983846" pbc="T T T"
Mn       1.59242343       1.12601323       2.75815756      -0.00000072      -0.00000091      -0.00000279
Mn       4.77726938       3.37803972       8.27447407      -0.00000079       0.00000039       0.00000001
Rh       0.00000016      -0.00000004       0.00000019      -0.00000366       0.00000082       0.00000099
F        1.61836188       1.14435442       5.51631647      -0.00035840      -0.00025512       0.00000144
F        4.75133101       3.35969863       5.51631615       0.00036180       0.00025614      -0.00000048
F        3.96808905       1.14435463       4.15970069       0.00018221      -0.00025737      -0.00031534
F        2.40160412       3.35969845       6.87293168      -0.00018115       0.00025621       0.00031553
F        2.40160413       3.35969859       4.15970077      -0.00018138       0.00025699      -0.00031571
F        3.96808890       1.14435452       6.87293166       0.00018191      -0.00025727       0.00031620
