9
Lattice="4.777235099040873 6.349519081923424e-08 2.7581379736060443 1.5924117857291369 4.504020237062079 2.7581379282522898 1.5037838307806445e-07 5.078677918183423e-08 5.516275686749079" Properties=species:S:1:pos:R:3:forces:R:3 energy=-49.22730255126953 free_energy=-49.22730255126953 stress="0.00024076762201730162 -4.972408262915451e-08 1.7760664050570085e-08 -4.972408262915451e-08 0.0002407981810392812 -4.5818975280553786e-08 1.7760664050570085e-08 -4.5818975280553786e-08 0.00024084457254502922" pbc="T T T"
Mn       1.59241167       1.12600542       2.75813791       0.00000037       0.00000153       0.00000048
Mn       4.77723534       3.37801524       8.27441393       0.00000067       0.00000045       0.00000043
Rh       0.00000000      -0.00000010      -0.00000004       0.00000431      -0.00000490      -0.00000692
F        1.61835843       1.14435215       5.51627586      -0.00034571      -0.00024307       0.00000058
F        4.75128875       3.35966810       5.51627575       0.00034505       0.00024192      -0.00000105
F        3.96805570       1.14435198       4.15967717       0.00017159      -0.00024286      -0.00029667
F        2.40159125       3.35966818       6.87287433      -0.00017509       0.00024693       0.00030321
F        2.40159105       3.35966806       4.15967743      -0.00017470       0.00024696      -0.00030175
F        3.96805602       1.14435212       6.87287409       0.00017367      -0.00024705       0.00030166
