9
Lattice="6.556822414069058 -8.533808958072845e-08 3.7855833093963143 2.1856074002662824 6.181831510847855 3.785583293171419 9.165066148425553e-10 -1.9223275419754302e-08 7.571166617205187" Properties=species:S:1:pos:R:3:forces:R:3 energy=-33.15415954589844 free_energy=-33.15415954589844 stress="-7.691987411817536e-05 -8.244765759002348e-09 7.8080395482516e-09 -8.244765759002348e-09 -7.692354847677052e-05 -6.337384506061028e-10 7.8080395482516e-09 -6.337384506061028e-10 -7.69347752793692e-05" pbc="T T T"
Mn       2.18560775       1.54545770       3.78558332       0.00000179      -0.00000005      -0.00000002
Mn       6.55682205       4.63637332      11.35675012      -0.00000210      -0.00000028       0.00000222
Ru      -0.00000023      -0.00000001       0.00000022      -0.00000049       0.00000077       0.00000085
I        2.19124607       1.54944499       7.57116667      -0.00530325      -0.00375101       0.00000001
I        6.55118393       4.63238676       7.57116654       0.00530207       0.00375066      -0.00000096
I        5.46119925       1.54944510       5.68325804       0.00265192      -0.00374961      -0.00459414
I        3.28123059       4.63238631       9.45907483      -0.00265104       0.00375021       0.00459373
I        3.28123069       4.63238623       5.68325815      -0.00265065       0.00375052      -0.00459487
I        5.46119917       1.54944522       9.45907500       0.00265178      -0.00375118       0.00459319
