9
Lattice="6.71558835789284 -3.881219048278856e-08 3.8772467589771287 2.238529469888762 6.331517343207347 3.8772466657056848 4.638312206742673e-08 -8.143584347882626e-08 7.754493437616282" Properties=species:S:1:pos:R:3:forces:R:3 energy=-26.602664947509766 free_energy=-26.602664947509766 stress="0.0002097073884215206 -4.59812365960488e-09 1.2819165728927828e-09 -4.59812365960488e-09 0.0002097110846079886 -1.3428876899368447e-09 1.2819165728927828e-09 -1.3428876899368447e-09 0.00020970935293007642" pbc="T T T"
Mn       2.23852944       1.58287960       3.87724660      -0.00000001      -0.00000016      -0.00000018
Mn       6.71558854       4.74863755      11.63174080       0.00000045      -0.00000013       0.00000160
Se      -0.00000014      -0.00000008      -0.00000013       0.00000023       0.00000029       0.00000013
I        2.35734831       1.66689710       7.75449347      -0.00558596      -0.00394965      -0.00000012
I        6.59676977       4.66462030       7.75449301       0.00558533       0.00394944      -0.00000021
I        5.53691429       1.66689712       5.91877010       0.00279338      -0.00394942      -0.00483810
I        3.41720348       4.66462023       9.59021668      -0.00279319       0.00394979       0.00483715
I        3.41720372       4.66462030       5.91877037      -0.00279348       0.00394991      -0.00483768
I        5.53691409       1.66689671       9.59021658       0.00279325      -0.00395004       0.00483745
