9
Lattice="5.94626073001048 2.6758765167161754e-07 3.433075658388949 1.982087145004838 5.6061878763196535 3.4330756883234983 7.479326962847129e-09 4.195086334600166e-08 6.866151303823292" Properties=species:S:1:pos:R:3:forces:R:3 energy=-35.46955490112305 free_energy=-35.46955490112305 stress="0.0003682644746731967 3.467336640028407e-08 -1.377203950880812e-08 3.467336640028407e-08 0.00036823246045969427 -1.5838054423511494e-08 -1.377203950880812e-08 -1.5838054423511494e-08 0.00036825548158958554" pbc="T T T"
Mn       1.98208851       1.40154797       3.43307512       0.00000426       0.00000152      -0.00000070
Mn       5.94625852       4.20463920      10.29922624      -0.00001200      -0.00000814      -0.00000587
Sb      -0.00000005       0.00000009       0.00000016       0.00000067       0.00000407       0.00000157
Cl       2.02844761       1.43432863       6.86615155      -0.00696017      -0.00492328       0.00000146
Cl       5.89990117       4.17185994       6.86615151       0.00696009       0.00492088       0.00000145
Cl       4.93203755       1.43432875       5.18976227       0.00347861      -0.00491598      -0.00602926
Cl       2.99631057       4.17185955       8.54254049      -0.00347301       0.00491695       0.00602922
Cl       2.99631032       4.17185970       5.18976259      -0.00347621       0.00491823      -0.00602902
Cl       4.93203739       1.43432890       8.54254066       0.00347778      -0.00491409       0.00603117
