9
Lattice="6.765184079937389 -6.270577522634778e-08 3.9058808536039167 2.2550612884267704 6.378276743937057 3.9058808751381555 -1.2006201058202596e-08 1.7884243922970852e-08 7.811761728003198" Properties=species:S:1:pos:R:3:forces:R:3 energy=-28.904123306274414 free_energy=-28.904123306274414 stress="0.00015690986765548587 -2.6360107430178914e-09 3.6175997752962985e-09 -2.6360107430178914e-09 0.00015690908185206354 -9.481068152794592e-10 3.6175997752962985e-09 -9.481068152794592e-10 0.00015690540021751076" pbc="T T T"
Mn       2.25506152       1.59456914       3.90588088       0.00000202       0.00000002       0.00000029
Mn       6.76518387       4.78370747      11.71764225      -0.00000071       0.00000021      -0.00000283
Sn      -0.00000012      -0.00000003      -0.00000029       0.00000095      -0.00000104       0.00000113
I        2.35941495       1.66835829       7.81176171      -0.00376747      -0.00266388      -0.00000029
I        6.66083054       4.70991856       7.81176176       0.00376736       0.00266381       0.00000130
I        5.58547652       1.66835839       5.94919414       0.00188225      -0.00266440      -0.00326261
I        3.43476879       4.70991850       9.67432953      -0.00188233       0.00266341       0.00326325
I        3.43476887       4.70991829       5.94919429      -0.00188497       0.00266468      -0.00326283
I        5.58547650       1.66835820       9.67432956       0.00188289      -0.00266285       0.00326258
