9
Lattice="4.955332755447602 5.9199710126267414e-08 2.860962953892646 1.6517776832634266 4.671932032330144 2.8609628806264973 1.52427946262457e-07 1.8050631401278423e-08 5.7219256437723365" Properties=species:S:1:pos:R:3:forces:R:3 energy=-43.85857391357422 free_energy=-43.85857391357422 stress="1.8748560250969604e-05 -5.587278906205029e-08 -3.7642813310867496e-08 -5.587278906205029e-08 1.879546107375063e-05 5.6633808753758785e-08 -3.7642813310867496e-08 5.6633808753758785e-08 1.8682554582483135e-05" pbc="T T T"
Mn       1.65177724       1.16798256       2.86096284      -0.00000289      -0.00000400       0.00000037
Mn       4.95533456       3.50394940       8.58288903       0.00000962       0.00000232       0.00000091
Se       0.00000010       0.00000003      -0.00000000      -0.00000053      -0.00000167      -0.00000078
F        1.64876672       1.16585452       5.72192538      -0.00089682      -0.00063109      -0.00000046
F        4.95834344       3.50607805       5.72192574       0.00089603       0.00063369       0.00000033
F        4.13094936       1.16585385       4.28883788       0.00045154      -0.00063901      -0.00077790
F        2.47616042       3.50607834       7.15501323      -0.00045438       0.00063974       0.00077719
F        2.47616092       3.50607844       4.28883774      -0.00045073       0.00063595      -0.00077321
F        4.13094943       1.16585337       7.15501421       0.00044818      -0.00063599       0.00077370
