9
Lattice="5.110063620923587 1.9054733356143335e-07 2.950296558607169 1.7033546374805928 4.817814873064848 2.950296701461607 6.688775464518395e-08 2.222569899974178e-07 5.900593001361412" Properties=species:S:1:pos:R:3:forces:R:3 energy=-48.16801452636719 free_energy=-48.16801452636719 stress="-0.00031629399745725095 2.2980977121278556e-08 2.0726025340422893e-08 2.2980977121278556e-08 -0.0003161222266498953 -2.3331486076472174e-08 2.0726025340422893e-08 -2.3331486076472174e-08 -0.00031629379373043776" pbc="T T T"
Mn       1.70335463       1.20445356       2.95029622      -0.00000015      -0.00000128      -0.00000189
Mn       5.11006339       3.61336160       8.85089069      -0.00000114       0.00000036       0.00000542
Sn       0.00000018       0.00000002       0.00000017      -0.00000263       0.00000395       0.00000554
F        1.63910726       1.15902408       5.90059315       0.00645342       0.00456250       0.00000071
F        5.17431112       3.65879113       5.90059272      -0.00645372      -0.00456277      -0.00000257
F        4.29051025       1.15902436       4.36980509      -0.00322586       0.00456384       0.00558797
F        2.52290812       3.65879102       7.43138125       0.00322905      -0.00456661      -0.00559443
F        2.52290834       3.65879112       4.36980492       0.00322780      -0.00456175       0.00558817
F        4.29051000       1.15902433       7.43138091      -0.00322673       0.00456175      -0.00558892
