9
Lattice="5.9448533524892735 -6.094781666242698e-10 3.432262749830356 1.9816178717359523 5.604861337426134 3.4322625971544056 1.1380924951638461e-07 -1.0651381157751916e-07 6.864525302537313" Properties=species:S:1:pos:R:3:forces:R:3 energy=-35.4696159362793 free_energy=-35.4696159362793 stress="7.026160164969042e-05 1.658652060143595e-08 4.4062051784976575e-08 1.658652060143595e-08 7.028027903288603e-05 -3.277303761706207e-08 4.4062051784976575e-08 -3.277303761706207e-08 7.029301923466846e-05" pbc="T T T"
Mn       1.98161953       1.40121414       3.43226347       0.00000878      -0.00000502       0.00000278
Mn       5.94485394       4.20364585      10.29678787       0.00000282      -0.00000197       0.00000209
Sb       0.00000037      -0.00000021      -0.00000042      -0.00000862       0.00000360       0.00000271
Cl       2.02716423       1.43342208       6.86452511      -0.00006458      -0.00004305      -0.00000204
Cl       5.89930628       4.17143981       6.86452519       0.00006478       0.00005068      -0.00000006
Cl       4.93127051       1.43342139       5.18783820       0.00002711      -0.00004593      -0.00005758
Cl       2.99519969       4.17144044       8.54121226      -0.00002954       0.00004359       0.00004812
Cl       2.99520001       4.17143954       5.18783853      -0.00003232       0.00004618      -0.00005700
Cl       4.93127080       1.43342194       8.54121238       0.00003147      -0.00004810       0.00006077
