9
Lattice="6.594213929301854 1.0514116366751217e-07 3.8071709959821995 2.198071403469353 6.217084224460846 3.807171005380237 -1.3094924672227457e-09 1.0584262450131554e-08 7.614341994232494" Properties=species:S:1:pos:R:3:forces:R:3 energy=-26.88806915283203 free_energy=-26.88806915283203 stress="0.00019518854969646782 1.536571092586314e-09 -6.439590638507298e-09 1.536571092586314e-09 0.00019517441978678107 -7.51434470203094e-09 -6.439590638507298e-09 -7.51434470203094e-09 0.00019512799917720258" pbc="T T T"
Mn       2.19807133       1.55427122       3.80717106       0.00000077       0.00000288       0.00000156
Mn       6.59421387       4.66281301      11.42151291      -0.00000019      -0.00000131      -0.00000234
S        0.00000045       0.00000038      -0.00000008       0.00000126       0.00000319      -0.00000021
I        2.32186115       1.64180365       7.61434195       0.00620434       0.00438726      -0.00000190
I        6.47042410       4.57528063       7.61434200      -0.00620523      -0.00438833       0.00000087
I        5.43328353       1.64180389       5.81796143      -0.00310389       0.00438811       0.00537314
I        3.35900162       4.57528040       9.41072262       0.00310338      -0.00438902      -0.00537167
I        3.35900159       4.57528031       5.81796143       0.00310206      -0.00438977       0.00537375
I        5.43328369       1.64180383       9.41072265      -0.00310251       0.00438699      -0.00537319
