9
Lattice="5.832432596136098 -1.7001084964515535e-09 3.3673565226019293 1.9441441922123628 5.498870246698922 3.3673565310834648 -6.721098247368074e-08 -3.713763035861799e-08 6.7347131616167175" Properties=species:S:1:pos:R:3:forces:R:3 energy=-32.58991241455078 free_energy=-32.58991241455078 stress="-0.00017081823898479342 -1.0910433667632446e-10 -4.4915978492099384e-08 -1.0910433667632446e-10 -0.00017084032879211009 -3.7471142633194177e-08 -4.4915978492099384e-08 -3.7471142633194177e-08 -0.00017086160369217396" pbc="T T T"
Mn       1.94414510       1.37471851       3.36735657       0.00000702       0.00000634       0.00000116
Mn       5.83243261       4.12415239      10.10206959      -0.00000001      -0.00000094      -0.00000030
S       -0.00000011      -0.00000041      -0.00000030      -0.00000179       0.00000246       0.00000283
Cl       1.94086351       1.37239785       6.73471320       0.00276250       0.00195479      -0.00000016
Cl       5.83571325       4.12647226       6.73471329      -0.00276452      -0.00195688      -0.00000090
Cl       4.86200017       1.37239795       5.04819360      -0.00138247       0.00195524       0.00239283
Cl       2.91457570       4.12647230       8.42123276       0.00138173      -0.00195858      -0.00239488
Cl       2.91457607       4.12647201       5.04819326       0.00138074      -0.00195611       0.00239253
Cl       4.86200058       1.37239799       8.42123291      -0.00138304       0.00195414      -0.00239307
