9
Lattice="5.853213414377471 -3.443312143161805e-08 3.3793542763943707 1.9510710783393732 5.518462536807618 3.379354323718501 -9.84768131895058e-09 5.099658934312754e-08 6.75870856984543" Properties=species:S:1:pos:R:3:forces:R:3 energy=-32.78005599975586 free_energy=-32.78005599975586 stress="-7.090795406838879e-06 3.7258960361441495e-08 -1.2411950633950397e-10 3.7258960361441495e-08 -7.072987045830814e-06 6.947617148256313e-09 -1.2411950633950397e-10 6.947617148256313e-09 -7.100787115632556e-06" pbc="T T T"
Mn       1.95107111       1.37961591       3.37935446      -0.00000034       0.00000086       0.00000120
Mn       5.85321299       4.13884687      10.13806381      -0.00000211       0.00000036       0.00000388
Se       0.00000015       0.00000002       0.00000043      -0.00000174      -0.00000027      -0.00000316
Cl       1.96380916       1.38862250       6.75870867      -0.00011021      -0.00007860      -0.00000048
Cl       5.84047515       4.12983948       6.75870793       0.00011262       0.00007930      -0.00000150
Cl       4.87130899       1.38862304       5.08006286       0.00005418      -0.00007713      -0.00009535
Cl       2.93297557       4.12983986       8.43735397      -0.00005484       0.00007787       0.00009505
Cl       2.93297589       4.12983991       5.08006251      -0.00005189       0.00007470      -0.00009444
Cl       4.87130897       1.38862263       8.43735406       0.00005420      -0.00007714       0.00009476
