9
Lattice="6.188777432705444 -2.0069617264918694e-08 3.5730922523889492 2.062925803734071 5.834835214793769 3.573092232030299 -1.9185210823661495e-08 -3.8500138967342647e-08 7.146184538007678" Properties=species:S:1:pos:R:3:forces:R:3 energy=-29.483673095703125 free_energy=-29.483673095703125 stress="0.0001674928644206375 -6.079139858172766e-09 7.93471421900449e-09 -6.079139858172766e-09 0.00016748628695495427 -3.6985710050174703e-09 7.93471421900449e-09 -3.6985710050174703e-09 0.000167482765391469" pbc="T T T"
Mn       2.06292531       1.45870896       3.57309259      -0.00000126       0.00000168       0.00000159
Mn       6.18877826       4.37612746      10.71927823       0.00000585       0.00000598       0.00000921
Se      -0.00000034       0.00000005      -0.00000036       0.00000274      -0.00000046       0.00000124
Br       2.09323130       1.48013786       7.14618463      -0.00030079      -0.00021325      -0.00000135
Br       6.15847237       4.35469722       7.14618437       0.00029996       0.00020973      -0.00000390
Br       5.14216181       1.48013758       5.38588338       0.00014990      -0.00021277      -0.00025937
Br       3.10954073       4.35469729       8.90648484      -0.00015496       0.00021303       0.00025825
Br       3.10954162       4.35469727       5.38588327      -0.00014963       0.00021163      -0.00026180
Br       5.14216180       1.48013693       8.90648515       0.00014828      -0.00021559       0.00025617
