9
Lattice="6.084995706382818 8.625332574926386e-08 3.5131739004817355 2.028331986114458 5.736988924748134 3.5131738958633014 2.2007677268557028e-08 9.905346835001376e-09 7.026347762845104" Properties=species:S:1:pos:R:3:forces:R:3 energy=-29.860332489013672 free_energy=-29.860332489013672 stress="6.27688568783924e-05 2.0961543611974776e-08 -2.768874240999253e-09 2.0961543611974776e-08 6.276493513723835e-05 2.9371753917928345e-09 -2.768874240999253e-09 2.9371753917928345e-09 6.275467603700235e-05" pbc="T T T"
Mn       2.02833078       1.43424622       3.51317417      -0.00000692      -0.00000650       0.00000049
Mn       6.08499567       4.30274206      10.53952177      -0.00000057       0.00000166       0.00000297
S        0.00000033       0.00000006      -0.00000003      -0.00000119       0.00000081       0.00000161
Br       2.08021605       1.47093463       7.02634767       0.00001848       0.00001246      -0.00000054
Br       6.03311183       4.26605437       7.02634778      -0.00001729      -0.00001204      -0.00000159
Br       5.04488815       1.47093489       5.31469395      -0.00000675       0.00001267       0.00001663
Br       3.06843993       4.26605445       8.73800149       0.00001045      -0.00001171      -0.00001925
Br       3.06844001       4.26605450       5.31469397       0.00001147      -0.00001067       0.00001785
Br       5.04488814       1.47093489       8.73800143      -0.00000767       0.00001332      -0.00001803
