9
Lattice="5.9217382985201885 7.870918386499696e-08 3.4189172863742456 1.9739128795908223 5.583068026389484 3.4189172184610688 9.123178155874757e-08 -1.8665690563941504e-08 6.837834414730433" Properties=species:S:1:pos:R:3:forces:R:3 energy=-36.54161834716797 free_energy=-36.54161834716797 stress="0.00013536262849811465 2.3798262915875057e-08 -3.877698162568777e-08 2.3798262915875057e-08 0.0001353177649434656 -3.9296878640016075e-08 -3.877698162568777e-08 -3.9296878640016075e-08 0.00013538244820665568" pbc="T T T"
Mn       1.97391116       1.39576762       3.41891781      -0.00001069       0.00000371       0.00000293
Mn       5.92173975       4.18730039      10.25674924       0.00000392      -0.00000094      -0.00001593
Sn      -0.00000006      -0.00000011       0.00000014       0.00000223       0.00000316       0.00000011
Cl       2.00688524       1.41908245       6.83783452       0.00011572       0.00008403       0.00000067
Cl       5.88876611       4.16398563       6.83783524      -0.00011654      -0.00008790       0.00000706
Cl       4.91829589       1.41908202       5.15693135      -0.00005834       0.00008065       0.00010416
Cl       2.97735562       4.16398618       8.51873807       0.00006028      -0.00008433      -0.00010195
Cl       2.97735494       4.16398561       5.15693118       0.00005606      -0.00008306       0.00010228
Cl       4.91829643       1.41908251       8.51873813      -0.00005267       0.00008464      -0.00009945
