9
Lattice="4.797171529385183 -2.2787715169211212e-07 2.7696481533561332 1.599057048537777 4.522816159264022 2.7696480028050976 1.191913468980421e-07 -1.0010561641574458e-07 5.539296100266785" Properties=species:S:1:pos:R:3:forces:R:3 energy=-53.737545013427734 free_energy=-53.737545013427734 stress="-3.487261710688472e-05 -1.9366082426586217e-07 1.4803553938236291e-08 -1.9366082426586217e-07 -3.462777749518864e-05 6.881792358193195e-10 1.4803553938236291e-08 6.881792358193195e-10 -3.431378718232736e-05" pbc="T T T"
Mn       1.59905685       1.13070424       2.76964805      -0.00000249       0.00000168       0.00000007
Mn       4.79717180       3.39211218       8.30894391       0.00000196       0.00000171      -0.00000109
Si      -0.00000014       0.00000043       0.00000014       0.00000120      -0.00001552      -0.00001083
F        1.39430228       0.98592056       5.53929620       0.00120206       0.00085045      -0.00000093
F        5.00192679       3.53689496       5.53929614      -0.00120105      -0.00084732       0.00000080
F        4.10001998       0.98592083       3.97715058      -0.00059498       0.00084114       0.00102702
F        2.29620868       3.53689458       7.10144193       0.00059149      -0.00083248      -0.00101821
F        2.29620853       3.53689472       3.97715060       0.00059240      -0.00083628       0.00102316
F        4.10001989       0.98592086       7.10144138      -0.00059051       0.00083669      -0.00101990
