9
Lattice="6.6052340711678 -2.982199746131242e-08 3.813533744975723 2.2017446610745806 6.227474342508244 3.8135337470511184 2.2468672435166014e-08 1.8429561487496455e-08 7.627067451034597" Properties=species:S:1:pos:R:3:forces:R:3 energy=-30.114543914794922 free_energy=-30.114543914794922 stress="0.00013971874432172626 -4.639189032928925e-09 9.682411539202462e-10 -4.639189032928925e-09 0.00013972556916996837 8.572801135642294e-09 9.682411539202462e-10 8.572801135642294e-09 0.00013971608132123947" pbc="T T T"
Mn       2.20174435       1.55686935       3.81353289      -0.00000139       0.00000280      -0.00000322
Mn       6.60523368       4.67060553      11.44060090      -0.00000170      -0.00000021      -0.00000007
Si       0.00000011      -0.00000018       0.00000038       0.00000039      -0.00000006       0.00000023
I        2.20474342       1.55898885       7.62706766      -0.00521241      -0.00368570       0.00000194
I        6.60223547       4.66848523       7.62706756       0.00521401       0.00368569       0.00000025
I        5.50286266       1.55898930       5.72289795       0.00260841      -0.00368674      -0.00451532
I        3.30411646       4.66848511       9.53123747      -0.00260706       0.00368474       0.00451554
I        3.30411639       4.66848513       5.72289770      -0.00260627       0.00368538      -0.00451474
I        5.50286249       1.55898902       9.53123728       0.00260594      -0.00368588       0.00451537
