9
Lattice="5.804622337344602 3.76499925798673e-08 3.3513004664920083 1.9348742223578612 5.472650367366006 3.351300337605073 2.5746451442121937e-07 2.4201312917087687e-08 6.702600487042387" Properties=species:S:1:pos:R:3:forces:R:3 energy=-38.31003189086914 free_energy=-38.31003189086914 stress="0.00017482291150372475 6.895947279872416e-08 5.39761213502743e-09 6.895947279872416e-08 0.0001747415808495134 -3.9832670495343336e-08 5.39761213502743e-09 -3.9832670495343336e-08 0.0001746431371429935" pbc="T T T"
Mn       1.93487379       1.36816278       3.35130013      -0.00000040       0.00000033      -0.00000206
Mn       5.80462162       4.10448832      10.05389985      -0.00000599       0.00000008      -0.00000682
Si       0.00000017      -0.00000006       0.00000004      -0.00000061      -0.00000138       0.00000476
Cl       1.86592038       1.31940440       6.70260072      -0.00036880      -0.00026347       0.00000164
Cl       5.87357632       4.15324548       6.70260125       0.00037274       0.00026631       0.00000352
Cl       4.87166281       1.31940441       4.96723427       0.00018187      -0.00026076      -0.00031498
Cl       2.86783452       4.15324594       8.43796784      -0.00017925       0.00025685       0.00031540
Cl       2.86783451       4.15324590       4.96723395      -0.00018394       0.00026138      -0.00031775
Cl       4.87166319       1.31940458       8.43796722       0.00018436      -0.00025919       0.00031626
