9
Lattice="4.55187224593947 -3.4075213843625146e-08 2.6280246199012827 1.5172906763402938 4.2915463761177834 2.6280246894946884 -7.154593433624633e-08 3.4643568324183375e-08 5.256049363723745" Properties=species:S:1:pos:R:3:forces:R:3 energy=-44.347999572753906 free_energy=-44.347999572753906 stress="0.00026100012473762035 -5.632109223441262e-10 -2.0365432007452e-08 -5.632109223441262e-10 0.00026096313376910985 3.036400286759999e-08 -2.0365432007452e-08 3.036400286759999e-08 0.0002610090305097401" pbc="T T T"
Mn       1.51729096       1.07288673       2.62802439       0.00000131       0.00000063      -0.00000161
Mn       4.55187216       3.21865996       7.88407394       0.00000019      -0.00000033      -0.00000154
S       -0.00000017       0.00000018       0.00000016       0.00000137      -0.00000513       0.00000285
F        1.58362404       1.11979126       5.25604933      -0.00331149      -0.00234136       0.00000001
F        4.48553878       3.17175504       5.25604944       0.00331074       0.00234169       0.00000072
F        3.76006004       1.11979144       3.99948363       0.00165839      -0.00234306      -0.00287083
F        2.30910282       3.17175443       6.51261514      -0.00165896       0.00234519       0.00287241
F        2.30910285       3.17175475       3.99948374      -0.00165759       0.00234526      -0.00287190
F        3.76005979       1.11979173       6.51261501       0.00165612      -0.00234297       0.00286970
