9
Lattice="6.847934016252797 -7.23035228545291e-09 3.953656464614777 2.282644664793846 6.456294126252922 3.953656465435119 -3.6750099422438654e-08 -2.4981591340893184e-08 7.907312992882607" Properties=species:S:1:pos:R:3:forces:R:3 energy=-28.57710075378418 free_energy=-28.57710075378418 stress="0.00012331793550401926 7.621373754318483e-09 4.683901266844259e-09 7.621373754318483e-09 0.00012331336620263755 2.5351654109329047e-10 4.683901266844259e-09 2.5351654109329047e-10 0.00012330958270467818" pbc="T T T"
Mn       2.28264508       1.61407407       3.95365613       0.00000150       0.00000271      -0.00000022
Mn       6.84793447       4.84222038      11.86096935       0.00000073      -0.00000151       0.00000006
Sb       0.00000010       0.00000025       0.00000025      -0.00000163      -0.00000252      -0.00000207
I        2.40523993       1.70076179       7.90731317      -0.00337042      -0.00238242       0.00000067
I        6.72533843       4.75553207       7.90731299       0.00337213       0.00238375      -0.00000040
I        5.64531391       1.70076148       6.03665559       0.00168439      -0.00238264      -0.00291839
I        3.48526452       4.75553211       9.77797026      -0.00168596       0.00238328       0.00291969
I        3.48526452       4.75553248       6.03665557      -0.00168543       0.00238278      -0.00291911
I        5.64531362       1.70076174       9.77797036       0.00168464      -0.00238345       0.00291978
