9
Lattice="6.223451266309716 6.88931539744358e-08 3.5931113492451017 2.074483865265287 5.86752604176342 3.5931112715183118 2.847311967914704e-08 -7.506200190519424e-08 7.186222649173285" Properties=species:S:1:pos:R:3:forces:R:3 energy=-32.23226547241211 free_energy=-32.23226547241211 stress="0.00011692516272887588 4.855940094472544e-09 3.5773692896867715e-09 4.855940094472544e-09 0.00011694546992657706 -1.382117709169961e-08 3.5773692896867715e-09 -1.382117709169961e-08 0.00011692129191942513" pbc="T T T"
Mn       2.07448422       1.46688055       3.59311150       0.00000085      -0.00000424       0.00000085
Mn       6.22345143       4.40064494      10.77933416       0.00000120       0.00000151       0.00000131
Sb      -0.00000014      -0.00000022       0.00000087       0.00000148       0.00000224      -0.00001209
Br       2.16194613       1.52872687       7.18622259      -0.00124750      -0.00088193      -0.00000056
Br       6.13598898       4.33879979       7.18622236       0.00124308       0.00088195       0.00000036
Br       5.14247841       1.52872646       5.46541103       0.00062030      -0.00087807      -0.00107630
Br       3.15545689       4.33879937       8.90703391      -0.00062311       0.00088321       0.00107920
Br       3.15545671       4.33879970       5.46541139      -0.00062111       0.00088021      -0.00107510
Br       5.14247801       1.52872669       8.90703323       0.00062482      -0.00088484       0.00108228
