9
Lattice="6.222932111166356 -1.0571590070873728e-07 3.5928116045227596 2.074310605452851 5.867036807557877 3.5928116020967327 1.6237517358297462e-08 8.510418040427156e-09 7.185623180921331" Properties=species:S:1:pos:R:3:forces:R:3 energy=-32.23227310180664 free_energy=-32.23227310180664 stress="5.943909491179511e-05 -1.5224339122710262e-08 4.955953980534389e-10 -1.5224339122710262e-08 5.94360135437455e-05 -1.172206864907821e-08 4.955953980534389e-10 -1.172206864907821e-08 5.945347947999835e-05" pbc="T T T"
Mn       2.07431064       1.46675952       3.59281100       0.00000136       0.00000103      -0.00000222
Mn       6.22293232       4.40027865      10.77843607       0.00000114       0.00000654       0.00000532
Sb       0.00000040      -0.00000094      -0.00000021      -0.00000427       0.00000858       0.00000071
Br       2.16170092       1.52855353       7.18562363      -0.00048404      -0.00034234       0.00000161
Br       6.13554216       4.33848317       7.18562261       0.00048222       0.00033817      -0.00000221
Br       5.14208088       1.52855315       5.46490001       0.00024253      -0.00034627      -0.00042013
Br       3.15516106       4.33848366       8.90634664      -0.00024090       0.00034009       0.00041526
Br       3.15516158       4.33848278       5.46489943      -0.00023983       0.00034055      -0.00041906
Br       5.14208099       1.52855330       8.90634635       0.00024178      -0.00034631       0.00042067
