9
Lattice="5.090118724639017 -1.0979801056140077e-07 2.9387811901190246 1.6967061368550844 4.799009626510335 2.938781192150187 -4.811330950840457e-08 -3.153352318629871e-08 5.8775624635727395" Properties=species:S:1:pos:R:3:forces:R:3 energy=-47.679927825927734 free_energy=-47.679927825927734 stress="4.600878310156986e-05 4.881802184719675e-10 2.1476079581361773e-08 4.881802184719675e-10 4.5997458073543385e-05 -3.671062032140071e-08 2.1476079581361773e-08 -3.671062032140071e-08 4.604376954375766e-05" pbc="T T T"
Mn       1.69670722       1.19975312       2.93878054       0.00000453       0.00000270      -0.00000112
Mn       5.09011760       3.59925775       8.81634423      -0.00000456       0.00000178       0.00000201
Sb       0.00000013       0.00000019       0.00000038      -0.00000300      -0.00000715      -0.00000277
F        1.73354979       1.22580450       5.87756207      -0.00008857      -0.00006396      -0.00000016
F        5.05327515       3.57320494       5.87756284       0.00009406       0.00006622       0.00000053
F        4.22334320       1.22580520       4.44007863       0.00004381      -0.00006193      -0.00007841
F        2.56348110       3.57320421       7.31504611      -0.00004554       0.00006351       0.00008202
F        2.56348193       3.57320449       4.44007921      -0.00004524       0.00006694      -0.00008363
F        4.22334291       1.22580381       7.31504519       0.00004432      -0.00006777       0.00008136
