9
Lattice="6.8482625223389695 7.530231437899957e-08 3.95384616948281 2.2827542676551262 6.4566037080455185 3.9538461304312063 3.861027720109993e-08 -2.0526626076860735e-08 7.907692272090651" Properties=species:S:1:pos:R:3:forces:R:3 energy=-28.57708740234375 free_energy=-28.57708740234375 stress="0.00015476997941732407 1.6853432427410553e-08 -1.1258846299710967e-08 1.6853432427410553e-08 0.0001547632709844038 1.5011403675657675e-08 -1.1258846299710967e-08 1.5011403675657675e-08 0.00015475550026167184" pbc="T T T"
Mn       2.28275417       1.61415058       3.95384601      -0.00000013      -0.00000159       0.00000094
Mn       6.84826290       4.84245297      11.86153829       0.00000076       0.00000086      -0.00000210
Sb      -0.00000007      -0.00000016      -0.00000062       0.00000063       0.00000063       0.00000303
I        2.40549474       1.70094154       7.90769226      -0.00445448      -0.00314970       0.00000016
I        6.72552216       4.75566246       7.90769254       0.00445363       0.00314876       0.00000044
I        5.64551518       1.70094138       6.03706560       0.00222657      -0.00314952      -0.00385723
I        3.48550146       4.75566267       9.77831932      -0.00222600       0.00314885       0.00385586
I        3.48550139       4.75566239       6.03706547      -0.00222674       0.00314889      -0.00385555
I        5.64551542       1.70094121       9.77831936       0.00222576      -0.00314716       0.00385448
