9
Lattice="6.187400373310242 5.618388079398405e-08 3.572297301997772 2.0624668292087835 5.833537054963569 3.572297327745224 2.026073737072802e-08 4.5860584964649205e-08 7.1445945689029084" Properties=species:S:1:pos:R:3:forces:R:3 energy=-33.02186965942383 free_energy=-33.02186965942383 stress="9.661571675678715e-05 7.864406903479448e-09 3.6794751689939176e-09 7.864406903479448e-09 9.659324859967455e-05 -3.50325413123187e-09 3.6794751689939176e-09 -3.50325413123187e-09 9.659094212111086e-05" pbc="T T T"
Mn       2.06246637       1.45838333       3.57229724      -0.00000172      -0.00000509      -0.00000055
Mn       6.18739985       4.37515364      10.71689125      -0.00000360       0.00000429      -0.00000386
Sn       0.00000003       0.00000015      -0.00000016      -0.00000137      -0.00000048      -0.00000019
Br       2.13307272       1.50830945       7.14459465      -0.00049299      -0.00035137      -0.00000006
Br       6.11679472       4.32522736       7.14459474       0.00049693       0.00035232       0.00000138
Br       5.12086421       1.50830972       5.41959220       0.00024777      -0.00035130      -0.00042748
Br       3.12900356       4.32522758       8.86959734      -0.00024524       0.00035056       0.00042881
Br       3.12900296       4.32522753       5.41959220      -0.00024753       0.00035089      -0.00042718
Br       5.12086445       1.50830989       8.86959730       0.00024768      -0.00034989       0.00042897
