9
Lattice="6.0564652483518175 -4.268962159882944e-08 3.4967016938382063 2.0188217086553557 5.710090136998597 3.4967016947858633 -5.575536730863978e-08 -3.826434639918909e-08 6.9934034842475405" Properties=species:S:1:pos:R:3:forces:R:3 energy=-34.32004165649414 free_energy=-34.32004165649414 stress="0.00014470124733634293 -8.808587748099228e-10 1.1375456132611816e-08 -8.808587748099228e-10 0.00014468592416960746 1.2716026009940151e-09 1.1375456132611816e-08 1.2716026009940151e-09 0.00014472751354333013" pbc="T T T"
Mn       2.01882183       1.42752263       3.49670202       0.00000042       0.00000153       0.00000290
Mn       6.05646662       4.28256872      10.49010687       0.00000784       0.00000779       0.00000854
Si      -0.00000014      -0.00000017      -0.00000046      -0.00000117       0.00000007       0.00000222
Br       1.99956574       1.41390633       6.99340339      -0.00078149      -0.00055252      -0.00000024
Br       6.07572097       4.29618358       6.99340270       0.00078036       0.00055193      -0.00000383
Br       5.05668176       1.41390625       5.22837652       0.00038972      -0.00055579      -0.00067811
Br       3.01860425       4.29618367       8.75843004      -0.00039253       0.00055049       0.00067238
Br       3.01860434       4.29618319       5.22837651      -0.00039350       0.00055223      -0.00067755
Br       5.05668224       1.41390601       8.75842991       0.00039035      -0.00055578       0.00067364
