9
Lattice="5.090412750290851 2.0170955838581806e-07 2.9389512536222036 1.6968043252091143 4.799287518839263 2.938951452914496 -1.5635635739127437e-07 1.3352158373974968e-07 5.877902778061551" Properties=species:S:1:pos:R:3:forces:R:3 energy=-47.679927825927734 free_energy=-47.679927825927734 stress="9.28623485378921e-05 -2.5554166782626453e-08 1.5906120864883633e-08 -2.5554166782626453e-08 9.286868589697406e-05 9.17181441906223e-09 1.5906120864883633e-08 9.17181441906223e-09 9.301957470597699e-05" pbc="T T T"
Mn       1.69680395       1.19982179       2.93895242      -0.00000236       0.00000044       0.00000392
Mn       5.09041309       3.59946573       8.81685533       0.00000236       0.00000033       0.00000421
Sb      -0.00000001       0.00000020      -0.00000029      -0.00000424       0.00000159       0.00000417
F        1.73357933       1.22582572       5.87790244      -0.00042874      -0.00030339      -0.00000240
F        5.05363803       3.57346162       5.87790251       0.00043088       0.00030431      -0.00000231
F        4.22362334       1.22582684       4.44027469       0.00021687      -0.00030598      -0.00037727
F        2.56359383       3.57346221       7.31553007      -0.00021571       0.00030532       0.00037119
F        2.56359317       3.57346188       4.44027516      -0.00021616       0.00030500      -0.00037345
F        4.22362335       1.22582541       7.31552937       0.00021714      -0.00030786       0.00037193
