9
Lattice="5.888154673213105 -9.991210333554053e-08 3.399527506401977 1.9627181838953742 5.551405527358593 3.3995274134098095 7.70201850851822e-08 -5.943017328717179e-08 6.799054879401103" Properties=species:S:1:pos:R:3:forces:R:3 energy=-32.77581787109375 free_energy=-32.77581787109375 stress="0.00015565108333248645 -7.534539214759661e-09 2.17152020809408e-08 -7.534539214759661e-09 0.00015566327783744782 -7.516224975745445e-09 2.17152020809408e-08 -7.516224975745445e-09 0.00015563897613901645" pbc="T T T"
Mn       1.96271863       1.38785090       3.39952824       0.00000146      -0.00000426       0.00000578
Mn       5.88815585       4.16355315      10.19858276       0.00000796      -0.00000505       0.00000193
Tl      -0.00000011      -0.00000003      -0.00000012       0.00000004       0.00000085      -0.00000335
Cl       2.07775876       1.46919778       6.79905484      -0.00286806      -0.00202293      -0.00000267
Cl       5.77311370       4.08220798       6.79905497       0.00286468       0.00202815       0.00000001
Cl       4.84927491       1.46919784       5.19891903       0.00143122      -0.00202407      -0.00248394
Cl       3.00159746       4.08220795       8.39918994      -0.00143741       0.00203085       0.00247980
Cl       3.00159771       4.08220811       5.19891931      -0.00143543       0.00202658      -0.00248148
Cl       4.84927483       1.46919778       8.39919023       0.00143551      -0.00202991       0.00248388
