9
Lattice="6.316436141849605 1.0563310183596935e-08 3.646796146001556 2.1054786921289863 5.955193112676524 3.6467962010461266 1.4117607749637994e-08 7.739829477661164e-08 7.293592267550697" Properties=species:S:1:pos:R:3:forces:R:3 energy=-30.029098510742188 free_energy=-30.029098510742188 stress="0.00010780591401271522 -1.1616621442556152e-08 7.057028739154703e-09 -1.1616621442556152e-08 0.00010782653407659382 -1.1012470046978251e-08 7.057028739154703e-09 -1.1012470046978251e-08 0.00010783153993543237" pbc="T T T"
Mn       2.10547833       1.48879872       3.64679678      -0.00000236       0.00000125       0.00000339
Mn       6.31643616       4.46639510      10.94038930       0.00000128       0.00000112       0.00000545
Te      -0.00000073       0.00000011      -0.00000025       0.00000558      -0.00000090      -0.00000182
Br       2.20393862       1.55842023       7.29359170      -0.00062992      -0.00044484      -0.00000213
Br       6.21797679       4.39677296       7.29359214       0.00062835       0.00044188      -0.00000251
Br       5.21446716       1.55841986       5.55546283       0.00031446      -0.00044349      -0.00054444
Br       3.20744795       4.39677289       9.03172119      -0.00031733       0.00044569       0.00054578
Br       3.20744830       4.39677334       5.55546327      -0.00031495       0.00044630      -0.00054765
Br       5.21446678       1.55841965       9.03172152       0.00031481      -0.00044699       0.00054383
