9
Lattice="5.003809778521749 -1.6619420012350688e-07 2.888951039843684 1.667936468559113 4.717636923018915 2.888950983711591 2.821237995627295e-08 -4.879837759699529e-08 5.777902030822173" Properties=species:S:1:pos:R:3:forces:R:3 energy=-43.73899841308594 free_energy=-43.73899841308594 stress="0.00025588113931007683 1.5336988568037668e-08 -8.461402134507523e-10 1.5336988568037668e-08 0.00025585672119632363 2.063694459764065e-08 -8.461402134507523e-10 2.063694459764065e-08 0.0002558264823164791" pbc="T T T"
Mn       1.66793559       1.17940885       2.88895105      -0.00000381      -0.00000121       0.00000057
Mn       5.00380968       3.53822801       8.66685329      -0.00000156       0.00000229      -0.00000012
Tl       0.00000009       0.00000010       0.00000009       0.00000363      -0.00000430       0.00000195
F        1.73615667       1.22764770       5.77790193      -0.00087456      -0.00062035      -0.00000013
F        4.93558963       3.48998883       5.77790200       0.00087520       0.00061810       0.00000067
F        4.13573163       1.22764778       4.39250665       0.00043741      -0.00061782      -0.00075477
F        2.53601481       3.48998908       7.16329751      -0.00043591       0.00061920       0.00075729
F        2.53601491       3.48998906       4.39250660      -0.00043728       0.00061984      -0.00075720
F        4.13573202       1.22764736       7.16329723       0.00043688      -0.00061589       0.00075151
