9
Lattice="5.9742646397831685 -1.0188245750698436e-07 3.4492434632446947 1.991421474004458 5.632590498559095 3.449243422600705 2.6286926582991706e-07 1.3609819041141423e-07 6.898486471186425" Properties=species:S:1:pos:R:3:forces:R:3 energy=-45.50343704223633 free_energy=-45.50343704223633 stress="0.0001902701915241778 1.1618527473444829e-08 -4.393441344063831e-08 1.1618527473444829e-08 0.0001902341318782419 -7.996285944500414e-08 -4.393441344063831e-08 -7.996285944500414e-08 0.00019026649533770978" pbc="T T T"
Mn       1.99141858       1.40814940       3.44924671      -0.00001493       0.00000745       0.00001889
Mn       5.97426447       4.22444275      10.34772808      -0.00000250      -0.00000001      -0.00001183
Ta       0.00000037       0.00000018       0.00000010       0.00000348       0.00000046      -0.00000741
Cl       1.97706398       1.39799525       6.89848619      -0.00129360      -0.00091588      -0.00000500
Cl       5.98862369       4.23459504       6.89848747       0.00129807       0.00090912       0.00000108
Cl       4.98573339       1.39799406       5.16143102       0.00064656      -0.00091410      -0.00111502
Cl       2.97995415       4.23459546       8.63554170      -0.00064635       0.00091937       0.00112069
Cl       2.97995322       4.23459437       5.16143007      -0.00064784       0.00091213      -0.00112396
Cl       4.98573373       1.39799543       8.63554197       0.00065729      -0.00091863       0.00112325
