9
Lattice="6.703727497807294 6.59167767645407e-08 3.870398781824726 2.234575885015122 6.32033481403947 3.870398798684895 -6.734906856902216e-08 -2.6973551279204545e-08 7.740797680301461" Properties=species:S:1:pos:R:3:forces:R:3 energy=-34.852638244628906 free_energy=-34.852638244628906 stress="0.0001223053113790229 -7.4324552068461e-10 -4.782666707114913e-09 -7.4324552068461e-10 0.0001222935679834336 7.226103271307238e-09 -4.782666707114913e-09 7.226103271307238e-09 0.0001222699647769332" pbc="T T T"
Mn       2.23457618       1.58008363       3.87039850       0.00000131       0.00000045      -0.00000140
Mn       6.70372651       4.74025060      11.61119642      -0.00000402      -0.00000185       0.00000068
Ti       0.00000000      -0.00000021       0.00000014      -0.00000091       0.00000095       0.00000137
I        2.23488646       1.58030330       7.74079753      -0.00207631      -0.00146821       0.00000075
I        6.70341715       4.74003178       7.74079763       0.00207650       0.00146871       0.00000025
I        5.58628456       1.58030340       5.80586705       0.00103889      -0.00146800      -0.00179837
I        3.35201896       4.74003185       9.67572847      -0.00103615       0.00146620       0.00179609
I        3.35201900       4.74003190       5.80586666      -0.00103625       0.00146729      -0.00179635
I        5.58628443       1.58030318       9.67572865       0.00103703      -0.00146552       0.00179703
