9
Lattice="5.006361355422033 -1.680229568959621e-07 2.8904241189086473 1.6687870450934181 4.720042292773909 2.8904239716273046 -1.036802455306823e-08 -1.877134108106111e-07 5.780848255775313" Properties=species:S:1:pos:R:3:forces:R:3 energy=-45.421268463134766 free_energy=-45.421268463134766 stress="7.10409804014489e-05 9.66007007718872e-08 1.227201984477233e-08 9.66007007718872e-08 7.095336331985891e-05 -2.235347462686832e-09 1.227201984477233e-08 -2.235347462686832e-09 7.086583354976028e-05" pbc="T T T"
Mn       1.66878696       1.18001029       2.89042425       0.00000021      -0.00000126       0.00000078
Mn       5.00636141       3.54003164       8.67127211      -0.00000153      -0.00000001       0.00000126
Te      -0.00000023      -0.00000013       0.00000032      -0.00000464       0.00000089      -0.00001079
F        1.72013819       1.21632115       5.78084814      -0.00098939      -0.00070000       0.00000054
F        4.95500965       3.50372029       5.78084805       0.00099345       0.00070219       0.00000054
F        4.14629233       1.21632116       4.38010737       0.00049135      -0.00069550      -0.00084986
F        2.52885625       3.50372113       7.18158879      -0.00049230       0.00069724       0.00085260
F        2.52885674       3.50372102       4.38010713      -0.00048969       0.00069393      -0.00084943
F        4.14629227       1.21632119       7.18158902       0.00049250      -0.00069740       0.00085460
