9
Lattice="4.857230615753066 -8.111578746673848e-08 2.804323394255261 1.6190768184273243 4.579441240909696 2.804323354441761 -1.0185910540267861e-07 -1.2078667146268834e-07 5.608646964935708" Properties=species:S:1:pos:R:3:forces:R:3 energy=-56.835838317871094 free_energy=-56.835838317871094 stress="6.058484723325819e-05 -9.692535662964019e-09 4.0064942474771215e-09 -9.692535662964019e-09 6.061846579541452e-05 9.46299127946304e-09 4.0064942474771215e-09 9.46299127946304e-09 6.061485692043789e-05" pbc="T T T"
Mn       1.61907714       1.14486108       2.80432330       0.00000042       0.00000088      -0.00000057
Mn       4.85722928       3.43458082       8.41296956      -0.00000215       0.00000104      -0.00000206
Ti      -0.00000014      -0.00000008      -0.00000007       0.00000550      -0.00000086      -0.00000113
F        1.56923140       1.10961366       5.60864703       0.00239149       0.00168936       0.00000059
F        4.90707627       3.46982743       5.60864720      -0.00239477      -0.00169426       0.00000092
F        4.07261510       1.10961368       4.16331770      -0.00119519       0.00169189       0.00207214
F        2.40369253       3.46982686       7.05397629       0.00119534      -0.00168996      -0.00206722
F        2.40369273       3.46982669       4.16331745       0.00119554      -0.00169079       0.00206803
F        4.07261492       1.10961410       7.05397630      -0.00119631       0.00169264      -0.00207081
