9
Lattice="6.803643953656941 -4.40493997639904e-09 3.928085700802945 2.2678812997637943 6.414537037500057 3.928085724997569 -5.370155033076537e-08 -8.340478998962028e-09 7.856171494619664" Properties=species:S:1:pos:R:3:forces:R:3 energy=-37.34941482543945 free_energy=-37.34941482543945 stress="5.963138391962275e-05 -2.7514030165320946e-08 -9.933160960429177e-10 -2.7514030165320946e-08 5.964203955954872e-05 -8.976741128208232e-09 -9.933160960429177e-10 -8.976741128208232e-09 5.9655994846252725e-05" pbc="T T T"
Mn       2.26788133       1.60363402       3.92808547      -0.00000000      -0.00000088      -0.00000072
Mn       6.80364365       4.81090258      11.78425736      -0.00000021      -0.00000037      -0.00000024
Ta      -0.00000010      -0.00000018      -0.00000005      -0.00000013       0.00000169      -0.00000570
I        2.26034620       1.59830609       7.85617169      -0.00018211      -0.00012861      -0.00000049
I        6.81117917       4.81623120       7.85617159       0.00018074       0.00012767      -0.00000042
I        5.67347080       1.59830623       5.88560311       0.00009131      -0.00012814      -0.00015813
I        3.39805455       4.81623080       9.82673971      -0.00009310       0.00013225       0.00016132
I        3.39805447       4.81623095       5.88560306      -0.00009078       0.00012888      -0.00015846
I        5.67347071       1.59830638       9.82673971       0.00009431      -0.00013253       0.00016284
