9
Lattice="6.132052556253419 3.619256374459214e-08 3.540342156572427 2.044017530288529 5.781354729166688 3.5403421956913856 -4.855971657251181e-08 1.3573789758569123e-08 7.080684397252775" Properties=species:S:1:pos:R:3:forces:R:3 energy=-39.19416046142578 free_energy=-39.19416046142578 stress="0.00022203053231351078 3.116451097184836e-08 1.1713043868155637e-08 3.116451097184836e-08 0.0002220239257439971 2.3746666855117837e-09 1.1713043868155637e-08 2.3746666855117837e-09 0.00022200230159796774" pbc="T T T"
Mn       2.04401794       1.44533823       3.54034137       0.00000250      -0.00000153      -0.00000494
Mn       6.13205256       4.33601659      10.62102674      -0.00000059       0.00000127       0.00000216
Ti       0.00000022       0.00000025       0.00000007      -0.00000198      -0.00000377       0.00000351
Br       2.05082323       1.45015119       7.08068467      -0.00344899      -0.00244029       0.00000230
Br       6.12524656       4.33120349       7.08068428       0.00345244       0.00244394      -0.00000067
Br       5.10664107       1.45015096       5.31640711       0.00172355      -0.00243916      -0.00298619
Br       3.06942881       4.33120372       8.84496169      -0.00172323       0.00243729       0.00298527
Br       3.06942890       4.33120373       5.31640711      -0.00172458       0.00244047      -0.00298706
Br       5.10664087       1.45015094       8.84496197       0.00172094      -0.00243829       0.00298546
