9
Lattice="5.974318204155241 -3.670795509111766e-07 3.4492744874000785 1.9914390481560027 5.632640632498401 3.4492744997723483 -7.436776101653178e-08 -3.743305932313881e-08 6.898549103608888" Properties=species:S:1:pos:R:3:forces:R:3 energy=-45.50343322753906 free_energy=-45.50343322753906 stress="0.00019687008170876652 -6.695797338807097e-08 -1.812610683771254e-08 -6.695797338807097e-08 0.00019682414131239057 2.5620593646635825e-08 -1.812610683771254e-08 2.5620593646635825e-08 0.00019684508151840419" pbc="T T T"
Mn       1.99144196       1.40815978       3.44927651       0.00000796      -0.00000415       0.00000436
Mn       5.97431617       4.22447762      10.34782258      -0.00000608      -0.00000944      -0.00000176
Ta      -0.00000023       0.00000019       0.00000061      -0.00000035       0.00000384      -0.00001228
Cl       1.97706752       1.39799796       6.89854925      -0.00137758      -0.00097060      -0.00000616
Cl       5.98868998       4.23464329       6.89854871       0.00137120       0.00097325       0.00000229
Cl       4.98578426       1.39799822       5.16146555       0.00068608      -0.00097120      -0.00120002
Cl       2.97997208       4.23464210       8.63563215      -0.00068986       0.00098020       0.00120246
Cl       2.97997303       4.23464408       5.16146555      -0.00068650       0.00097159      -0.00119269
Cl       4.98578394       1.39799756       8.63563162       0.00069532      -0.00097331       0.00120425
