9
Lattice="6.803753079004668 -2.0632630485145643e-07 3.9281488775047246 2.2679175747473077 6.414639878550578 3.928148745397598 1.0486873271490557e-07 -8.764419483231943e-08 7.856297573371577" Properties=species:S:1:pos:R:3:forces:R:3 energy=-37.34941482543945 free_energy=-37.34941482543945 stress="6.662109080934897e-05 -1.5462459757031866e-08 9.649147258983248e-09 -1.5462459757031866e-08 6.66284395265393e-05 -1.2583231345786317e-08 9.649147258983248e-09 -1.2583231345786317e-08 6.664396642008796e-05" pbc="T T T"
Mn       2.26791736       1.60366020       3.92814854      -0.00000008       0.00000069      -0.00000013
Mn       6.80375307       4.81097965      11.78444612       0.00000020       0.00000049      -0.00000213
Ta      -0.00000025      -0.00000030       0.00000031       0.00000463       0.00000120      -0.00000057
I        2.26035746       1.59831400       7.85629753      -0.00023596      -0.00016715       0.00000063
I        6.81131372       4.81632614       7.85629763       0.00023067       0.00016232       0.00000057
I        5.67357445       1.59831383       5.88567585       0.00011766      -0.00016519      -0.00020161
I        3.39809645       4.81632554       9.82691923      -0.00011712       0.00016646       0.00020415
I        3.39809661       4.81632522       5.88567621      -0.00011835       0.00016749      -0.00020529
I        5.67357417       1.59831406       9.82691937       0.00011832      -0.00016628       0.00020432
