9
Lattice="4.893548452946437 -7.356510267270815e-08 2.8252915385891235 1.6311827606345044 4.613681586040366 2.8252915172094912 -8.949677894038197e-09 -3.251297379092987e-08 5.650583092679613" Properties=species:S:1:pos:R:3:forces:R:3 energy=-58.34786605834961 free_energy=-58.34786605834961 stress="0.0005756073514930904 -2.990071834574337e-08 1.5435130951146903e-09 -2.990071834574337e-08 0.00057554233353585 -2.123117326391366e-08 1.5435130951146903e-09 -2.123117326391366e-08 0.0005756380851380527" pbc="T T T"
Mn       1.63118294       1.15342031       2.82529169       0.00000049      -0.00000025      -0.00000043
Mn       4.89354833       3.46026085       8.47587468      -0.00000023      -0.00000052       0.00000003
Ta      -0.00000020      -0.00000014      -0.00000013      -0.00000323       0.00000096      -0.00000499
F        1.61432222       1.14149823       5.65058306      -0.00203419      -0.00143760      -0.00000060
F        4.91040831       3.47218336       5.65058312       0.00203598       0.00143951      -0.00000023
F        4.08638747       1.14149821       4.22333556       0.00101739      -0.00143862      -0.00176239
F        2.43834444       3.47218319       7.07783062      -0.00101852       0.00144070       0.00176382
F        2.43834382       3.47218364       4.22333554      -0.00101572       0.00143647      -0.00176001
F        4.08638726       1.14149827       7.07783033       0.00101805      -0.00144082       0.00176394
