9
Lattice="5.747778270399149 -7.951686910169888e-08 3.3184811254162065 1.9159260362963888 5.419057034364403 3.3184810888135168 -8.132704711069107e-08 -1.0233587107897414e-07 6.636962391695013" Properties=species:S:1:pos:R:3:forces:R:3 energy=-43.28371047973633 free_energy=-43.28371047973633 stress="0.00025269712205044925 1.5155137589317746e-08 -3.1758290219841e-08 1.5155137589317746e-08 0.00025266557349823415 1.4262931280484281e-08 -3.1758290219841e-08 1.4262931280484281e-08 0.00025266752345487475" pbc="T T T"
Mn       1.91592590       1.35476389       3.31848117      -0.00000033      -0.00000185       0.00000077
Mn       5.74777879       4.06429327       9.95544283       0.00000218       0.00000515      -0.00000761
Ti       0.00000008       0.00000022       0.00000028      -0.00000244      -0.00000009      -0.00000018
Cl       1.93862158       1.37081225       6.63696220      -0.00534855      -0.00378148       0.00000023
Cl       5.72508260       4.04824444       6.63696263       0.00534962       0.00378212       0.00000319
Cl       4.77846726       1.37081226       4.99737689       0.00267392      -0.00378426      -0.00462942
Cl       2.88523688       4.04824427       8.27654800      -0.00267296       0.00378106       0.00463089
Cl       2.88523646       4.04824463       4.99737645      -0.00267504       0.00378010      -0.00462708
Cl       4.77846737       1.37081221       8.27654796       0.00267360      -0.00378081       0.00462921
