9
Lattice="6.190494053743751 -1.756329527436219e-08 3.5740834382647555 2.0634979997743446 5.8364537711506035 3.5740834410038196 2.3055689743670253e-08 1.9657495102427156e-08 7.148166836595878" Properties=species:S:1:pos:R:3:forces:R:3 energy=-29.529386520385742 free_energy=-29.529386520385742 stress="-0.00017681244935374707 -6.888785986092216e-09 -5.786069401381155e-09 -6.888785986092216e-09 -0.00017680741439107805 -4.820948973360828e-09 -5.786069401381155e-09 -4.820948973360828e-09 -0.00017678740550763905" pbc="T T T"
Mn       2.06349814       1.45911344       3.57408336       0.00000088       0.00000133      -0.00000190
Mn       6.19049396       4.37734033      10.72225043      -0.00000026      -0.00000058      -0.00000025
Tl      -0.00000007       0.00000011       0.00000050       0.00000109      -0.00000283      -0.00000617
Br       2.19093646       1.54922607       7.14816691       0.00445542       0.00314995      -0.00000040
Br       6.06305554       4.28722772       7.14816681      -0.00445493      -0.00315025      -0.00000016
Br       5.09502584       1.54922601       5.47149009      -0.00222905       0.00315257       0.00386046
Br       3.15896651       4.28722735       8.82484322       0.00222539      -0.00314778      -0.00385376
Br       3.15896630       4.28722781       5.47149015       0.00222703      -0.00315047       0.00385830
Br       5.09502562       1.54922624       8.82484340      -0.00222562       0.00314818      -0.00385617
