9
Lattice="4.893506528478738 -4.792141749808268e-08 2.825267948652212 1.6311688697819242 4.613641917445612 2.8252678237082525 2.2956928076985582e-07 9.3055343773761e-09 5.650535499678689" Properties=species:S:1:pos:R:3:forces:R:3 energy=-58.34786605834961 free_energy=-58.34786605834961 stress="0.0005655514542013407 -3.667650361194319e-08 -1.7752844527763045e-08 -3.667650361194319e-08 0.000565720780286938 6.047913103657265e-08 -1.7752844527763045e-08 6.047913103657265e-08 0.0005656425491906703" pbc="T T T"
Mn       1.63116877       1.15341069       2.82526791       0.00000012       0.00000032      -0.00000042
Mn       4.89350662       3.46023135       8.47580375      -0.00000060       0.00000047      -0.00000013
Ta      -0.00000035      -0.00000025       0.00000014       0.00000013       0.00000564      -0.00000281
F        1.61431475       1.14149244       5.65053549      -0.00191164      -0.00135118       0.00000013
F        4.91036101       3.47214910       5.65053550       0.00190556       0.00134820      -0.00000025
F        4.08634917       1.14149264       4.22330596       0.00095850      -0.00135553      -0.00165963
F        2.43832662       3.47214892       7.07776552      -0.00095689       0.00135559       0.00165808
F        2.43832629       3.47214948       4.22330546      -0.00095308       0.00134999      -0.00165188
F        4.08634941       1.14149288       7.07776526       0.00095797      -0.00135249       0.00165606
