9
Lattice="6.711691857276708 9.577853373979396e-08 3.87499707601476 2.2372307251892263 6.327843668222865 3.8749970486550627 4.353815970634097e-08 -2.7225117913537827e-09 7.749994076619163" Properties=species:S:1:pos:R:3:forces:R:3 energy=-26.127901077270508 free_energy=-26.127901077270508 stress="-0.00010475195449544117 6.633623095275709e-10 2.0535835254520407e-09 6.633623095275709e-10 -0.00010474456212250516 3.003394866141207e-09 2.0535835254520407e-09 3.003394866141207e-09 -0.00010474533337401226" pbc="T T T"
Mn       2.23723035       1.58196084       3.87499692      -0.00000270      -0.00000200       0.00000019
Mn       6.71169223       4.74588249      11.62499095       0.00000164      -0.00000017       0.00000060
Tl       0.00000014       0.00000002      -0.00000036      -0.00000132      -0.00000137       0.00000273
I        2.38171495       1.68412697       7.74999424      -0.00383767      -0.00271389       0.00000085
I        6.56720756       4.64371692       7.74999408       0.00383979       0.00271541       0.00000043
I        5.52083449       1.68412707       5.93762292       0.00192026      -0.00271457      -0.00332516
I        3.42808796       4.64371722       9.56236558      -0.00191907       0.00271389       0.00332235
I        3.42808810       4.64371687       5.93762286      -0.00192059       0.00271551      -0.00332486
I        5.52083474       1.68412666       9.56236560       0.00191962      -0.00271284       0.00332284
