9
Lattice="6.590547638604627 -2.3703567142016994e-08 3.805054368859456 2.1968491630028573 6.213627866371159 3.805054416520972 -4.035997777868329e-08 2.9834403616969045e-08 7.610108807624444" Properties=species:S:1:pos:R:3:forces:R:3 energy=-34.75244140625 free_energy=-34.75244140625 stress="-1.372867791360477e-05 1.3989548408588348e-09 2.4578066248892583e-09 1.3989548408588348e-09 -1.372059341520071e-05 3.3626605944192534e-09 2.4578066248892583e-09 3.3626605944192534e-09 -1.37310535137658e-05" pbc="T T T"
Mn       2.19684874       1.55340734       3.80505437      -0.00000250       0.00000098       0.00000082
Mn       6.59054744       4.66022146      11.41516306      -0.00000031       0.00000196      -0.00000111
V        0.00000012       0.00000015       0.00000011       0.00000038      -0.00000267      -0.00000020
I        2.19599783       1.55280469       7.61010881      -0.00101788      -0.00072182      -0.00000072
I        6.59139887       4.66082272       7.61010890       0.00102103       0.00072119      -0.00000003
I        5.49254886       1.55280500       5.70684403       0.00050911      -0.00072047      -0.00088109
I        3.29484846       4.66082255       9.51337327      -0.00051004       0.00072180       0.00088447
I        3.29484797       4.66082283       5.70684454      -0.00051071       0.00072061      -0.00088340
I        5.49254875       1.55280477       9.51337326       0.00051100      -0.00072166       0.00088139
