9
Lattice="4.814359480080669 1.7279915325679306e-07 2.7795716032623674 1.6047866894544178 4.539021852256369 2.7795715457971295 4.5954360210886724e-08 -3.7885640534404015e-08 5.559143126929444" Properties=species:S:1:pos:R:3:forces:R:3 energy=-54.41978454589844 free_energy=-54.41978454589844 stress="0.00031720870174467564 1.7376692085235845e-08 1.4872156839373929e-08 1.7376692085235845e-08 0.0003171720600221306 1.4402638193189432e-08 1.4872156839373929e-08 1.4402638193189432e-08 0.0003170912677887827" pbc="T T T"
Mn       1.60478593       1.13475600       2.77957273      -0.00000064       0.00000204       0.00000405
Mn       4.81436043       3.40426667       8.33871386       0.00000174      -0.00000052      -0.00000312
V       -0.00000011      -0.00000006      -0.00000015       0.00000020      -0.00000415       0.00000397
F        1.57463019       1.11343178       5.55914244       0.00288664       0.00204246      -0.00000130
F        4.84451625       3.42558969       5.55914338      -0.00288469      -0.00204167       0.00000240
F        4.02704433       1.11343161       4.14324086      -0.00144426       0.00204097       0.00250344
F        2.39210161       3.42559067       6.97504519       0.00144476      -0.00204358      -0.00250445
F        2.39210145       3.42558986       4.14324100       0.00144126      -0.00204158       0.00250079
F        4.02704475       1.11343166       6.97504561      -0.00144506       0.00204611      -0.00250588
