9
Lattice="5.685346715208886 -2.0184958832436662e-08 3.2824364810069513 1.8951155565265052 5.360196269564119 3.2824364743891876 1.7923521819368588e-08 4.5687723762830565e-09 6.564872930969463" Properties=species:S:1:pos:R:3:forces:R:3 energy=-42.84233093261719 free_energy=-42.84233093261719 stress="0.0001504020910942927 5.929013280336903e-09 3.769246248452873e-08 5.929013280336903e-09 0.00015037543198559433 9.702295855618104e-09 3.769246248452873e-08 9.702295855618104e-09 0.00015039541176520288" pbc="T T T"
Mn       1.89511550       1.34004913       3.28243652      -0.00000128       0.00000148      -0.00000012
Mn       5.68534670       4.02014717       9.84730929       0.00000072       0.00000076      -0.00000101
V        0.00000001      -0.00000004      -0.00000008       0.00000184      -0.00000028       0.00000169
Cl       1.91314370       1.35279687       6.56487298       0.00340088       0.00240444       0.00000003
Cl       5.66731863       4.00739942       6.56487304      -0.00340280      -0.00240698       0.00000184
Cl       4.72877479       1.35279692       4.93926766      -0.00169964       0.00240540       0.00294719
Cl       2.85168745       4.00739942       8.19047831       0.00170102      -0.00240571      -0.00294636
Cl       2.85168744       4.00739923       4.93926758       0.00170025      -0.00240545       0.00294427
Cl       4.72877493       1.35279690       8.19047825      -0.00170098       0.00240640      -0.00294755
