9
Lattice="6.022895938589322 1.508611381099714e-08 3.477320539870943 2.0076319959680387 5.678440727552666 3.4773205360344854 8.705127244680237e-09 1.45685294320916e-09 6.9546410646641625" Properties=species:S:1:pos:R:3:forces:R:3 energy=-38.834835052490234 free_energy=-38.834835052490234 stress="-1.354898813588079e-05 1.9142799345672756e-08 2.221352701781143e-08 1.9142799345672756e-08 -1.3563419997808523e-05 -1.0137473971383315e-08 2.221352701781143e-08 -1.0137473971383315e-08 -1.3562857930082828e-05" pbc="T T T"
Mn       2.00763150       1.41961043       3.47732118      -0.00000214       0.00000230       0.00000262
Mn       6.02289653       4.25883060      10.43196467       0.00000526      -0.00000012       0.00002176
V        0.00000008       0.00000048      -0.00000005      -0.00000135      -0.00000507       0.00000005
Br       2.03083595       1.43601859       6.95464095      -0.00114162      -0.00080464      -0.00000215
Br       5.99969163       4.24242209       6.95463983       0.00114353       0.00080740      -0.00000785
Br       5.00747780       1.43601841       5.23607583       0.00057084      -0.00080485      -0.00098968
Br       3.02304970       4.24242245       8.67320516      -0.00057344       0.00080691       0.00098432
Br       3.02305073       4.24242245       5.23607593      -0.00056913       0.00080687      -0.00099055
Br       5.00747786       1.43601750       8.67320503       0.00056792      -0.00080875       0.00098130
