9
Lattice="5.807800125242833 -2.1219842009943536e-07 3.3531350457714595 1.9359332804940002 5.475646882829059 3.3531348630822686 -9.722240480422816e-08 -2.9249430201982135e-07 6.706270259937058" Properties=species:S:1:pos:R:3:forces:R:3 energy=-43.95991516113281 free_energy=-43.95991516113281 stress="5.953638537903316e-05 -2.743502847124546e-08 -2.7883453768140498e-08 -2.743502847124546e-08 5.957090252195485e-05 2.2438346292119604e-08 -2.7883453768140498e-08 2.2438346292119604e-08 5.956047971267253e-05" pbc="T T T"
Mn       1.93593172       1.36891155       3.35313659      -0.00000922      -0.00000072       0.00000811
Mn       5.80780435       4.10673473      10.05940759       0.00002517      -0.00000115       0.00001397
W       -0.00000031      -0.00000040      -0.00000112       0.00000074       0.00000646       0.00001357
Cl       1.95738417       1.38408125       6.70626967      -0.00054241      -0.00037165      -0.00000392
Cl       5.78634872       4.09156504       6.70626870       0.00053633       0.00037217      -0.00000462
Cl       4.82910704       1.38408127       5.04828094       0.00027239      -0.00038620      -0.00047206
Cl       2.91462512       4.09156587       8.36425853      -0.00027501       0.00037813       0.00045314
Cl       2.91462566       4.09156706       5.04828014      -0.00027280       0.00038265      -0.00046213
Cl       4.82910677       1.38407911       8.36425955       0.00026489      -0.00037963       0.00045400
