9
Lattice="6.747235454577749 3.0168411527127315e-08 3.8955182043849366 2.249078480864073 6.361354591080392 3.895518260569724 -1.5206138835034876e-08 5.805961343350149e-08 7.7910364351076185" Properties=species:S:1:pos:R:3:forces:R:3 energy=-36.25397872924805 free_energy=-36.25397872924805 stress="0.00020627197227440774 1.2932750426131179e-09 1.5398905262031803e-08 1.2932750426131179e-09 0.00020627232152037323 -2.0551659929424204e-08 1.5398905262031803e-08 -2.0551659929424204e-08 0.0002062684070551768" pbc="T T T"
Mn       2.24907879       1.59033851       3.89551841       0.00000118       0.00000054       0.00000074
Mn       6.74723509       4.77101594      11.68655403      -0.00000095      -0.00000098      -0.00000272
W       -0.00000011      -0.00000026      -0.00000048       0.00000035       0.00000627       0.00000771
I        2.23718663       1.58192991       7.79103639      -0.00449347      -0.00317666       0.00000007
I        6.75912756       4.77942521       7.79103657       0.00448905       0.00317466       0.00000114
I        5.62864199       1.58192989       5.83297887       0.00224648      -0.00317784      -0.00389177
I        3.36767194       4.77942493       9.74909455      -0.00224193       0.00317224       0.00388510
I        3.36767164       4.77942472       5.83297880      -0.00224678       0.00317731      -0.00389027
I        5.62864216       1.58192983       9.74909449       0.00224611      -0.00317555       0.00389000
