9
Lattice="6.8963337158654054 6.796315827917321e-08 3.9816001092324744 2.298777948404677 6.501925960882416 3.981600145536347 -2.2498904344356203e-08 2.8553872239685936e-08 7.963200257434194" Properties=species:S:1:pos:R:3:forces:R:3 energy=-35.186439514160156 free_energy=-35.186439514160156 stress="0.00012650368444155902 3.9010767949321234e-08 1.296799556627093e-09 3.9010767949321234e-08 0.0001264861784875393 4.030092259910134e-09 1.296799556627093e-09 4.030092259910134e-09 0.00012645864626392722" pbc="T T T"
Mn       2.29877826       1.62548211       3.98160040       0.00000163       0.00000122      -0.00000009
Mn       6.89633400       4.87644455      11.94480030       0.00000065      -0.00000055       0.00000102
Y       -0.00000017      -0.00000022      -0.00000033       0.00000004      -0.00000021       0.00000313
I        2.41644814       1.70868699       7.96320025      -0.00241037      -0.00170417       0.00000005
I        6.77866380       4.79323889       7.96320019       0.00240984       0.00170372      -0.00000011
I        5.68810940       1.70868695       6.07430527       0.00120417      -0.00170332      -0.00208495
I        3.50700162       4.79323920       9.85209528      -0.00120344       0.00170099       0.00208328
I        3.50700180       4.79323896       6.07430540      -0.00120535       0.00170344      -0.00208585
I        5.68810971       1.70868678       9.85209528       0.00120283      -0.00170110       0.00208355
