9
Lattice="5.054870065065912 -8.43930404966443e-08 2.9184304256814357 1.684956551247865 4.765777444193924 2.918430525345203 -1.5102332556442867e-07 1.5273076238241673e-08 5.836861112942952" Properties=species:S:1:pos:R:3:forces:R:3 energy=-56.04964828491211 free_energy=-56.04964828491211 stress="0.00038958730874583125 -1.4957103333657074e-09 -1.8619571440225968e-09 -1.4957103333657074e-09 0.0003896376001648605 4.1141273499079034e-08 -1.8619571440225968e-09 4.1141273499079034e-08 0.00038971027242951095" pbc="T T T"
Mn       1.68495683       1.19144426       2.91843005       0.00000005       0.00000034      -0.00000245
Mn       5.05486891       3.57433202       8.75528986      -0.00000320      -0.00000489      -0.00000702
Y       -0.00000009      -0.00000006      -0.00000049      -0.00000006       0.00000006       0.00000737
F        1.74093301       1.23102615       5.83686147       0.00152311       0.00107781       0.00000190
F        4.99889318       3.53475189       5.83686159      -0.00152556      -0.00107765       0.00000306
F        4.18440361       1.23102593       4.42612302      -0.00075913       0.00107471       0.00131512
F        2.55542383       3.53475130       7.24759972       0.00076559      -0.00107744      -0.00131686
F        2.55542313       3.53475170       4.42612332       0.00076109      -0.00107548       0.00131803
F        4.18440337       1.23102658       7.24759955      -0.00076182       0.00108259      -0.00131913
