9
Lattice="6.30093108485012 -3.635615471709738e-08 3.637844210044103 2.100310369237442 5.940574556994265 3.637844137475285 1.6962963372996126e-08 -7.688366662813574e-08 7.2756883907075" Properties=species:S:1:pos:R:3:forces:R:3 energy=-39.261192321777344 free_energy=-39.261192321777344 stress="0.00010800590825965628 2.6287709786743108e-08 3.66881991453738e-09 2.6287709786743108e-08 0.00010799270967254415 3.6234010236668723e-10 3.66881991453738e-09 3.6234010236668723e-10 0.00010796861170092598" pbc="T T T"
Mn       2.10031145       1.48514224       3.63784447       0.00000532      -0.00000708       0.00000159
Mn       6.30093120       4.45543088      10.91353110       0.00000026      -0.00000001      -0.00000800
Y        0.00000028       0.00000007       0.00000026      -0.00000466      -0.00000102      -0.00000283
Br       2.21468870       1.56602139       7.27568822      -0.00069169      -0.00048875      -0.00000102
Br       6.18655217       4.37455317       7.27568906       0.00069385       0.00049536       0.00000241
Br       5.19358641       1.56602120       5.55582112       0.00034209      -0.00048783      -0.00059794
Br       3.20765521       4.37455338       8.99555581      -0.00034517       0.00049093       0.00059963
Br       3.20765425       4.37455356       5.55582124      -0.00034560       0.00048879      -0.00059562
Br       5.19358622       1.56602186       8.99555572       0.00034563      -0.00049035       0.00060181
