9
Lattice="6.248310636549066 -2.706805395152863e-08 3.6074638269495143 2.0827701939905414 5.890963831463013 3.6074638142578666 -2.1760610302796607e-08 -3.093108477742249e-08 7.214927691589491" Properties=species:S:1:pos:R:3:forces:R:3 energy=-40.62470626831055 free_energy=-40.62470626831055 stress="5.701239570043981e-05 -1.2607157540145408e-09 2.3745454491574947e-09 -1.2607157540145408e-09 5.701420013792813e-05 3.4980662810824015e-09 2.3745454491574947e-09 3.4980662810824015e-09 5.701718691852875e-05" pbc="T T T"
Mn       2.08276946       1.47274082       3.60746409      -0.00000345      -0.00000056       0.00000083
Mn       6.24831120       4.41822260      10.82239209       0.00000345      -0.00000193       0.00000557
Zr       0.00000010       0.00000011       0.00000026       0.00000009      -0.00000010      -0.00000037
Br       2.13181509       1.50742120       7.21492751       0.00029266       0.00020807      -0.00000050
Br       6.19926570       4.38354258       7.21492742      -0.00029266      -0.00020713      -0.00000196
Br       5.18240313       1.50742129       5.45366992      -0.00014552       0.00020758       0.00025326
Br       3.14867760       4.38354294       8.97618501       0.00014529      -0.00020581      -0.00025503
Br       3.14867773       4.38354270       5.45367004       0.00014646      -0.00020673       0.00025310
Br       5.18240320       1.50742084       8.97618498      -0.00014631       0.00020659      -0.00025488
