9
Lattice="5.287228972257669 -1.507603771415339e-07 3.052583385941576 1.7624095399265345 4.984846727115184 3.0525833432542897 1.2762251504025155e-07 3.7961587272554665e-08 6.105166550834524" Properties=species:S:1:pos:R:3:forces:R:3 energy=-57.79800796508789 free_energy=-57.79800796508789 stress="6.064768967917189e-05 2.242828678333808e-08 7.487465758515555e-09 2.242828678333808e-08 6.066097193979658e-05 5.782920808883318e-09 7.487465758515555e-09 5.782920808883318e-09 6.065730849513784e-05" pbc="T T T"
Mn       1.76240998       1.24621094       3.05258341       0.00000042      -0.00000113       0.00000106
Mn       5.28722801       3.73863515       9.15775017      -0.00000167      -0.00000021       0.00000013
Zr      -0.00000011      -0.00000031       0.00000008      -0.00000071      -0.00000178      -0.00000310
F        1.68379868       1.19062552       6.10516690      -0.00015479      -0.00011021      -0.00000023
F        5.36583951       3.79422104       6.10516651       0.00015736       0.00011072      -0.00000029
F        4.44532935       1.19062534       4.51079581       0.00007576      -0.00010893      -0.00013322
F        2.60430947       3.79422149       7.69953704      -0.00007772       0.00011104       0.00013587
F        2.60430897       3.79422143       4.51079638      -0.00007722       0.00010988      -0.00013545
F        4.44533027       1.19062580       7.69953748       0.00007853      -0.00010964       0.00013515
