9
Lattice="6.841978466298212 8.757426146810202e-08 3.950218094057301 2.280659638784242 6.450679106718203 3.9502179772264214 8.3133844109194e-08 -8.430354144038528e-08 7.9004360441225385" Properties=species:S:1:pos:R:3:forces:R:3 energy=-36.320587158203125 free_energy=-36.320587158203125 stress="7.517709309468046e-05 1.2666481197243229e-08 7.457690465173528e-09 1.2666481197243229e-08 7.516258483519778e-05 -1.129977089675549e-08 7.457690465173528e-09 -1.129977089675549e-08 7.515633478760719e-05" pbc="T T T"
Mn       2.28065907       1.61267018       3.95021795      -0.00000144       0.00000203      -0.00000088
Mn       6.84197868       4.83800916      11.85065442      -0.00000106      -0.00000152       0.00000199
Zr       0.00000030       0.00000020      -0.00000039      -0.00000263      -0.00000164       0.00000160
I        2.32196130       1.64187464       7.90043601      -0.00046808      -0.00033146      -0.00000007
I        6.80067663       4.80880417       7.90043586       0.00047149       0.00033259       0.00000030
I        5.68099823       1.64187470       5.96109521       0.00023413      -0.00033017      -0.00040431
I        3.44164008       4.80880464       9.83977710      -0.00023227       0.00032918       0.00040289
I        3.44164050       4.80880438       5.96109546      -0.00023399       0.00033195      -0.00040612
I        5.68099798       1.64187436       9.83977686       0.00023388      -0.00033097       0.00040462
