9
Lattice="4.047328109219844 1.2915479788149594e-07 2.3367264243643397 1.349109610687263 3.8158569584742814 2.3367262179403063 4.884851163228599e-08 -2.182757195384842e-07 4.673452764120605" Properties=species:S:1:pos:R:3:forces:R:3 energy=-28.174978256225586 free_energy=-28.174978256225586 stress="-3.0381308533833362e-05 -2.5003059818118345e-06 4.0898743236539303e-07 -2.5003059818118345e-06 -2.7685875465977006e-05 4.2262780652890797e-07 4.0898743236539303e-07 4.2262780652890797e-07 -3.822803410002962e-05" pbc="T T T"
Mo       1.34909896       0.95395481       2.33672985      -0.00036682      -0.00033805       0.00011899
Mo       4.04733899       2.86190153       7.01018060       0.00032466       0.00025702       0.00003699
As      -0.00000298      -0.00000460       0.00000278      -0.00003442      -0.00005805       0.00005687
F        1.53054843       1.08226181       4.67344866      -0.00034928      -0.00024283      -0.00008897
F        3.86588458       2.73359434       4.67345106       0.00027084       0.00024676      -0.00004142
F        3.28205588       1.08226063       3.66222610       0.00025046      -0.00031745      -0.00013494
F        2.11438306       2.73360257       5.68467613      -0.00022304       0.00045848       0.00005770
F        2.11438544       2.73359883       3.66222781      -0.00019515       0.00037134      -0.00010037
F        3.28205874       1.08225767       5.68467843       0.00032413      -0.00037730       0.00009656
