9
Lattice="5.4040951916575075 1.1368637412767976e-09 3.1200558616615477 1.8013650522360243 5.095029771299305 3.1200558836960886 3.345169361136859e-08 5.064062536250407e-08 6.240111665383069" Properties=species:S:1:pos:R:3:forces:R:3 energy=-42.552059173583984 free_energy=-42.552059173583984 stress="0.0004611969052348286 -4.8027054333488195e-08 -1.7271037933141997e-08 -4.8027054333488195e-08 0.0004611765034496784 5.455489215933085e-08 -1.7271037933141997e-08 5.455489215933085e-08 0.0004611988551914692" pbc="T T T"
Mo       1.80136360       1.27375688       3.12005557      -0.00001836      -0.00000375      -0.00000133
Mo       5.40409491       3.82127143       9.36016574      -0.00000563      -0.00000731      -0.00001751
As      -0.00000027      -0.00000012       0.00000010      -0.00000092      -0.00000293      -0.00000263
S        1.89395270       1.33922781       6.24011138      -0.00581419      -0.00410277      -0.00000441
S        5.31150723       3.75580226       6.24011209       0.00581539       0.00410581       0.00000833
S        4.45711841       1.33922699       4.76026805       0.00290817      -0.00411487      -0.00503010
S        2.74834276       3.75580249       7.71995647      -0.00289828       0.00411147       0.00503951
S        2.74834251       3.75580396       4.76026823      -0.00290096       0.00411814      -0.00502533
S        4.45711931       1.33922785       7.71995579       0.00291526      -0.00410360       0.00503290
