9
Lattice="5.529206889047579 7.420262488512511e-08 3.1922891260592685 1.8430689986438578 5.212986432131937 3.1922891855221205 6.283916804439403e-08 1.172608662592859e-07 6.384578143277906" Properties=species:S:1:pos:R:3:forces:R:3 energy=-38.76400375366211 free_energy=-38.76400375366211 stress="6.52628586976789e-05 3.5822911303995397e-09 -3.067874487783229e-08 3.5822911303995397e-09 6.528933590743691e-05 -3.046691077202013e-08 -3.067874487783229e-08 -3.046691077202013e-08 6.524259515572339e-05" pbc="T T T"
Mo       1.84306922       1.30324701       3.19228866       0.00000171       0.00000336      -0.00000391
Mo       5.52920663       3.90974049       9.57686796      -0.00000433       0.00000357       0.00000405
As      -0.00000005       0.00000009       0.00000003       0.00000070      -0.00000002       0.00000399
Se       2.08701020       1.47573854       6.38457820       0.00238159       0.00168236       0.00000203
Se       5.28526590       3.73724759       6.38457784      -0.00238192      -0.00168455      -0.00000077
Se       4.48570198       1.47573930       4.99969274      -0.00118765       0.00168072       0.00206006
Se       2.88657405       3.73724747       7.76946403       0.00119080      -0.00168554      -0.00206296
Se       2.88657401       3.73724719       4.99969250       0.00119045      -0.00168343       0.00206168
Se       4.48570189       1.47573887       7.76946384      -0.00119120       0.00168346      -0.00206399
