9
Lattice="6.0262600803638255 -1.1153183810890569e-07 3.4792627660809368 2.00875326410832 5.681612135028048 3.4792627502495055 -4.1925883225639797e-08 -4.9035511812916984e-08 6.9585256047795925" Properties=species:S:1:pos:R:3:forces:R:3 energy=-33.27617263793945 free_energy=-33.27617263793945 stress="0.0002664694911800325 -1.5196613412093996e-10 5.1266821898821036e-09 -1.5196613412093996e-10 0.00026646562037058175 -3.680092897084819e-09 5.1266821898821036e-09 -3.680092897084819e-09 0.00026648849598132074" pbc="T T T"
Mo       2.00875297       1.42040297       3.47926258      -0.00000031      -0.00000023      -0.00000024
Mo       6.02625983       4.26120907      10.43778834      -0.00000047      -0.00000002      -0.00000034
As       0.00000021      -0.00000006       0.00000009      -0.00000043       0.00000199       0.00000192
Br       2.07986174       1.47068396       6.95852551       0.00514045       0.00363464      -0.00000013
Br       5.95515185       4.21092782       6.95852547      -0.00514161      -0.00363501       0.00000028
Br       4.98632935       1.47068385       5.28047590      -0.00256984       0.00363478       0.00445178
Br       3.04868398       4.21092794       8.63657536       0.00257122      -0.00363521      -0.00445403
Br       3.04868421       4.21092806       5.28047570       0.00257125      -0.00363590       0.00445194
Br       4.98632908       1.47068431       8.63657556      -0.00257028       0.00363497      -0.00445124
