9
Lattice="5.758781546849478 1.3938142724933835e-07 3.324834019046143 1.9195939626601497 5.429431417361346 3.324834049702977 1.4825556702010506e-07 1.4237930821682888e-07 6.6496677813061185" Properties=species:S:1:pos:R:3:forces:R:3 energy=-35.74560546875 free_energy=-35.74560546875 stress="-2.710516309889499e-05 -3.199887999016937e-08 7.25531523748657e-10 -3.199887999016937e-08 -2.7003776267520152e-05 -1.1530781662827394e-08 7.25531523748657e-10 -1.1530781662827394e-08 -2.707323437789455e-05" pbc="T T T"
Mo       1.91959356       1.35735786       3.32483416      -0.00000001       0.00000170      -0.00000086
Mo       5.75878176       4.07207398       9.97450151       0.00000026       0.00000006      -0.00000181
As       0.00000009      -0.00000002       0.00000009       0.00000142       0.00000114       0.00000103
Cl       1.95023611       1.37902450       6.64966808       0.00424288       0.00300038       0.00000113
Cl       5.72813969       4.05040699       6.64966805      -0.00424527      -0.00300115       0.00000071
Cl       4.78366393       1.37902539       5.01378763      -0.00211968       0.00299836       0.00367408
Cl       2.89471183       4.05040639       8.28554832       0.00212040      -0.00299969      -0.00367429
Cl       2.89471140       4.05040638       5.01378781       0.00211949      -0.00299915       0.00367432
Cl       4.78366416       1.37902530       8.28554779      -0.00211949       0.00299849      -0.00367432
