9
Lattice="4.4026099731719475 2.6569780551786264e-10 2.5418480861268957 1.4675366459430161 4.150820588147801 2.541848106966012 -1.9726938469141353e-08 1.1573560448124278e-08 5.083696206421844" Properties=species:S:1:pos:R:3:forces:R:3 energy=-54.94256591796875 free_energy=-54.94256591796875 stress="0.00017108967585954815 5.2059405675208836e-08 6.404429342410367e-08 5.2059405675208836e-08 0.0001709778734948486 1.2212419164825405e-07 6.404429342410367e-08 1.2212419164825405e-07 0.00017087842570617795" pbc="T T T"
Mo       1.46753519       1.03770596       2.54184817      -0.00002291       0.00000904       0.00000279
Mo       4.40260844       3.11311453       7.62554507      -0.00002409      -0.00001270       0.00000868
As       0.00000014       0.00000007      -0.00000030       0.00000384      -0.00000520       0.00000556
O        1.47318456       1.04169959       5.08369631      -0.00069559      -0.00048542      -0.00000058
O        4.39696271       3.10912085       5.08369585       0.00070786       0.00048399      -0.00000208
O        3.66601753       1.04169917       3.81766330       0.00035012      -0.00049269      -0.00060725
O        2.20412994       3.10912185       6.34972917      -0.00033337       0.00049376       0.00060570
O        2.20412990       3.10912172       3.81766344      -0.00033921       0.00049901      -0.00060892
O        3.66601790       1.04169872       6.34972855       0.00035292      -0.00049067       0.00059474
