9
Lattice="5.920352382039638 -4.8589645796671726e-08 3.4181169876231388 1.9734507184296095 5.58176172403709 3.4181170391912112 -1.0996530710685885e-08 5.538199343872219e-08 6.836233994292819" Properties=species:S:1:pos:R:3:forces:R:3 energy=-33.73089599609375 free_energy=-33.73089599609375 stress="0.00035380685585550964 -3.759036815154104e-08 7.741038032804681e-09 -3.759036815154104e-08 0.00035381995257921517 -1.001735761008149e-08 7.741038032804681e-09 -1.001735761008149e-08 0.00035383368958719075" pbc="T T T"
Mo       1.97345005       1.39544078       3.41811721      -0.00000054       0.00000044       0.00000012
Mo       5.92035255       4.18632138      10.25435007      -0.00000030      -0.00000021      -0.00000147
B       -0.00000019       0.00000031      -0.00000082      -0.00000085       0.00000098      -0.00000453
Br       1.82543626       1.29077831       6.83623416      -0.00729522      -0.00515969      -0.00000027
Br       6.06836700       4.29098336       6.83623429       0.00729609       0.00516018       0.00000186
Br       5.00763453       1.29077816       4.99899131       0.00364619      -0.00515901      -0.00631845
Br       2.88616880       4.29098325       8.67347740      -0.00364669       0.00516000       0.00632045
Br       2.88616874       4.29098311       4.99899138      -0.00364754       0.00515774      -0.00631824
Br       5.00763459       1.29077820       8.67347726       0.00364888      -0.00516066       0.00632036
