9
Lattice="6.362863839464427 7.240654494599761e-09 3.673601074347304 2.1209546283493643 5.9989652761470715 3.673601059853519 -9.160625411071832e-08 -8.252659036485333e-08 7.347202307361315" Properties=species:S:1:pos:R:3:forces:R:3 energy=-29.059038162231445 free_energy=-29.059038162231445 stress="0.0002465799043420702 2.421480349568128e-09 -6.463202750772723e-10 2.421480349568128e-09 0.000246586452703923 -6.031578347887034e-09 -6.463202750772723e-10 -6.031578347887034e-09 0.00024659791961312294" pbc="T T T"
Mo       2.12095476       1.49974113       3.67360169       0.00000085      -0.00000009       0.00000201
Mo       6.36286381       4.49922394      11.02080409       0.00000028      -0.00000049       0.00000280
B        0.00000010       0.00000023       0.00000005       0.00000005      -0.00000018       0.00000047
I        2.01249308       1.42304725       7.34720208       0.00332046       0.00234877      -0.00000073
I        6.47132509       4.57591784       7.34720180      -0.00332030      -0.00234711      -0.00000139
I        5.35661703       1.42304739       5.41647108      -0.00166108       0.00234784       0.00287452
I        3.12720117       4.57591786       9.27793289       0.00166010      -0.00234745      -0.00287635
I        3.12720097       4.57591776       5.41647113       0.00165946      -0.00234873       0.00287527
I        5.35661751       1.42304738       9.27793300      -0.00165972       0.00234760      -0.00287652
