9
Lattice="6.394163658565489 1.1175502297585922e-07 3.691672130506795 2.1313879823703528 6.028475416654153 3.691672146410126 3.842802552590154e-08 4.665020001520672e-08 7.383344194454351" Properties=species:S:1:pos:R:3:forces:R:3 energy=-28.86071014404297 free_energy=-28.86071014404297 stress="6.541577022289857e-05 5.3292303903162974e-09 -1.6096732835535477e-09 5.3292303903162974e-09 6.539491732837632e-05 -5.820385950983109e-09 -1.6096732835535477e-09 -5.820385950983109e-09 6.539847527164966e-05" pbc="T T T"
Mo       2.13138795       1.50711833       3.69167221      -0.00000079      -0.00000151       0.00000068
Mo       6.39416371       4.52135706      11.07501606      -0.00000006       0.00000034      -0.00000050
Be      -0.00000005       0.00000001       0.00000019       0.00000057       0.00000000       0.00000049
I        2.09510300       1.48146174       7.38334438       0.00128554       0.00090952       0.00000031
I        6.43044853       4.54701393       7.38334432      -0.00128540      -0.00090858      -0.00000005
I        5.34661225       1.48146168       5.50608442      -0.00064347       0.00090922       0.00111456
I        3.17893963       4.54701417       9.26060388       0.00064408      -0.00090937      -0.00111451
I        3.17893925       4.54701393       5.50608453       0.00064317      -0.00090904       0.00111352
I        5.34661241       1.48146144       9.26060392      -0.00064370       0.00090947      -0.00111446
