9
Lattice="4.667268334310601 -2.6498784520553795e-07 2.6946479133614964 1.5557561606854957 4.400340620112118 2.6946473953366343 3.511461988937428e-07 -3.861502315771708e-07 5.389295218519865" Properties=species:S:1:pos:R:3:forces:R:3 energy=-46.23910903930664 free_energy=-46.23910903930664 stress="-0.0001675084640737623 1.2259697541594505e-06 -6.803496148677368e-07 1.2259697541594505e-06 -0.00016669258184265345 -4.925791472487617e-07 -6.803496148677368e-07 -4.925791472487617e-07 -0.00016432689153589308" pbc="T T T"
Mo       1.55555999       1.10004016       2.69467473      -0.00177500      -0.00040144       0.00020540
Mo       4.66716676       3.30023641       8.08392868      -0.00111220      -0.00022238      -0.00007820
Be       0.00004787       0.00000596      -0.00000276       0.00003028       0.00000659      -0.00000142
F        1.44035125       1.01846442       5.38928934       0.00125092       0.00066531      -0.00006693
F        4.78272279       3.38185337       5.38929661      -0.00059718      -0.00078905       0.00001426
F        3.94715338       1.01847822       3.94202838       0.00008976       0.00078738       0.00096205
F        2.27597113       3.38190437       6.83657667       0.00100383      -0.00040436      -0.00085765
F        2.27596110       3.38189671       3.94201150       0.00093508      -0.00046694       0.00082752
F        3.94716609       1.01848222       6.83655864       0.00017449       0.00082502      -0.00100490
