9
Lattice="5.838766888026061 -1.2945513001472772e-07 3.3710136180838863 1.946255553054628 5.5048417980922615 3.3710135388181564 8.734840748976235e-08 -3.5315615663591376e-08 6.742027084875872" Properties=species:S:1:pos:R:3:forces:R:3 energy=-33.36857223510742 free_energy=-33.36857223510742 stress="0.00018505839398130774 2.245011510026984e-09 3.081855481923412e-08 2.245011510026984e-09 0.0001850356929935515 2.7135516944554183e-08 3.081855481923412e-08 2.7135516944554183e-08 0.0001850581611506641" pbc="T T T"
Mo       1.94625683       1.37621084       3.37101422       0.00000774       0.00000045       0.00000387
Mo       5.83876694       4.12863056      10.11304275       0.00000142      -0.00000307       0.00001023
Be      -0.00000019      -0.00000003       0.00000012       0.00000028      -0.00000063      -0.00000222
Br       1.92631342       1.36210971       6.74202661       0.00006568       0.00004782      -0.00000248
Br       5.85870902       4.14273197       6.74202668      -0.00006785      -0.00004919      -0.00000349
Br       4.87560960       1.36210980       5.03924935      -0.00003585       0.00005123       0.00005672
Br       2.90941245       4.14273230       8.44480366       0.00003077      -0.00004470      -0.00005685
Br       2.90941266       4.14273222       5.03924955       0.00003449      -0.00004860       0.00005575
Br       4.87560935       1.36210910       8.44480396      -0.00003684       0.00004662      -0.00006171
