9
Lattice="5.60431965649319 -1.3277381542979416e-07 3.2356562544656824 1.868106459454154 5.283802992744814 3.235656198225813 5.574826270270918e-08 -2.9459531901542846e-08 6.471312412372532" Properties=species:S:1:pos:R:3:forces:R:3 energy=-36.52336120605469 free_energy=-36.52336120605469 stress="0.00017855169426184148 4.7912013911854956e-08 1.3589756875376224e-08 4.7912013911854956e-08 0.0001785087224561721 4.588465074562009e-08 1.3589756875376224e-08 4.588465074562009e-08 0.00017866237612906843" pbc="T T T"
Mo       1.86810641       1.32095160       3.23565684       0.00000079       0.00000397       0.00000209
Mo       5.60431940       3.96285399       9.70696906      -0.00000132       0.00000667       0.00000191
B       -0.00000007      -0.00000048       0.00000000       0.00000053      -0.00000094      -0.00000155
Cl       1.66313761       1.17601566       6.47131236      -0.00122237      -0.00086682      -0.00000154
Cl       5.80928860       4.10778671       6.47131209       0.00122373       0.00086434      -0.00000065
Cl       4.77275092       1.17601528       4.67597620       0.00060866      -0.00086573      -0.00106105
Cl       2.69967572       4.10778680       8.26664867      -0.00061144       0.00086299       0.00106224
Cl       2.69967545       4.10778625       4.67597563      -0.00060976       0.00086148      -0.00106160
Cl       4.77275072       1.17601551       8.26664858       0.00061112      -0.00086576       0.00105955
