9
Lattice="3.8359778322975666 1.313057549803408e-07 2.21470291080266 1.278659367957369 3.616594710593957 2.2147029684304362 -1.321093958130938e-08 6.123778568813952e-08 4.429405844487336" Properties=species:S:1:pos:R:3:forces:R:3 energy=-40.341007232666016 free_energy=-40.341007232666016 stress="0.00022744250600226223 4.422626886935177e-07 -8.060220579864108e-08 4.422626886935177e-07 0.00022746805916540325 4.2585264736771933e-07 -8.060220579864108e-08 4.2585264736771933e-07 0.0002275015285704285" pbc="T T T"
Mo       1.27866004       0.90414823       2.21470230      -0.00000531      -0.00000240      -0.00000653
Mo       3.83597736       2.71244661       6.64410921      -0.00000326       0.00000445       0.00001004
B       -0.00000021       0.00000001       0.00000011       0.00000615      -0.00000215       0.00001244
F        1.30681415       0.92405765       4.42940565      -0.00388932      -0.00275445       0.00000117
F        3.80782291       2.69253720       4.42940602       0.00389433       0.00275159      -0.00000380
F        3.18257053       0.92405762       3.34643776       0.00195414      -0.00276035      -0.00337374
F        1.93206659       2.69253762       5.51237401      -0.00194246       0.00275022       0.00338209
F        1.93206656       2.69253712       3.34643775      -0.00195903       0.00276250      -0.00337791
F        3.18257085       0.92405757       5.51237417       0.00194454      -0.00274873       0.00335336
