9
Lattice="5.431127813847951 -3.1848686553679485e-07 3.135662551825392 1.8103756758202454 5.120515466394848 3.1356624857593993 -9.828780112569246e-10 -8.160898567537034e-08 6.27132510535316" Properties=species:S:1:pos:R:3:forces:R:3 energy=-36.500728607177734 free_energy=-36.500728607177734 stress="0.0004467015969567001 9.964883140867187e-09 1.7920179118391388e-08 9.964883140867187e-09 0.0004466846294235438 3.726105290979831e-08 1.7920179118391388e-08 3.726105290979831e-08 0.0004466561949811876" pbc="T T T"
Mo       1.81037656       1.28012839       3.13566245       0.00000530      -0.00000008      -0.00000012
Mo       5.43112831       3.84038578       9.40698942       0.00000702      -0.00000332       0.00001071
Be      -0.00000005       0.00000004      -0.00000010      -0.00000098      -0.00000002      -0.00000183
Cl       1.78927149       1.26520565       6.27132501       0.00249983       0.00177040      -0.00000097
Cl       5.45223182       3.85530981       6.27132435      -0.00250626      -0.00176914      -0.00000340
Cl       4.53649215       1.26520582       4.68521663      -0.00125133       0.00177158       0.00216688
Cl       2.70501076       3.85530975       7.85743306       0.00124820      -0.00176830      -0.00217045
Cl       2.70501112       3.85530959       4.68521651       0.00125005      -0.00177184       0.00216728
Cl       4.53649179       1.26520538       7.85743320      -0.00125181       0.00177076      -0.00216781
