9
Lattice="5.666953982826943 2.3715833136554716e-08 3.271817445974089 1.8889846429434134 5.342855338792699 3.2718175158769265 1.8728307217840406e-08 9.885604988468722e-08 6.543634859509816" Properties=species:S:1:pos:R:3:forces:R:3 energy=-33.50742721557617 free_energy=-33.50742721557617 stress="0.0001290276850340888 -1.34581483735019e-08 3.062759290628492e-08 -1.34581483735019e-08 0.0001290649379370734 -2.0006705625519317e-08 3.062759290628492e-08 -2.0006705625519317e-08 0.00012899917783215642" pbc="T T T"
Mo       1.88898534       1.33571215       3.27181723       0.00000407      -0.00000693      -0.00000252
Mo       5.66695435       4.00714330       9.81545490       0.00000369       0.00000883       0.00001551
C       -0.00000019      -0.00000016      -0.00000001       0.00000069      -0.00000004      -0.00000102
Cl       1.91323219       1.35285923       6.54363465       0.00639579       0.00452001      -0.00000041
Cl       5.64270617       3.98999644       6.54363414      -0.00639892      -0.00452031      -0.00000374
Cl       4.71033809       1.35285939       4.92872490      -0.00319931       0.00452133       0.00553945
Cl       2.84560019       3.98999638       8.15854427       0.00319672      -0.00452279      -0.00554343
Cl       2.84560128       3.98999651       4.92872513       0.00319895      -0.00451776       0.00553744
Cl       4.71033712       1.35285868       8.15854409      -0.00320184       0.00451790      -0.00554140
