9
Lattice="3.8469592689749765 4.4575792171498667e-07 2.221043977136326 1.2823201427538027 3.6269492236155485 2.2210440357415138 -1.2590314096801553e-07 -1.7250580262815052e-08 4.4420881723432615" Properties=species:S:1:pos:R:3:forces:R:3 energy=-41.356197357177734 free_energy=-41.356197357177734 stress="2.0157647668384016e-05 3.414446325678e-07 2.1882428313801938e-07 3.414446325678e-07 2.16423359233886e-05 6.933619260962587e-07 2.1882428313801938e-07 6.933619260962587e-07 2.1591094991890714e-05" pbc="T T T"
Mo       1.28232160       0.90674107       2.22104019       0.00002513       0.00002212      -0.00003523
Mo       3.84695742       2.72020896       6.66313672      -0.00002420      -0.00003072       0.00002142
C       -0.00000004       0.00000006      -0.00000010      -0.00000178      -0.00000429      -0.00000157
F        1.32853836       0.93941842       4.44208753       0.00202167       0.00143063       0.00000095
F        3.80074054       2.68753027       4.44208801      -0.00201213      -0.00141138       0.00000941
F        3.18268988       0.93941850       3.37159311      -0.00101322       0.00142580       0.00174153
F        1.94658945       2.68753101       5.51258335       0.00100780      -0.00142419      -0.00174797
F        1.94658855       2.68753092       3.37159247       0.00101489      -0.00143641       0.00175869
F        3.18269089       0.93941900       5.51258348      -0.00101727       0.00142908      -0.00174618
