9
Lattice="5.967006403271748 8.668640420329443e-09 3.445052779111742 1.989002139754236 5.625747509931493 3.44505278403514 -1.385806557245608e-09 5.050033205814209e-09 6.890105560623747" Properties=species:S:1:pos:R:3:forces:R:3 energy=-32.19348907470703 free_energy=-32.19348907470703 stress="-0.00020754798606503755 -1.9365606340748798e-10 -5.3299618052449205e-09 -1.9365606340748798e-10 -0.00020752567797899246 4.929471053571888e-09 -5.3299618052449205e-09 4.929471053571888e-09 -0.0002075567899737507" pbc="T T T"
Mo       1.98900216       1.40643596       3.44505254      -0.00000103      -0.00000353       0.00000105
Mo       5.96700616       4.21931074      10.33515958      -0.00000033      -0.00000044       0.00000378
C       -0.00000002      -0.00000050       0.00000036      -0.00000021      -0.00000102       0.00000178
Br       1.97431164       1.39604950       6.89010575      -0.00168735      -0.00119373       0.00000131
Br       5.98169675       4.22969859       6.89010531       0.00168744       0.00119662      -0.00000067
Br       4.97985070       1.39604955       5.15485660       0.00084417      -0.00119257      -0.00146297
Br       2.97615797       4.22969865       8.62535373      -0.00084384       0.00119483       0.00146025
Br       2.97615819       4.22969834       5.15485658      -0.00084308       0.00119278      -0.00146422
Br       4.97985061       1.39604930       8.62535401       0.00084445      -0.00119302       0.00145951
