9
Lattice="6.394728774794719 4.027546215051151e-08 3.6919983879131864 2.1315763258238407 6.029008066668176 3.691998336667202 -6.9715848032750325e-09 -6.769288576539344e-08 7.383996787901515" Properties=species:S:1:pos:R:3:forces:R:3 energy=-29.127023696899414 free_energy=-29.127023696899414 stress="0.00013010657858103514 1.164183416335618e-09 7.444576954895865e-09 1.164183416335618e-09 0.00013011437840759754 4.034374168071508e-09 7.444576954895865e-09 4.034374168071508e-09 0.000130101791000925" pbc="T T T"
Mo       2.13157654       1.50725162       3.69199806      -0.00000021      -0.00000077      -0.00000103
Mo       6.39472829       4.52175643      11.07599501      -0.00000147       0.00000158       0.00000063
C       -0.00000011      -0.00000011       0.00000008      -0.00000103      -0.00000035      -0.00000015
I        2.15636912       1.52478311       7.38399692       0.00018322       0.00012863      -0.00000040
I        6.36993592       4.50422501       7.38399681      -0.00018167      -0.00012919       0.00000004
I        5.31654444       1.52478296       5.55946888      -0.00009139       0.00012994       0.00015807
I        3.20976118       4.50422488       9.20852470       0.00009124      -0.00012898      -0.00015756
I        3.20976088       4.50422516       5.55946885       0.00009274      -0.00012901       0.00015825
I        5.31654410       1.52478305       9.20852470      -0.00009166       0.00012812      -0.00015780
