9
Lattice="5.253239502307141 -1.0120187338481836e-08 3.032959076736191 1.751079829413337 4.952801671678573 3.0329590683316527 -4.9977999731567585e-09 -1.3827391061830324e-08 6.065918162128882" Properties=species:S:1:pos:R:3:forces:R:3 energy=-42.22165298461914 free_energy=-42.22165298461914 stress="0.00034439333830960095 4.9728097195611554e-08 -2.6062565439133323e-08 4.9728097195611554e-08 0.0003443882742431015 8.698236086956967e-08 -2.6062565439133323e-08 8.698236086956967e-08 0.0003444062022026628" pbc="T T T"
Mo       1.75107977       1.23820043       3.03295964      -0.00000023      -0.00000011       0.00000322
Mo       5.25323919       3.71460081       9.09887752      -0.00000286      -0.00000246       0.00000221
Ga       0.00000008      -0.00000015      -0.00000021      -0.00000229       0.00000511       0.00000200
S        1.85402033       1.31099018       6.06591806      -0.00679082      -0.00480288      -0.00000059
S        5.15029902       3.64181140       6.06591837       0.00679198       0.00480270       0.00000045
S        4.32622971       1.31099067       4.63858776       0.00340021      -0.00480442      -0.00588605
S        2.67808990       3.64181159       7.49324797      -0.00339617       0.00480351       0.00587726
S        2.67808989       3.64181120       4.63858723      -0.00339414       0.00479789      -0.00588226
S        4.32622942       1.31099053       7.49324876       0.00339423      -0.00479934       0.00588354
