9
Lattice="5.704691973930862 -4.747751904488905e-09 3.2936053778491394 1.9015640237360396 5.378434945103899 3.293605313933043 7.585534577057568e-09 -7.291711384654027e-08 6.587210742559726" Properties=species:S:1:pos:R:3:forces:R:3 energy=-35.82492446899414 free_energy=-35.82492446899414 stress="-1.535650881123729e-05 -1.1216710227301974e-08 -1.1794266896458794e-08 -1.1216710227301974e-08 -1.539156073704362e-05 -2.4477182947180154e-08 -1.1794266896458794e-08 -2.4477182947180154e-08 -1.5383262507384643e-05" pbc="T T T"
Mo       1.90156367       1.34460924       3.29360455      -0.00000173       0.00000125      -0.00000254
Mo       5.70469166       4.03382527       9.88081553      -0.00000143      -0.00000328      -0.00000259
Ga       0.00000017       0.00000013       0.00000019       0.00000011      -0.00000073       0.00000444
Cl       1.91891933       1.35688091       6.58721101       0.00140095       0.00099149       0.00000151
Cl       5.68733673       4.02155401       6.58721102      -0.00139955      -0.00099004       0.00000113
Cl       4.74523249       1.35688086       4.95543838      -0.00069874       0.00098982       0.00121295
Cl       2.86102379       4.02155402       8.21898357       0.00070125      -0.00099280      -0.00121415
Cl       2.86102382       4.02155402       4.95543830       0.00069983      -0.00098934       0.00121346
Cl       4.74523246       1.35688099       8.21898321      -0.00070053       0.00099364      -0.00121430
