9
Lattice="4.4040052545057735 -3.103310345922988e-08 2.5426539298087807 1.4680017685191504 4.152135973964245 2.5426538496572157 2.1667371514747526e-07 5.5046227600292526e-08 5.085307484327646" Properties=species:S:1:pos:R:3:forces:R:3 energy=-50.65507507324219 free_energy=-50.65507507324219 stress="-7.371741230599582e-05 -7.92006247252175e-08 -3.1967053359949205e-07 -7.92006247252175e-08 -7.364495104411617e-05 -2.1851937503925e-07 -3.1967053359949205e-07 -2.1851937503925e-07 -7.36517904442735e-05" pbc="T T T"
Mo       1.46800303       1.03803377       2.54265232       0.00001584      -0.00000225      -0.00001688
Mo       4.40400688       3.11410256       7.62796605       0.00002485       0.00000648       0.00006190
Ga       0.00000005      -0.00000002       0.00000010       0.00000128      -0.00000029      -0.00000123
O        1.51482154       1.07114007       5.08530774      -0.00002325      -0.00001711      -0.00000175
O        4.35718553       3.08099548       5.08530689       0.00001746       0.00001872      -0.00001537
O        3.64659445       1.07114149       3.85452644       0.00000918      -0.00000221      -0.00002843
O        2.22541056       3.08099469       6.31608689      -0.00003842       0.00000572       0.00001204
O        2.22541315       3.08099639       3.85452763      -0.00000530       0.00002408      -0.00002152
O        3.64659391       1.07113947       6.31608689      -0.00000235      -0.00003332       0.00001043
