9
Lattice="6.550480521274121 -3.0774553805989035e-08 3.781921627680115 2.183493517732995 6.175851927750128 3.7819215589936546 7.731556750567468e-08 -2.9453009662296145e-08 7.563843121445737" Properties=species:S:1:pos:R:3:forces:R:3 energy=-28.143491744995117 free_energy=-28.143491744995117 stress="0.0002282187924720347 5.554343651681393e-09 3.971503570454615e-09 5.554343651681393e-09 0.00022822446771897376 1.2935056359353325e-09 3.971503570454615e-09 1.2935056359353325e-09 0.0002281952038174495" pbc="T T T"
Mo       2.18349360       1.54396298       3.78192162       0.00000067       0.00000078      -0.00000060
Mo       6.55048051       4.63188912      11.34576486      -0.00000024       0.00000011       0.00000098
Ga       0.00000012       0.00000004       0.00000008      -0.00000046      -0.00000059       0.00000029
I        2.23931790       1.58343683       7.56384306       0.00386725       0.00273434      -0.00000016
I        6.49465612       4.59241497       7.56384309      -0.00386633      -0.00273325      -0.00000004
I        5.43082156       1.58343679       5.72122768      -0.00193394       0.00273378       0.00334931
I        3.30315251       4.59241505       9.40645865       0.00193345      -0.00273439      -0.00334939
I        3.30315246       4.59241503       5.72122771       0.00193392      -0.00273378       0.00334892
I        5.43082165       1.58343668       9.40645850      -0.00193438       0.00273308      -0.00334943
