9
Lattice="5.982903110333116 -1.804267193269705e-08 3.454230699780871 1.9943010220554613 5.640735348752041 3.4542306958170195 -7.871380345345963e-08 -6.051377518413018e-08 6.908461535898062" Properties=species:S:1:pos:R:3:forces:R:3 energy=-33.11838912963867 free_energy=-33.11838912963867 stress="0.0002821381203830242 1.3259114695074459e-08 -9.409475865140848e-09 1.3259114695074459e-08 0.0002821476955432445 -1.958075479535637e-09 -9.409475865140848e-09 -1.958075479535637e-09 0.0002821496454998851" pbc="T T T"
Mo       1.99430122       1.41018363       3.45423063      -0.00000017      -0.00000022       0.00000005
Mo       5.98290286       4.23055119      10.36269183       0.00000021      -0.00000000      -0.00000079
Ga      -0.00000009       0.00000010       0.00000008      -0.00000002       0.00000033      -0.00000137
Br       2.03426879       1.43844530       6.90846153       0.00218487       0.00154479       0.00000002
Br       5.94293547       4.20229008       6.90846155      -0.00218599      -0.00154437       0.00000034
Br       4.96576872       1.43844539       5.21595902      -0.00109310       0.00154556       0.00189216
Br       3.01143524       4.20229006       8.60096393       0.00109261      -0.00154510      -0.00189257
Br       3.01143532       4.20229004       5.21595920       0.00109383      -0.00154631       0.00189397
Br       4.96576872       1.43844528       8.60096399      -0.00109220       0.00154555      -0.00189176
