9
Lattice="4.062334981838678 -8.975437125431763e-08 2.3453901589677484 1.354111614445296 3.83000590060602 2.345390092364091 2.161886151907695e-08 -6.628564090421934e-08 4.690780280490531" Properties=species:S:1:pos:R:3:forces:R:3 energy=-34.36994171142578 free_energy=-34.36994171142578 stress="-0.00014575191016774625 1.0529679173032491e-07 -1.982045283455136e-08 1.0529679173032491e-07 -0.00014579782146029174 1.175640846895476e-07 -1.982045283455136e-08 1.175640846895476e-07 -0.0001460180210415274" pbc="T T T"
Mo       1.35411169       0.95750152       2.34539017       0.00000253       0.00000036       0.00000096
Mo       4.06233484       2.87250417       7.03617043      -0.00000360       0.00000237       0.00000157
Ga       0.00000005      -0.00000012       0.00000013      -0.00000082       0.00000352      -0.00000159
F        1.46159835       1.03350590       4.69078020       0.00139478       0.00098234       0.00000423
F        3.95484833       2.79649986       4.69078022      -0.00140038      -0.00098634      -0.00000140
F        3.33153575       1.03350600       3.61117144      -0.00069590       0.00098753       0.00120521
F        2.08491081       2.79649978       5.77038923       0.00070064      -0.00098875      -0.00121191
F        2.08491085       2.79649976       3.61117123       0.00070173      -0.00098798       0.00121063
F        3.33153575       1.03350607       5.77038910      -0.00069942       0.00098765      -0.00120938
