9
Lattice="6.468202968488234 -3.126314129094706e-08 3.734418715695534 2.156067651661881 6.098280209986088 3.734418672438738 4.4012547802657384e-08 -2.1856970408243393e-08 7.468837355159131" Properties=species:S:1:pos:R:3:forces:R:3 energy=-33.66136169433594 free_energy=-33.66136169433594 stress="1.1412574167479761e-05 5.202314135033248e-09 -7.84852627333521e-09 5.202314135033248e-09 1.1404541510273702e-05 6.971403454514302e-09 -7.84852627333521e-09 6.971403454514302e-09 1.1398631613701582e-05" pbc="T T T"
Mo       2.15606751       1.52457002       3.73441870      -0.00000048       0.00000036      -0.00000022
Mo       6.46820276       4.57370997      11.20325616      -0.00000177      -0.00000111       0.00000102
Ir       0.00000005      -0.00000007       0.00000017       0.00000186       0.00000014       0.00000277
I        2.17324638       1.53671722       7.46883741       0.00145905       0.00103202       0.00000039
I        6.45102437       4.56156306       7.46883730      -0.00145967      -0.00103273      -0.00000047
I        5.38157980       1.53671730       5.61650519      -0.00072852       0.00103166       0.00126360
I        3.24269097       4.56156296       9.32116946       0.00072988      -0.00103238      -0.00126506
I        3.24269099       4.56156294       5.61650513       0.00072992      -0.00103097       0.00126386
I        5.38157980       1.53671726       9.32116945      -0.00073029       0.00103297      -0.00126591
