9
Lattice="5.128516245497378 -3.0434276290597515e-06 2.9609470667950135 1.7095034019142628 4.835201972141045 2.9609455839536993 -1.0171579672695916e-06 -2.5353419345810514e-06 5.9218958953585545" Properties=species:S:1:pos:R:3:forces:R:3 energy=-43.66831970214844 free_energy=-43.66831970214844 stress="-0.00016697662067599595 3.20540408438319e-07 6.608404987673566e-07 3.20540408438319e-07 -0.00016433703422080725 4.020626533929317e-07 6.608404987673566e-07 4.020626533929317e-07 -0.00016612345643807203" pbc="T T T"
Mo       1.70959351       1.20878134       2.96098855       0.00030684       0.00001782       0.00012635
Mo       5.12856612       3.62646570       8.88283475       0.00024136       0.00015660       0.00004540
Ir      -0.00000918      -0.00000630       0.00000270      -0.00003112       0.00000466      -0.00003046
F        1.66133834       1.17473952       5.92186087       0.00602202       0.00425469      -0.00007764
F        5.17665668       3.66046706       5.92190824      -0.00605870      -0.00420272       0.00003460
F        4.29779157       1.17472247       4.39970362      -0.00317409       0.00415861       0.00518677
F        2.54015956       3.66046084       7.44406350       0.00293523      -0.00427784      -0.00525494
F        2.54017343       3.66045178       4.39971711       0.00292550      -0.00427222       0.00521047
F        4.29780622       1.17470471       7.44407423      -0.00316704       0.00416039      -0.00524070
