9
Lattice="6.041447427682867 -6.545697459495887e-08 3.488031493784456 2.01381582126227 5.695931218620513 3.4880313660490443 6.792269587986396e-08 -1.0841469340872722e-07 6.976062869923364" Properties=species:S:1:pos:R:3:forces:R:3 energy=-37.35419845581055 free_energy=-37.35419845581055 stress="2.798665991576854e-05 1.2439821617249436e-08 4.218423388380188e-10 1.2439821617249436e-08 2.798482273647096e-05 1.6855258300196851e-09 4.218423388380188e-10 1.6855258300196851e-09 2.797050547087565e-05" pbc="T T T"
Mo       2.01381530       1.42398319       3.48803176      -0.00000083       0.00000098       0.00000095
Mo       6.04144673       4.27194788      10.46409536      -0.00000211      -0.00000099       0.00000183
Ir       0.00000011      -0.00000008      -0.00000012       0.00000129      -0.00000166       0.00000029
Br       2.01160056       1.42241607       6.97606262       0.00246356       0.00174147      -0.00000042
Br       6.04366319       4.27351497       6.97606262      -0.00246337      -0.00174251      -0.00000098
Br       5.03564757       1.42241624       5.23012837      -0.00123169       0.00174297       0.00213422
Br       3.01961615       4.27351485       8.72199710       0.00123245      -0.00174183      -0.00213360
Br       3.01961637       4.27351485       5.23012824       0.00123266      -0.00174146       0.00213269
Br       5.03564739       1.42241622       8.72199704      -0.00123199       0.00174305      -0.00213493
