9
Lattice="5.775177889717966 -6.33898010742197e-08 3.3343006602806176 1.9250592729789089 5.444890173058573 3.334300597631103 4.068044175738098e-08 -4.7964267773515676e-08 6.668601250100682" Properties=species:S:1:pos:R:3:forces:R:3 energy=-39.549171447753906 free_energy=-39.549171447753906 stress="0.00022986734984442592 1.938695959324832e-08 2.7135159896829464e-08 1.938695959324832e-08 0.0002298784238519147 -4.47587815699535e-08 2.7135159896829464e-08 -4.47587815699535e-08 0.00022984780662227422" pbc="T T T"
Mo       1.92505955       1.36122284       3.33430050       0.00000165       0.00000132      -0.00000189
Mo       5.77517838       4.08366747      10.00290145       0.00000134      -0.00000093      -0.00000231
Ir       0.00000001      -0.00000001      -0.00000010      -0.00000444       0.00000002       0.00000477
Cl       1.91493248       1.35406224       6.66860137       0.00559831       0.00395975      -0.00000030
Cl       5.78530439       4.09082782       6.66860141      -0.00559753      -0.00395799       0.00000054
Cl       4.81771133       1.35406181       4.99268121      -0.00280024       0.00395867       0.00485021
Cl       2.88252555       4.09082812       8.34452134       0.00280169      -0.00396125      -0.00485231
Cl       2.88252566       4.09082804       4.99268121       0.00279774      -0.00395742       0.00484788
Cl       4.81771141       1.35406191       8.34452163      -0.00279868       0.00395784      -0.00484650
