9
Lattice="3.7905023403103213 -1.032752023303674e-05 2.188192387189595 1.2634519192153912 3.573756146739309 2.1882601522151637 -9.324645699524065e-05 1.7069285156124715e-05 4.376546294084342" Properties=species:S:1:pos:R:3:forces:R:3 energy=-43.57466125488281 free_energy=-43.57466125488281 stress="-0.0007855742587707937 0.00031289219623431563 -0.0001502152590546757 0.00031289219623431563 -0.0010072129080072045 0.00021583668421953917 -0.0001502152590546757 0.00021583668421953917 -0.0012178170727565885" pbc="T T T"
Mo       1.26343192       0.89341418       2.18817823       0.00006173       0.00014659       0.00217333
Mo       3.79042176       2.68033297       6.56470000       0.00025710       0.00026040       0.00223825
N        0.00000577      -0.00000171       0.00000856      -0.00121153       0.00097477       0.00292655
F        1.36643569       0.96628669       4.37651057      -0.00226927      -0.00224364      -0.00022629
F        3.68742743       2.60747879       4.37652048       0.00283444       0.00136554      -0.00022903
F        3.10714409       0.96633023       3.37152602       0.00226468      -0.00317740      -0.00347245
F        1.94671210       2.60744430       5.38150011      -0.00036657       0.00053525       0.00123477
F        1.94674417       2.60738676       3.37158478      -0.00214839       0.00304639      -0.00456977
F        3.10712122       0.96637956       5.38146631       0.00057501      -0.00090826      -0.00007427
