9
Lattice="4.015129096547407 1.660789122771234e-09 2.318135862145208 1.3383763711407162 3.785499989309145 2.3181358551146247 6.402530110205222e-09 -4.0834006026446275e-09 4.636271713200904" Properties=species:S:1:pos:R:3:forces:R:3 energy=-52.56905746459961 free_energy=-52.56905746459961 stress="-0.0007137274951674044 -8.317822164372046e-08 1.1270128652540734e-07 -8.317822164372046e-08 -0.0007139401277527213 -4.8553545184404356e-08 1.1270128652540734e-07 -4.8553545184404356e-08 -0.0007140826783142984" pbc="T T T"
Mo       1.33837624       0.94637505       2.31813578      -0.00000138       0.00000128      -0.00000169
Mo       4.01512911       2.83912504       6.95440736      -0.00000281       0.00000077      -0.00000303
N        0.00000080      -0.00000017      -0.00000015       0.00002615       0.00000193      -0.00000085
O        1.34041247       0.94781465       4.63627178       0.00242117       0.00170791       0.00000116
O        4.01309249       2.83768501       4.63627183      -0.00243855      -0.00172730      -0.00000132
O        3.34492264       0.94781497       3.47896730      -0.00121598       0.00172360       0.00211212
O        2.00858265       2.83768522       5.79357640       0.00121102      -0.00171079      -0.00209537
O        2.00858262       2.83768518       3.47896720       0.00121284      -0.00171663       0.00209957
O        3.34492288       0.94781498       5.79357618      -0.00121358       0.00171925      -0.00211024
