9
Lattice="5.533696769815239 -4.276903475849068e-09 3.1948814999356414 1.844565530627607 5.217219726592755 3.1948815956807968 -1.6246670670849766e-09 1.1611458223510638e-07 6.389763002685274" Properties=species:S:1:pos:R:3:forces:R:3 energy=-33.49152374267578 free_energy=-33.49152374267578 stress="0.00025986399850808084 1.4796998293320485e-08 2.3465421605806114e-08 1.4796998293320485e-08 0.0002598688006401062 4.4662204601308986e-08 2.3465421605806114e-08 4.4662204601308986e-08 0.0002598727587610483" pbc="T T T"
Mo       1.84456537       1.30430597       3.19488194      -0.00000129       0.00000523       0.00000331
Mo       5.53369537       3.91291495       9.58464614      -0.00000809       0.00000004       0.00000881
N        0.00000094      -0.00000043       0.00000033       0.00000033       0.00000011       0.00000054
Cl       1.79935562       1.27233577       6.38976275       0.00292049       0.00205971      -0.00000240
Cl       5.57890670       3.94488333       6.38976240      -0.00291507      -0.00206228      -0.00000346
Cl       4.63401934       1.27233736       4.75316887      -0.00145702       0.00206233       0.00252310
Cl       2.74424331       3.94488255       8.02635705       0.00145712      -0.00206207      -0.00252379
Cl       2.74424342       3.94488304       4.75316877       0.00146164      -0.00206567       0.00252366
Cl       4.63401921       1.27233693       8.02635626      -0.00145817       0.00206275      -0.00252965
