9
Lattice="5.843611269790672 -3.584019438655369e-08 3.3738106217774173 1.9478703706895406 5.509409603285788 3.3738106543115287 -7.512257119693133e-08 -1.3273696197326753e-08 6.7476213736709365" Properties=species:S:1:pos:R:3:forces:R:3 energy=-34.63441848754883 free_energy=-34.63441848754883 stress="0.0002808646240737289 -3.534225001544655e-08 -3.967520356695786e-08 -3.534225001544655e-08 0.00028074911097064614 -3.6234613531860305e-08 -3.967520356695786e-08 -3.6234613531860305e-08 0.0002808852295856923" pbc="T T T"
Mo       1.94787090       1.37735131       3.37381126       0.00000133      -0.00000220       0.00000182
Mo       5.84361226       4.13205908      10.12142976       0.00000292       0.00000665      -0.00001313
P       -0.00000086      -0.00000108       0.00000214      -0.00000162      -0.00000174       0.00000329
Cl       1.91960222       1.35736271       6.74762154       0.00485557       0.00343009       0.00000270
Cl       5.87188072       4.15204747       6.74762222      -0.00484777      -0.00342626       0.00000683
Cl       4.88381041       1.35736218       5.03623362      -0.00242650       0.00342272       0.00419948
Cl       2.90767120       4.15204577       8.45900859       0.00242559      -0.00343560      -0.00420120
Cl       2.90766926       4.15204738       5.03623391       0.00241800      -0.00342552       0.00420109
Cl       4.88381018       1.35736342       8.45900748      -0.00242756       0.00343168      -0.00420090
