9
Lattice="6.543004960660317 -2.2753196848333353e-08 3.7776056270401708 2.1810016561087053 6.168804298770422 3.7776055854584976 5.195001064487007e-08 -1.4192735171069049e-08 7.555211164100253" Properties=species:S:1:pos:R:3:forces:R:3 energy=-29.07656478881836 free_energy=-29.07656478881836 stress="0.00018063442257698625 3.801233217082256e-10 4.379683282706992e-09 3.801233217082256e-10 0.0001806325017241761 -2.962026846020649e-09 4.379683282706992e-09 -2.962026846020649e-09 0.0001806373766157776" pbc="T T T"
Mo       2.18100203       1.54220105       3.77760594       0.00000178       0.00000019       0.00000142
Mo       6.54300502       4.62660351      11.33281707       0.00000092       0.00000159       0.00000118
P        0.00000010       0.00000013       0.00000037       0.00000012      -0.00000014      -0.00000120
I        2.25080262       1.59155770       7.55521090      -0.00417330      -0.00295141      -0.00000047
I        6.47320403       4.57724655       7.55521107       0.00417228       0.00295102      -0.00000039
I        5.41760344       1.59155766       5.72685758       0.00208536      -0.00295074      -0.00361443
I        3.30640299       4.57724642       9.38356445      -0.00208723       0.00295170       0.00361471
I        3.30640274       4.57724639       5.72685766      -0.00208601       0.00294945      -0.00361435
I        5.41760370       1.59155759       9.38356441       0.00208608      -0.00295169       0.00361363
