9
Lattice="3.8003222806205468 1.204160871823298e-07 2.1941170001073513 1.266774153894645 3.582978173489889 2.1941170922090123 5.350825657261798e-08 1.5063710274118972e-07 4.388233907535668" Properties=species:S:1:pos:R:3:forces:R:3 energy=-34.90437316894531 free_energy=-34.90437316894531 stress="3.115083745797165e-05 -6.629085760323505e-07 -2.595854766695993e-07 -6.629085760323505e-07 3.111508340225555e-05 -5.209363962421776e-07 -2.595854766695993e-07 -5.209363962421776e-07 3.1760504498379305e-05" pbc="T T T"
Mo       1.26677420       0.89574422       2.19411715       0.00001444      -0.00000144       0.00000033
Mo       3.80032245       2.68723431       6.58235103      -0.00000589       0.00000079      -0.00001111
P       -0.00000051      -0.00000007      -0.00000022       0.00000310       0.00000598       0.00000186
F        1.31405035       0.92917431       4.38823402      -0.00009561      -0.00006437      -0.00000416
F        3.75304617       2.65380423       4.38823388       0.00007892       0.00006628       0.00001226
F        3.14329725       0.92917441       3.33211790       0.00004220      -0.00007117      -0.00007939
F        1.92379943       2.65380421       5.44435001      -0.00003946       0.00006509       0.00007224
F        1.92379941       2.65380426       3.33211789      -0.00004172       0.00006557      -0.00007463
F        3.14329702       0.92917441       5.44434997       0.00004494      -0.00006509       0.00008059
