9
Lattice="5.053941623597129 4.1651787067698195e-07 2.917895595839501 1.6846475392083782 4.764904109626556 2.917895702108023 9.41885196437444e-09 1.3681192408971004e-07 5.835791175365087" Properties=species:S:1:pos:R:3:forces:R:3 energy=-43.5721435546875 free_energy=-43.5721435546875 stress="-5.155606777407229e-05 -6.233597815707981e-08 3.2348812517568604e-09 -6.233597815707981e-08 -5.164927279110998e-05 2.820776856538032e-08 3.2348812517568604e-09 2.820776856538032e-08 -5.156009137863293e-05" pbc="T T T"
Mo       1.68463921       1.19123429       2.91789454      -0.00001807       0.00002225      -0.00001078
Mo       5.05395055       3.57367369       8.75368024       0.00002106      -0.00000739      -0.00002166
Rh      -0.00000011      -0.00000012       0.00000094      -0.00000617       0.00000057      -0.00000830
F        1.63951814       1.15931950       5.83579259       0.00222208       0.00158374       0.00000534
F        5.09907153       3.60558383       5.83579312      -0.00221816      -0.00158766       0.00001020
F        4.23418342       1.15931583       4.33776438      -0.00110793       0.00157291       0.00193942
F        2.50440468       3.60558653       7.33382046       0.00110916      -0.00158128      -0.00192696
F        2.50440289       3.60558639       4.33776412       0.00110155      -0.00158356       0.00193959
F        4.23418503       1.15931884       7.33382035      -0.00110342       0.00158045      -0.00192691
