9
Lattice="6.465941690833279 -6.775734936408258e-08 3.7331131170467535 2.1553138656666144 6.096148190906094 3.7331130605742553 2.0458310935993367e-08 -5.4698195484874465e-08 7.466226198658654" Properties=species:S:1:pos:R:3:forces:R:3 energy=-32.66059112548828 free_energy=-32.66059112548828 stress="4.248927507433109e-05 -2.3368509349808164e-09 1.059873433462144e-08 -2.3368509349808164e-09 4.249454286764376e-05 -7.319051142928856e-09 1.059873433462144e-08 -7.319051142928856e-09 4.248956247465685e-05" pbc="T T T"
Mo       2.15531399       1.52403722       3.73311304      -0.00000019       0.00000056       0.00000019
Mo       6.46594187       4.57211097      11.19933915       0.00000044       0.00000023      -0.00000013
Rh       0.00000004      -0.00000014      -0.00000019      -0.00000110       0.00000351       0.00000083
I        2.16803876       1.53303494       7.46622629       0.00228218       0.00161436       0.00000006
I        6.45321688       4.56311318       7.46622622      -0.00228408      -0.00161511       0.00000007
I        5.38192224       1.53303464       5.61068985      -0.00114153       0.00161467       0.00197654
I        3.23933319       4.56311334       9.32176289       0.00114314      -0.00161659      -0.00198001
I        3.23933321       4.56311325       5.61068969       0.00114177      -0.00161525       0.00197851
I        5.38192213       1.53303485       9.32176254      -0.00114068       0.00161360      -0.00197604
