9
Lattice="6.508747520590008 -3.227151955293295e-08 3.7578270891098904 2.169582479954523 6.136505942653624 3.7578270830181557 -1.7491457779141335e-08 -1.9829163358213596e-08 7.515654208515886" Properties=species:S:1:pos:R:3:forces:R:3 energy=-33.31114196777344 free_energy=-33.31114196777344 stress="0.00013420787581708282 -1.9179967836180367e-08 -9.350340640645882e-11 -1.9179967836180367e-08 0.00013421333278529346 -3.6158400718022676e-09 -9.350340640645882e-11 -3.6158400718022676e-09 0.00013423014024738222" pbc="T T T"
Mo       2.16958252       1.53412633       3.75782684       0.00000062      -0.00000019      -0.00000157
Mo       6.50874761       4.60237947      11.27348181      -0.00000019      -0.00000067       0.00000026
Ru       0.00000005      -0.00000009      -0.00000017       0.00000061       0.00000004       0.00000055
I        2.19077336       1.54911071       7.51565439       0.00414921       0.00293409       0.00000077
I        6.48755667       4.58739512       7.51565399      -0.00414959      -0.00293475       0.00000048
I        5.41336079       1.54911086       5.65509244      -0.00207404       0.00293319       0.00359255
I        3.26496902       4.58739532       9.37621584       0.00207426      -0.00293286      -0.00359210
I        3.26496928       4.58739526       5.65509254       0.00207327      -0.00293183       0.00359188
I        5.41336068       1.54911059       9.37621578      -0.00207412       0.00293289      -0.00359283
