9
Lattice="6.038847483690861 3.011355205422458e-08 3.4865302261898083 2.0129492027543257 5.6934799831528595 3.48653020344331 7.291540672565753e-08 2.3700306229863644e-08 6.973060326086429" Properties=species:S:1:pos:R:3:forces:R:3 energy=-37.56237030029297 free_energy=-37.56237030029297 stress="-3.4422573662595823e-06 8.668665785194207e-09 6.116196882288705e-09 8.668665785194207e-09 -3.453475301284925e-06 -1.6351165976757898e-09 6.116196882288705e-09 -1.6351165976757898e-09 -3.4464080727047985e-06" pbc="T T T"
Mo       2.01294945       1.42337074       3.48653049       0.00000121       0.00000278       0.00000091
Mo       6.03884778       4.27010955      10.45959127       0.00000141      -0.00000051       0.00000115
Ru       0.00000005      -0.00000015       0.00000005      -0.00000145      -0.00000184      -0.00000126
Br       2.01937206       1.42791192       6.97306030      -0.00003526      -0.00002526       0.00000032
Br       6.03242464       4.26556827       6.97306018       0.00003617       0.00002529       0.00000011
Br       5.02916137       1.42791186       5.23535769       0.00001757      -0.00002469      -0.00003014
Br       3.02263509       4.26556842       8.71076280      -0.00001767       0.00002373       0.00003049
Br       3.02263506       4.26556799       5.23535753      -0.00001900       0.00002493      -0.00003200
Br       5.02916151       1.42791158       8.71076278       0.00001696      -0.00002449       0.00003045
