9
Lattice="5.752492829340887 -2.3772913297283087e-08 3.3212033157093264 1.917497585910944 5.423502532326727 3.3212033182312286 -5.751171970141438e-08 -3.757822800253943e-08 6.642406731031854" Properties=species:S:1:pos:R:3:forces:R:3 energy=-39.64794158935547 free_energy=-39.64794158935547 stress="0.0001350033126072958 -1.147588335470573e-08 8.070150769867723e-09 -1.147588335470573e-08 0.0001350174134131521 -6.025773213735874e-09 8.070150769867723e-09 -6.025773213735874e-09 0.00013500172644853592" pbc="T T T"
Mo       1.91749790       1.35587577       3.32120267       0.00000147       0.00000010      -0.00000076
Mo       5.75249295       4.06762601       9.96360831       0.00000165      -0.00000269      -0.00000757
Ru       0.00000006       0.00000000       0.00000021      -0.00000131       0.00000228       0.00000239
Cl       1.92687358       1.36250578       6.64240698       0.00653440       0.00462346       0.00000100
Cl       5.74311663       4.06099711       6.64240724      -0.00653791      -0.00462274       0.00000132
Cl       4.78905587       1.36250535       4.98992517      -0.00326729       0.00462233       0.00565901
Cl       2.88093443       4.06099684       8.29488884       0.00326878      -0.00462310      -0.00566053
Cl       2.88093409       4.06099710       4.98992516       0.00326832      -0.00462225       0.00566134
Cl       4.78905593       1.36250587       8.29488892      -0.00326796       0.00462244      -0.00565642
