9
Lattice="4.905514187465499 7.826908624273858e-07 2.832200864402734 1.6351714965678261 4.624965767691877 2.832201968034055 -3.319298874033222e-07 1.116957125026855e-06 5.664402303724485" Properties=species:S:1:pos:R:3:forces:R:3 energy=-45.526954650878906 free_energy=-45.526954650878906 stress="0.00010616490908432752 3.066057274736522e-08 -1.7033015353717929e-07 3.066057274736522e-08 0.00010625738650560379 -8.198701806350073e-08 -1.7033015353717929e-07 -8.198701806350073e-08 0.00010618328087730333" pbc="T T T"
Mo       1.63518680       1.15622948       2.83219430       0.00007673      -0.00006574      -0.00002875
Mo       4.90552703       3.46871425       8.49660926       0.00006866      -0.00005954       0.00002192
Ru      -0.00000214       0.00000079       0.00000087       0.00000455       0.00000918      -0.00001536
F        1.63110391       1.15337590       5.66440236      -0.00110924      -0.00073441       0.00000459
F        4.90957168       3.47160347       5.66440317       0.00105339       0.00079247      -0.00000039
F        4.08995726       1.15337637       4.24477807       0.00052120      -0.00073541      -0.00095318
F        2.45072056       3.47159671       7.08402155      -0.00057106       0.00076871       0.00093420
F        2.45072488       3.47160496       4.24479020      -0.00055305       0.00079168      -0.00091302
F        4.08995131       1.15336856       7.08402164       0.00050864      -0.00076703       0.00094999
