9
Lattice="5.98985310428198 -6.943998340414018e-08 3.45824326473508 1.9966176134891085 5.647287744909815 3.4582433036535214 -7.558226851040404e-08 -5.779575080914829e-09 6.916486660382481" Properties=species:S:1:pos:R:3:forces:R:3 energy=-36.706092834472656 free_energy=-36.706092834472656 stress="0.000381243386073038 -3.4344402877195535e-08 -2.349336281071146e-09 -3.4344402877195535e-08 0.00038126404979266226 -3.583753516167576e-09 -2.349336281071146e-09 -3.583753516167576e-09 0.00038125054561533034" pbc="T T T"
Mo       1.99661709       1.41182165       3.45824335      -0.00000111       0.00000022      -0.00000009
Mo       5.98985340       4.23546590      10.37472990       0.00000084      -0.00000006       0.00000039
Rh       0.00000006       0.00000018      -0.00000004       0.00000165      -0.00000238      -0.00000287
Br       1.99729377       1.41230008       6.91648653       0.00585284       0.00413920       0.00000040
Br       5.98917691       4.23498748       6.91648645      -0.00585242      -0.00413938      -0.00000140
Br       4.99120611       1.41229985       5.18795059      -0.00292712       0.00413793       0.00506900
Br       2.99526452       4.23498783       8.64502286       0.00292510      -0.00413516      -0.00506683
Br       2.99526444       4.23498772       5.18795055       0.00292522      -0.00413765       0.00506848
Br       4.99120620       1.41229993       8.64502278      -0.00292495       0.00413719      -0.00506708
