9
Lattice="5.708800239951976 -2.202522600563762e-07 3.2959775130099294 1.902933300503046 5.3823083095588045 3.295977348739538 5.806585166401039e-08 -1.601305535017078e-07 6.591954925446847" Properties=species:S:1:pos:R:3:forces:R:3 energy=-38.82973861694336 free_energy=-38.82973861694336 stress="6.239609501790255e-05 1.6638637134747114e-08 2.7611097408453134e-08 1.6638637134747114e-08 6.236756598809734e-05 -8.916186899909917e-09 2.7611097408453134e-08 -8.916186899909917e-09 6.235871842363849e-05" pbc="T T T"
Mo       1.90293350       1.34557738       3.29597812       0.00000102       0.00000209       0.00000240
Mo       5.70879990       4.03673088       9.88793294      -0.00000133      -0.00000135       0.00000305
Rh       0.00000009      -0.00000005       0.00000001      -0.00000319      -0.00000146       0.00000118
Cl       1.91024394       1.35074595       6.59195459       0.00473014       0.00334369      -0.00000126
Cl       5.70148961       4.03156180       6.59195442      -0.00472707      -0.00334154      -0.00000101
Cl       4.75367823       1.35074638       4.95029703      -0.00236578       0.00334580       0.00409375
Cl       2.85805523       4.03156159       8.23361259       0.00236584      -0.00334641      -0.00409748
Cl       2.85805529       4.03156167       4.95029707       0.00236264      -0.00334437       0.00409478
Cl       4.75367866       1.35074610       8.23361241      -0.00236213       0.00334354      -0.00409532
