9
Lattice="6.528767649588795 -6.517538602518235e-10 3.7693857060607465 2.176255917289288 6.155380888073133 3.7693856459455857 7.254028544035042e-08 -2.2331997618354715e-08 7.538771286478013" Properties=species:S:1:pos:R:3:forces:R:3 energy=-26.77256202697754 free_energy=-26.77256202697754 stress="0.00023326306836679578 1.2789415748670763e-08 4.957758648060917e-09 1.2789415748670763e-08 0.0002332522562937811 6.10146155821667e-10 4.957758648060917e-09 6.10146155821667e-10 0.0002332453877897933" pbc="T T T"
Mo       2.17625575       1.53884517       3.76938557      -0.00000065      -0.00000020      -0.00000121
Mo       6.52876774       4.61653574      11.30815694       0.00000002       0.00000039       0.00000039
S        0.00000002       0.00000001       0.00000009       0.00000017      -0.00000058      -0.00000024
I        2.31003566       1.63344150       7.53877134      -0.00607808      -0.00429841       0.00000033
I        6.39498814       4.52193946       7.53877136       0.00607824       0.00429772      -0.00000010
I        5.37375014       1.63344173       5.76993496       0.00303906      -0.00429660      -0.00526355
I        3.33127367       4.52193886       9.30760749      -0.00303926       0.00429791       0.00526379
I        3.33127357       4.52193916       5.76993527      -0.00303771       0.00429812      -0.00526346
I        5.37374992       1.63344181       9.30760748       0.00303818      -0.00429834       0.00526409
