9
Lattice="6.013169446099337 -1.3005655132282447e-08 3.4717048623934574 2.004389805593935 5.669270140531822 3.4717048580818224 -5.376204027402462e-09 -9.082239456406576e-09 6.943409734098771" Properties=species:S:1:pos:R:3:forces:R:3 energy=-30.441679000854492 free_energy=-30.441679000854492 stress="0.000213335151784122 1.5336386605113717e-09 1.2897617418516916e-09 1.5336386605113717e-09 0.00021329977607820183 9.512626242269562e-09 1.2897617418516916e-09 9.512626242269562e-09 0.00021332940377760679" pbc="T T T"
Mo       2.00439024       1.41731769       3.47170455       0.00000083       0.00000060      -0.00000013
Mo       6.01316928       4.25195319      10.41511470       0.00000043       0.00000107      -0.00000086
S       -0.00000001      -0.00000001       0.00000012      -0.00000024      -0.00000009      -0.00000032
Br       2.06795547       1.46226553       6.94340949       0.00186360       0.00131756       0.00000057
Br       5.94960361       4.20700446       6.94340969      -0.00186366      -0.00131902      -0.00000020
Br       4.97919133       1.46226508       5.26260706      -0.00093189       0.00131787       0.00161365
Br       3.03836788       4.20700465       8.62421254       0.00093158      -0.00131856      -0.00161237
Br       3.03836783       4.20700476       5.26260724       0.00093219      -0.00131734       0.00161269
Br       4.97919133       1.46226508       8.62421250      -0.00093293       0.00131795      -0.00161323
