9
Lattice="5.8040121042352535 -9.029414939644673e-08 3.3509482059003615 1.9346706924997552 5.47207480678046 3.3509480738866566 1.8991422414283708e-07 -2.7393477563674624e-08 6.701896082859632" Properties=species:S:1:pos:R:3:forces:R:3 energy=-32.423583984375 free_energy=-32.423583984375 stress="0.0002893396595027298 -2.013117850196977e-08 -2.271890409133448e-08 -2.013117850196977e-08 0.00028931882116012275 -3.318540109376045e-08 -2.271890409133448e-08 -3.318540109376045e-08 0.00028934006695635617" pbc="T T T"
Mo       1.93467066       1.36801795       3.35094945       0.00000011      -0.00000387       0.00000952
Mo       5.80401298       4.10405510      10.05284656       0.00000258      -0.00000470       0.00001204
S        0.00000012       0.00000002      -0.00000125       0.00000078       0.00000149       0.00000195
Cl       1.92775001       1.36312490       6.70189543       0.00337893       0.00239152      -0.00000198
Cl       5.81093239       4.10895019       6.70189484      -0.00338048      -0.00238901      -0.00000810
Cl       4.84013694       1.36312513       5.02042834      -0.00169110       0.00239354       0.00292444
Cl       2.89854543       4.10895121       8.38336394       0.00168797      -0.00238997      -0.00293130
Cl       2.89854554       4.10894937       5.02042853       0.00169042      -0.00239024       0.00292352
Cl       4.84013787       1.36312497       8.38336372      -0.00168917       0.00239149      -0.00293013
