9
Lattice="3.9175011255703778 1.9690868385131684e-07 2.2617703646073655 1.305833821183475 3.6934556141150465 2.2617704910250125 1.2492416872300007e-07 2.4316410561227367e-07 4.523540512839708" Properties=species:S:1:pos:R:3:forces:R:3 energy=-29.82956886291504 free_energy=-29.82956886291504 stress="2.7560699891182594e-05 -5.382402150644339e-07 -6.512132131319959e-07 -5.382402150644339e-07 2.7350370146450587e-05 -6.156192284834106e-07 -6.512132131319959e-07 -6.156192284834106e-07 2.688133463379927e-05" pbc="T T T"
Mo       1.30583344       0.92336385       2.26177026       0.00000190       0.00000492       0.00000933
Mo       3.91750149       2.77009238       6.78531149      -0.00000158      -0.00000368       0.00000245
S        0.00000035      -0.00000074      -0.00000141       0.00000149      -0.00000648      -0.00001494
F        1.40400059       0.99277883       4.52354121       0.00011700       0.00008663       0.00000445
F        3.81933444       2.70067747       4.52354036      -0.00012270      -0.00008134      -0.00000224
F        3.21550135       0.99277851       3.47767096      -0.00005580       0.00009215       0.00011395
F        2.00783354       2.70067764       5.56941069       0.00005731      -0.00008541      -0.00010807
F        2.00783411       2.70067811       3.47767103       0.00006201      -0.00008874       0.00010584
F        3.21550078       0.99277806       5.56941066      -0.00005986       0.00008334      -0.00011080
