9
Lattice="6.958443872129901 0.0013264531616558092 4.019046165190109 2.3205352182352024 6.560122177342882 4.019385611419878 0.0013100775537091588 0.0013428970116176255 8.03582301216177" Properties=species:S:1:pos:R:3:forces:R:3 energy=-24.56375503540039 free_energy=-24.56375503540039 stress="1.747504575178027e-05 1.8298862414667383e-05 5.526026870938949e-05 1.8298862414667383e-05 -8.834684558678418e-05 6.450961518567055e-05 5.526026870938949e-05 6.450961518567055e-05 6.714669143548235e-05" pbc="T T T"
N        2.35829851       1.66586942       4.08412806      -0.00217943      -0.00162503      -0.00382842
N        6.98873035       4.94025889      12.10413432       0.00288968       0.00229405       0.00513128
C       -0.15602656      -0.10891028      -0.26998030      -0.00141740      -0.00494137       0.00356162
Cl       1.68181367       1.18647188       8.04882423      -0.00124151       0.00392543       0.00072244
Cl       7.66479338       5.42403475       8.04562420       0.00329226      -0.00199795      -0.00023459
Cl       6.13196846       1.18823244       5.48138650       0.00017244      -0.00195751      -0.00338101
Cl       3.13413106       5.42343672      10.66108033      -0.00529909      -0.00370708      -0.00029932
Cl       3.16169311       5.37937764       5.47737755       0.00093361       0.00077924       0.00038187
Cl       6.15575450       1.15239636      10.66444559       0.00284932       0.00723013      -0.00205369
