9
Lattice="4.3291113997393005 -1.6622149812154897e-05 2.4994329258266945 1.4430263227705338 4.081464739025339 2.499424505984648 3.068400398615801e-06 -8.142319775227385e-06 4.998860536890739" Properties=species:S:1:pos:R:3:forces:R:3 energy=-32.25171661376953 free_energy=-32.25171661376953 stress="0.0002966004249174148 6.156354174891021e-06 -4.088118657818995e-06 6.156354174891021e-06 0.00030811416218057275 3.5173234209651127e-06 -4.088118657818995e-06 3.5173234209651127e-06 0.0003004494355991483" pbc="T T T"
N        1.44303604       1.02034026       2.49944564      -0.00001099      -0.00008301       0.00005749
N        4.32906165       3.06106408       7.49830171      -0.00014723      -0.00005743       0.00005143
C        0.00006904       0.00006553      -0.00004858      -0.00077982      -0.00081026       0.00057054
F        1.26554184       0.89488247       4.99886597      -0.00878310      -0.00662595       0.00001615
F        4.50651565       3.18652594       4.99885263       0.00973153       0.00723571      -0.00010714
F        3.69632408       0.89487722       3.59548148       0.00465572      -0.00673854      -0.00829673
F        2.07580046       3.18654308       6.40226039      -0.00447923       0.00677407       0.00805533
F        2.07581167       3.18655393       3.59543169      -0.00444138       0.00666255      -0.00805950
F        3.69638523       0.89486315       6.40229622       0.00425488      -0.00635600       0.00771546
