9
Lattice="6.40506624715498 -7.12500094572698e-08 3.697966801342615 2.135022047237216 6.038754459208855 3.6979667458696692 -1.3460980333841482e-08 -7.745867880834005e-08 7.395933626000305" Properties=species:S:1:pos:R:3:forces:R:3 energy=-24.662551879882812 free_energy=-24.662551879882812 stress="7.847505912650377e-05 -1.5017879162471104e-09 -2.7332243135447243e-09 -1.5017879162471104e-09 7.847744564060122e-05 -2.8649060901386747e-09 -2.7332243135447243e-09 -2.8649060901386747e-09 7.847819506423548e-05" pbc="T T T"
Na       2.13502228       1.50968876       3.69796676      -0.00000000       0.00000028       0.00000001
Na       6.40506629       4.52906593      11.09390055       0.00000046       0.00000029       0.00000006
As       0.00000019       0.00000023       0.00000028      -0.00000139      -0.00000142      -0.00000473
Br       2.13583081       1.51026044       7.39593391      -0.00078899      -0.00055828      -0.00000014
Br       6.40425728       4.52849385       7.39593388       0.00078999       0.00055862      -0.00000018
Br       5.33715072       1.51026032       5.54765035       0.00039369      -0.00055722      -0.00068288
Br       3.20293761       4.52849329       9.24421619      -0.00039572       0.00055987       0.00068588
Br       3.20293747       4.52849378       5.54765063      -0.00039404       0.00055794      -0.00068358
Br       5.33715053       1.51026066       9.24421620       0.00039598      -0.00056008       0.00068557
