9
Lattice="5.975166139702668 -1.4826407242718021e-08 3.449763724672972 1.9917220128056385 5.633440589039564 3.4497637589389005 -3.5514088783780005e-08 1.6854836761040033e-08 6.899527510858154" Properties=species:S:1:pos:R:3:forces:R:3 energy=-27.814361572265625 free_energy=-27.814361572265625 stress="6.132105772849172e-05 4.213046800316533e-09 2.2623776185781708e-09 4.213046800316533e-09 6.131250847829506e-05 1.1165491642373127e-08 2.2623776185781708e-09 1.1165491642373127e-08 6.131408008513972e-05" pbc="T T T"
Na       1.99172192       1.40836025       3.44976389      -0.00000056      -0.00000062      -0.00000001
Na       5.97516610       4.22508010      10.34929135      -0.00000045      -0.00000029      -0.00000025
As       0.00000056      -0.00000045       0.00000060      -0.00000604       0.00000460      -0.00000421
Cl       1.97402934       1.39584899       6.89952733      -0.00059402      -0.00041863       0.00000094
Cl       5.99285875       4.23759095       6.89952751       0.00059643       0.00042266      -0.00000110
Cl       4.98815162       1.39584900       5.15932308       0.00029786      -0.00041948      -0.00051470
Cl       2.97873636       4.23759186       8.63973255      -0.00029619       0.00041826       0.00051218
Cl       2.97873638       4.23759175       5.15932212      -0.00029604       0.00041659      -0.00051126
Cl       4.98815135       1.39584996       8.63973160       0.00029898      -0.00042336       0.00051828
