9
Lattice="5.202405863136875 5.2555393344327356e-08 3.0036103351136165 1.734135461645676 4.9048751112938875 3.0036101196748737 2.3380496712707983e-07 -9.853250393944002e-08 6.007220265265084" Properties=species:S:1:pos:R:3:forces:R:3 energy=-38.20423889160156 free_energy=-38.20423889160156 stress="0.00022388386423699558 5.597035368509751e-08 2.8260217277420452e-08 5.597035368509751e-08 0.00022385154443327338 -6.906064697886904e-08 2.8260217277420452e-08 -6.906064697886904e-08 0.00022377631103154272" pbc="T T T"
Na       1.73413501       1.22621853       3.00360999       0.00000069       0.00000052       0.00000012
Na       5.20240628       3.67865674       9.01083065      -0.00000063      -0.00000020       0.00000029
Bi       0.00000005       0.00000006      -0.00000007      -0.00000436       0.00000075       0.00000700
F        1.74148030       1.23141192       6.00722042      -0.00094169      -0.00066566       0.00000035
F        5.19506130       3.67346321       6.00722040       0.00094366       0.00066739      -0.00000025
F        4.33166614       1.23141219       4.51177578       0.00047007      -0.00066400      -0.00081223
F        2.60487543       3.67346284       7.50266528      -0.00046656       0.00065893       0.00080639
F        2.60487555       3.67346262       4.51177557      -0.00047100       0.00066668      -0.00081462
F        4.33166652       1.23141207       7.50266506       0.00046986      -0.00066417       0.00081271
