9
Lattice="6.607358913189297 4.836850407007342e-08 3.814760482583903 2.2024530215275218 6.229477818771775 3.8147604741624352 3.566396025279857e-08 1.490410231102995e-08 7.629520903396024" Properties=species:S:1:pos:R:3:forces:R:3 energy=-24.752817153930664 free_energy=-24.752817153930664 stress="6.430358189390972e-05 1.3194320303000495e-08 -9.244480736469995e-09 1.3194320303000495e-08 6.428862980101258e-05 2.0780133169751025e-08 -9.244480736469995e-09 2.0780133169751025e-08 6.427235348382965e-05" pbc="T T T"
Na       2.20245291       1.55736974       3.81476054       0.00000069       0.00000047       0.00000000
Na       6.60735912       4.67210834      11.44428136      -0.00000053      -0.00000073       0.00000002
Bi       0.00000015       0.00000004      -0.00000053      -0.00000222      -0.00000192       0.00000548
Br       2.30181192       1.62762713       7.62952094      -0.00053330      -0.00037783      -0.00000042
Br       6.50799982       4.60185098       7.62952085       0.00053515       0.00037804       0.00000016
Br       5.45645299       1.62762684       5.80818815       0.00026698      -0.00037713      -0.00046174
Br       3.35335891       4.60185121       9.45085375      -0.00026578       0.00037605       0.00046116
Br       3.35335904       4.60185077       5.80818845      -0.00026596       0.00037766      -0.00046292
Br       5.45645304       1.62762653       9.45085387       0.00026499      -0.00037459       0.00045829
