9
Lattice="6.24036410945259 -1.7772564368537283e-07 3.602876042073064 2.080121251152151 5.883471485006835 3.602875957382723 8.03220633764878e-08 -4.692777367185284e-08 7.205751945024261" Properties=species:S:1:pos:R:3:forces:R:3 energy=-27.871274948120117 free_energy=-27.871274948120117 stress="6.476993439719081e-05 -7.518487876723157e-08 7.612255714661842e-09 -7.518487876723157e-08 6.481851596618071e-05 -1.5499773908800307e-08 7.612255714661842e-09 -1.5499773908800307e-08 6.491987005574629e-05" pbc="T T T"
Na       2.08012142       1.47086771       3.60287620       0.00000013      -0.00000062      -0.00000004
Na       6.24036394       4.41260346      10.80862815       0.00000008       0.00000027      -0.00000005
Bi      -0.00000073      -0.00000036       0.00000074       0.00000866       0.00000427      -0.00001418
Cl       2.14224359       1.51479485       7.20575203      -0.00079629      -0.00056295       0.00000028
Cl       6.17824233       4.36867694       7.20575221       0.00078791       0.00055745      -0.00000098
Cl       5.16924242       1.51479480       5.45811401       0.00039831      -0.00056241      -0.00068989
Cl       3.15124379       4.36867560       8.95338921      -0.00040227       0.00056912       0.00069776
Cl       3.15124323       4.36867616       5.45811415      -0.00039855       0.00056393      -0.00069112
Cl       5.16924183       1.51479585       8.95338913       0.00040202      -0.00056921       0.00069802
