9
Lattice="5.934979154916018 -1.3985083282615231e-07 3.4265617643164537 1.978325999493908 5.595552368092672 3.4265622036084626 -2.8131330248654164e-07 3.39102018228297e-07 6.853124015881943" Properties=species:S:1:pos:R:3:forces:R:3 energy=-27.603899002075195 free_energy=-27.603899002075195 stress="0.0002038732636719942 -3.1058103644454604e-08 -3.114298152695483e-08 -3.1058103644454604e-08 0.00020382377260830253 -1.5188094115714534e-09 -3.114298152695483e-08 -1.5188094115714534e-09 0.0002037436788668856" pbc="T T T"
Na       1.97832532       1.39888789       3.42656211      -0.00000257      -0.00000104      -0.00000046
Na       5.93497926       4.19666447      10.27968594       0.00000155      -0.00000156       0.00000050
Ga      -0.00000066      -0.00000017      -0.00000011       0.00000457       0.00000255      -0.00000247
Cl       1.92957995       1.36442055       6.85312396      -0.00622869      -0.00440440      -0.00000076
Cl       5.98372511       4.23113318       6.85312392       0.00622219       0.00440225      -0.00000184
Cl       4.97018899       1.36441940       5.09762812       0.00311148      -0.00440374      -0.00539228
Cl       2.94311703       4.23113312       8.60862030      -0.00311318       0.00440422       0.00539523
Cl       2.94311549       4.23113275       5.09762769      -0.00311133       0.00440526      -0.00539029
Cl       4.97018882       1.36441926       8.60861993       0.00311601      -0.00440353       0.00539240
