9
Lattice="6.821180293371755 -4.6068687630476705e-09 3.9382102343378653 2.273726748280959 6.431070399925058 3.9382102548330975 -2.2476709511293568e-08 9.207997091306194e-09 7.876420507606546" Properties=species:S:1:pos:R:3:forces:R:3 energy=-20.705158233642578 free_energy=-20.705158233642578 stress="-0.00014876699424348772 1.1178310721504658e-08 -8.075583757261029e-09 1.1178310721504658e-08 -0.00014878925867378712 7.983850025539141e-09 -8.075583757261029e-09 7.983850025539141e-09 -0.0001487805275246501" pbc="T T T"
Na       2.27372674       1.60776769       3.93821026       0.00000002      -0.00000009      -0.00000075
Na       6.82118021       4.82330270      11.81463070      -0.00000017      -0.00000001       0.00000020
Ga      -0.00000014      -0.00000002       0.00000003       0.00000098      -0.00000040      -0.00000028
I        2.27794384       1.61074953       7.87642052      -0.00743565      -0.00525697      -0.00000020
I        6.81696338       4.82032096       7.87642056       0.00743502       0.00525706      -0.00000040
I        5.68220837       1.61074953       5.91096738       0.00371754      -0.00525639      -0.00643846
I        3.41269867       4.82032082       9.84187355      -0.00371804       0.00525778       0.00643975
I        3.41269857       4.82032092       5.91096739      -0.00371772       0.00525580      -0.00643829
I        5.68220842       1.61074948       9.84187357       0.00371800      -0.00525674       0.00643848
