9
Lattice="6.251893669938195 -7.583646198939986e-08 3.6095323864419084 2.083964410646599 5.894342045692212 3.6095325154800246 -7.209585585956332e-08 1.0705936389535627e-07 7.2190648977574465" Properties=species:S:1:pos:R:3:forces:R:3 energy=-24.18212890625 free_energy=-24.18212890625 stress="8.646027708891779e-05 -1.4721622143554214e-08 -2.365795337411214e-09 -1.4721622143554214e-08 8.648014045320451e-05 7.455740025363866e-09 -2.365795337411214e-09 7.455740025363866e-09 8.646387868793681e-05" pbc="T T T"
Na       2.08396461       1.47358544       3.60953230       0.00000011      -0.00000002      -0.00000027
Na       6.25189354       4.42075658      10.82859737      -0.00000013      -0.00000035       0.00000013
Ga      -0.00000027       0.00000028       0.00000110       0.00000211      -0.00000200      -0.00000685
Br       2.07649977       1.46830728       7.21906500      -0.00298008      -0.00210690      -0.00000182
Br       6.25935782       4.42603481       7.21906476       0.00298005       0.00210646      -0.00000080
Br       5.21364365       1.46830767       5.40783429       0.00148830      -0.00210506      -0.00257802
Br       3.12221506       4.42603401       9.03029479      -0.00149350       0.00211284       0.00258526
Br       3.12221487       4.42603474       5.40783427      -0.00148937       0.00210541      -0.00258029
Br       5.21364310       1.46830793       9.03029536       0.00149256      -0.00211042       0.00258240
