9
Lattice="4.884585841906983 4.698509021742757e-08 2.8201173366378156 1.628195072288201 4.6052334239362755 2.8201177742325 -6.009132653836577e-07 1.1103203001569401e-07 5.640235714087926" Properties=species:S:1:pos:R:3:forces:R:3 energy=-38.61753463745117 free_energy=-38.61753463745117 stress="0.00028230875614099205 1.3129104559084226e-07 -3.746115595504307e-08 1.3129104559084226e-07 0.0002823381219059229 8.856635247411759e-08 -3.746115595504307e-08 8.856635247411759e-08 0.0002822952810674906" pbc="T T T"
Na       1.62819477       1.15130843       2.82011793       0.00000008      -0.00000063       0.00000003
Na       4.88458520       3.45392492       8.46035247      -0.00000008      -0.00000019      -0.00000007
Ga       0.00000025       0.00000025      -0.00000008      -0.00001090      -0.00000295      -0.00000312
F        1.55436697       1.09910416       5.64023621      -0.00179827      -0.00127131      -0.00000165
F        4.95841266       3.50612946       5.64023500       0.00180721       0.00127769       0.00000091
F        4.10740227       1.09910418       4.16623863       0.00089955      -0.00127316      -0.00155711
F        2.40537841       3.50612960       7.11423216      -0.00090027       0.00127369       0.00155711
F        2.40537844       3.50613032       4.16623827      -0.00089639       0.00126606      -0.00155032
F        4.10740208       1.09910356       7.11423224       0.00089902      -0.00126988       0.00155473
