9
Lattice="5.631651119946637 1.0225231702290126e-07 3.2514356367081505 1.8772170745549417 5.309571967835712 3.2514357438039183 2.474542418301061e-08 1.486625406170557e-07 6.502871230556024" Properties=species:S:1:pos:R:3:forces:R:3 energy=-23.980247497558594 free_energy=-23.980247497558594 stress="9.68938329606317e-05 1.4224878164270649e-08 1.864967025255737e-08 1.4224878164270649e-08 9.684840915724635e-05 3.944877491335319e-08 1.864967025255737e-08 3.944877491335319e-08 9.696788038127124e-05" pbc="T T T"
Na       1.87721735       1.32739282       3.25143589       0.00000011      -0.00000036      -0.00000003
Na       5.63165136       3.98217933       9.75430649       0.00000046       0.00000011       0.00000032
N        0.00000161       0.00000220      -0.00000015       0.00000087       0.00000393       0.00000263
Cl       1.76996261       1.25155329       6.50287218      -0.00270838      -0.00191899      -0.00000457
Cl       5.73890283       4.05801865       6.50287141       0.00270890       0.00191221       0.00000028
Cl       4.74667039       1.25155276       4.78426893       0.00135106      -0.00191255      -0.00234319
Cl       2.76219902       4.05801793       8.22147218      -0.00135532       0.00191800       0.00235088
Cl       2.76219877       4.05801930       4.78426961      -0.00135308       0.00191116      -0.00234897
Cl       4.74666895       1.25155265       8.22147373       0.00135545      -0.00191352       0.00234249
