9
Lattice="4.489503957673724 4.307323279446882e-08 2.5920163189980907 1.496501330882607 4.232745052402268 2.592016369144084 -2.540404739988374e-08 4.345267552511335e-08 5.184032681997273" Properties=species:S:1:pos:R:3:forces:R:3 energy=-33.08348083496094 free_energy=-33.08348083496094 stress="0.0008117984980344772 7.427374271173903e-08 -8.157856967727639e-08 7.427374271173903e-08 0.000812153157312423 3.436493400954532e-08 -8.157856967727639e-08 3.436493400954532e-08 0.0008116413373500109" pbc="T T T"
Na       1.49650134       1.05818626       2.59201631      -0.00000021       0.00000053      -0.00000097
Na       4.48950405       3.17455884       7.77604902       0.00000009      -0.00000145       0.00000056
N        0.00000014       0.00000004      -0.00000012      -0.00000266      -0.00000168      -0.00000108
F        1.39500954       0.98642064       5.18403267       0.00137806       0.00097412       0.00000143
F        4.59099562       3.24632451       5.18403273      -0.00137722      -0.00097454      -0.00000134
F        3.79199912       0.98642060       3.80013008      -0.00068718       0.00097668       0.00119352
F        2.19400603       3.24632448       6.56793535       0.00068903      -0.00097567      -0.00119197
F        2.19400602       3.24632444       3.80013017       0.00069058      -0.00097317       0.00119162
F        3.79199920       0.98642068       6.56793535      -0.00068915       0.00097495      -0.00119209
