9
Lattice="6.12492457259407 -4.0671377265415675e-08 3.5362268783665116 2.041641422505448 5.774634434347829 3.5362269880871033 -5.410853002181403e-08 9.611914313265803e-08 7.072453850451834" Properties=species:S:1:pos:R:3:forces:R:3 energy=-28.132320404052734 free_energy=-28.132320404052734 stress="8.06637981440872e-05 -5.310589656914999e-08 -1.2377347147207729e-08 -5.310589656914999e-08 8.071071351878345e-05 1.4849724117027563e-08 -1.2377347147207729e-08 1.4849724117027563e-08 8.073555363807827e-05" pbc="T T T"
Na       2.04164172       1.44365858       3.53622690       0.00000022       0.00000013       0.00000006
Na       6.12492428       4.33097576      10.60868083      -0.00000036      -0.00000019       0.00000021
Sb      -0.00000035      -0.00000005       0.00000005       0.00000481       0.00000326       0.00000085
Cl       2.03629339       1.43987739       7.07245378      -0.00151451      -0.00107158       0.00000020
Cl       6.13027315       4.33475765       7.07245384       0.00150957       0.00106743      -0.00000013
Cl       5.10677708       1.43987759       5.29970932       0.00076014      -0.00107479      -0.00131581
Cl       3.05978826       4.33475699       8.84519839      -0.00075908       0.00107423       0.00131515
Cl       3.05978843       4.33475706       5.29970888      -0.00075866       0.00107383      -0.00131366
Cl       5.10677781       1.43987700       8.84519892       0.00075790      -0.00107231       0.00131311
