9
Lattice="7.070898374323647 -1.462393480725536e-07 4.082385256998821 2.356965907201285 6.6665070147837975 4.08238539503875 -9.134347790756405e-08 1.0447427052569566e-07 8.164770672209064" Properties=species:S:1:pos:R:3:forces:R:3 energy=-21.57266616821289 free_energy=-21.57266616821289 stress="5.1001698011532426e-05 -1.8123310852047325e-08 -9.126397415570864e-09 -1.8123310852047325e-08 5.1028331654379144e-05 8.342962765084394e-09 -9.126397415570864e-09 8.342962765084394e-09 5.103035073261708e-05" pbc="T T T"
Na       2.35696592       1.66662657       4.08238588      -0.00000142      -0.00000042       0.00000184
Na       7.07089816       4.99988049      12.24715536       0.00000161       0.00000103      -0.00000195
Sb      -0.00000100      -0.00000025       0.00000024       0.00000764       0.00000377       0.00000034
I        2.43727555       1.72341430       8.16477047      -0.00051002      -0.00036124       0.00000031
I        6.99058998       4.94309336       8.16477076       0.00050328       0.00035565       0.00000005
I        5.85226057       1.72341397       6.19312784       0.00025403      -0.00036017      -0.00044064
I        3.57560347       4.94309266      10.13641338      -0.00025444       0.00036074       0.00044104
I        3.57560359       4.94309294       6.19312776      -0.00025466       0.00036067      -0.00044135
I        5.85226051       1.72341383      10.13641360       0.00025397      -0.00036006       0.00044040
