9
Lattice="5.171678114301348 -4.5614343641803006e-08 2.985868722044206 1.723892590928774 4.87590507339348 2.9858688447301422 -2.3291931545313348e-07 -1.4439844976848784e-08 5.971737847516483" Properties=species:S:1:pos:R:3:forces:R:3 energy=-46.117401123046875 free_energy=-46.117401123046875 stress="-0.00011371400614734739 2.6616667980761122e-08 -3.029648354413439e-08 2.6616667980761122e-08 -0.00011368763807695359 5.532123026341651e-08 -3.029648354413439e-08 5.532123026341651e-08 -0.00011364636156940833" pbc="T T T"
Na       1.72389293       1.21897648       2.98586899       0.00000096       0.00000075       0.00000088
Na       5.17167762       3.65692860       8.95760617      -0.00000051      -0.00000004      -0.00000068
Y       -0.00000005       0.00000015       0.00000008       0.00000129      -0.00000532      -0.00000594
F        1.75509770       1.24104204       5.97173795       0.00360769       0.00255153       0.00000036
F        5.14047259       3.63486361       5.97173790      -0.00360721      -0.00255102      -0.00000053
F        4.29412841       1.24104121       4.50582746      -0.00180662       0.00255522       0.00313053
F        2.60144170       3.63486344       7.43764781       0.00180355      -0.00255084      -0.00312504
F        2.60144186       3.63486305       4.50582745       0.00180620      -0.00255445       0.00312933
F        4.29412920       1.24104180       7.43764756      -0.00180587       0.00255397      -0.00312927
