9
Lattice="6.649310459186369 -1.9047126078381629e-07 3.8389812136256394 2.2164367048560223 6.269030021379948 3.838981101552809 -3.914312911778929e-08 -1.6493895901679479e-07 7.677962495049271" Properties=species:S:1:pos:R:3:forces:R:3 energy=-32.312599182128906 free_energy=-32.312599182128906 stress="0.00018501329759601504 1.9483495705685527e-08 1.3556127775871119e-08 1.9483495705685527e-08 0.00018498640565667301 -1.5529375119172073e-08 1.3556127775871119e-08 -1.5529375119172073e-08 0.00018497873679734766" pbc="T T T"
Na       2.21643659       1.56725732       3.83898127      -0.00000018      -0.00000026       0.00000006
Na       6.64931030       4.70177233      11.51694339       0.00000009      -0.00000004      -0.00000035
Y       -0.00000096      -0.00000002      -0.00000167       0.00001287       0.00000042       0.00002615
Br       2.25712441       1.59602788       7.67796220      -0.00295236      -0.00208753       0.00000027
Br       6.60862393       4.67300256       7.67796205       0.00294175       0.00207991       0.00000086
Br       5.52074808       1.59602763       5.79370795       0.00147486      -0.00208533      -0.00255380
Br       3.34499820       4.67300252       9.56221735      -0.00146833       0.00207775       0.00254443
Br       3.34499911       4.67300168       5.79370869      -0.00147744       0.00209024      -0.00255969
Br       5.52074885       1.59602675       9.56221802       0.00146874      -0.00207519       0.00254203
