9
Lattice="7.190074855943834 2.990453804110951e-07 4.1511913359542945 2.396691930491415 6.778867528988982 4.151191284164639 -5.726519189160203e-09 -6.747839438788126e-08 8.302382681827172" Properties=species:S:1:pos:R:3:forces:R:3 energy=-28.39728546142578 free_energy=-28.39728546142578 stress="0.00021269590070005506 2.7659039503191707e-08 -5.6949716054077726e-09 2.7659039503191707e-08 0.00021267741976771504 3.3964602241809416e-09 -5.6949716054077726e-09 3.3964602241809416e-09 0.00021266439580358565" pbc="T T T"
Na       2.39669192       1.69471734       4.15119130       0.00000025       0.00000196       0.00000086
Na       7.19007490       5.08415066      12.45357387      -0.00000034      -0.00000183      -0.00000071
Y        0.00000019      -0.00000005      -0.00000015      -0.00000247      -0.00000045       0.00000293
I        2.45182961       1.73370558       8.30238279      -0.00599094      -0.00423672       0.00000028
I        7.13493688       5.04516205       8.30238259       0.00599274       0.00423817      -0.00000025
I        5.96416060       1.73370537       6.27453758       0.00299544      -0.00423557      -0.00518723
I        3.62260619       5.04516253      10.33022792      -0.00299404       0.00423297       0.00518530
I        3.62260606       5.04516233       6.27453759      -0.00299510       0.00423464      -0.00518667
I        5.96416076       1.73370524      10.33022770       0.00299445      -0.00423307       0.00518550
