9
Lattice="5.709583381394292 -1.7691290799083743e-07 3.296429165640071 1.9031942811381444 5.383046831541666 3.2964291873453866 5.4687758858421314e-08 6.525355358441433e-08 6.59285823655818" Properties=species:S:1:pos:R:3:forces:R:3 energy=-33.47547912597656 free_energy=-33.47547912597656 stress="5.032315675634891e-05 3.813235238681045e-08 3.553984484483408e-08 3.813235238681045e-08 5.018735828343779e-05 2.3024430362283965e-08 3.553984484483408e-08 2.3024430362283965e-08 5.019379022996873e-05" pbc="T T T"
Nb       1.90319531       1.34576051       3.29642787       0.00001069      -0.00001189      -0.00001830
Nb       5.70957963       4.03728763       9.88929493      -0.00003415       0.00002280       0.00006753
As       0.00000019      -0.00000023      -0.00000087       0.00000060       0.00000184       0.00000166
Cl       1.93722413       1.36982222       6.59285836       0.00187956       0.00130677       0.00000339
Cl       5.67555425       4.01322373       6.59285493      -0.00187357      -0.00131255      -0.00002858
Cl       4.74097316       1.36982438       4.97411264      -0.00093242       0.00133014       0.00161606
Cl       2.87180506       4.01322260       8.21160386       0.00093515      -0.00132796      -0.00162412
Cl       2.87180775       4.01322368       4.97411162       0.00096215      -0.00132239       0.00161207
Cl       4.74097144       1.36982241       8.21160308      -0.00094819       0.00131309      -0.00162974
