9
Lattice="6.663678377424993 -6.317470588310048e-08 3.847276498819842 2.221226060339943 6.282576178121979 3.8472765090505088 -5.670155276763806e-09 8.520562877348303e-09 7.69455300746062" Properties=species:S:1:pos:R:3:forces:R:3 energy=-26.796667098999023 free_energy=-26.796667098999023 stress="0.00017803981609176844 -4.673149422984579e-09 -8.718904709326125e-09 -4.673149422984579e-09 0.00017804578237701207 6.43908082409439e-09 -8.718904709326125e-09 6.43908082409439e-09 0.00017804731032811105" pbc="T T T"
Nb       2.22122577       1.57064454       3.84727679      -0.00000084       0.00000065       0.00000087
Nb       6.66367875       4.71193133      11.54183036       0.00000162      -0.00000300       0.00000140
As       0.00000010       0.00000026       0.00000031       0.00000066      -0.00000049      -0.00000063
I        2.29937853       1.62590660       7.69455299      -0.00362452      -0.00256106      -0.00000031
I        6.58552572       4.65666963       7.69455266       0.00362416       0.00256263      -0.00000080
I        5.51398918       1.62590637       5.83859695       0.00181211      -0.00256088      -0.00313893
I        3.37091534       4.65666965       9.55050827      -0.00181392       0.00256301       0.00313827
I        3.37091553       4.65666950       5.83859678      -0.00181184       0.00256184      -0.00313855
I        5.51398878       1.62590656       9.55050892       0.00181255      -0.00256276       0.00313852
