9
Lattice="5.78737227844435 -2.024682985721623e-07 3.3413408255185204 1.9291238781105073 5.456387139960365 3.341340866767888 -1.0398184936092607e-07 -2.3006323588810256e-08 6.682681831138846" Properties=species:S:1:pos:R:3:forces:R:3 energy=-30.92885398864746 free_energy=-30.92885398864746 stress="0.0001478164631407708 -1.5625804650198916e-08 4.589796276377456e-08 -1.5625804650198916e-08 0.00014778375043533742 -1.1069355210224785e-08 4.589796276377456e-08 -1.1069355210224785e-08 0.00014774411101825535" pbc="T T T"
Nb       1.92912393       1.36409692       3.34134190       0.00000355       0.00000065       0.00000275
Nb       5.78737382       4.09229037      10.02402275       0.00000456       0.00000041      -0.00000138
As      -0.00000016      -0.00000051       0.00000041       0.00000066       0.00000585      -0.00000549
Br       2.00851313       1.42023312       6.68268134      -0.00647989      -0.00457911      -0.00000529
Br       5.70798344       4.03615395       6.68268209       0.00646953       0.00457250       0.00000037
Br       4.78311490       1.42023309       5.08076386       0.00323662      -0.00457542      -0.00560389
Br       2.93338019       4.03615342       8.28459884      -0.00323996       0.00458120       0.00560388
Br       2.93338010       4.03615379       5.08076410      -0.00323696       0.00457850      -0.00560136
Br       4.78311487       1.42023349       8.28459884       0.00324195      -0.00458454       0.00561060
