9
Lattice="5.556090252712213 -3.91875374616986e-08 3.2078101340136618 1.8520300213267114 5.238332290467625 3.2078101789851976 -1.0914681148612696e-07 -2.2099803870277764e-08 6.415620457075162" Properties=species:S:1:pos:R:3:forces:R:3 energy=-39.646636962890625 free_energy=-39.646636962890625 stress="-0.0003419778950046748 4.961896493682616e-08 1.3749142269148251e-08 4.961896493682616e-08 -0.0003420057473704219 9.965309466508643e-09 1.3749142269148251e-08 9.965309466508643e-09 -0.00034208697616122663" pbc="T T T"
Nb       1.85202928       1.30958609       3.20780698      -0.00000943       0.00002955      -0.00003633
Nb       5.55609326       3.92874751       9.62343517       0.00002376      -0.00002101       0.00004612
As      -0.00000009       0.00000019      -0.00000008      -0.00000216      -0.00000003       0.00000146
Se       2.03645013       1.43998881       6.41562163       0.00351906       0.00250214       0.00001327
Se       5.37166969       3.79834290       6.41561840      -0.00351655      -0.00249839      -0.00001721
Se       4.53786609       1.43998933       4.97142893      -0.00174841       0.00250202       0.00305462
Se       2.87025395       3.79834349       7.85981203       0.00174636      -0.00250119      -0.00305909
Se       2.87025495       3.79834272       4.97142770       0.00175852      -0.00250119       0.00304952
Se       4.53786347       1.43998785       7.85981238      -0.00177118       0.00248745      -0.00305241
