9
Lattice="5.7868622592694035 -9.149079316502961e-08 3.3410466931955454 1.9289539784118148 5.455906326447564 3.34104673087279 1.1681658089878723e-07 1.2874682872470545e-07 6.682093184058842" Properties=species:S:1:pos:R:3:forces:R:3 energy=-30.92885971069336 free_energy=-30.92885971069336 stress="7.278453267645091e-05 -3.5398521447405074e-08 4.125522323761288e-08 -3.5398521447405074e-08 7.285663014044985e-05 4.57204833992364e-08 4.125522323761288e-08 4.57204833992364e-08 7.278980774572119e-05" pbc="T T T"
Nb       1.92895482       1.36397748       3.34104676       0.00000899       0.00000723      -0.00000454
Nb       5.78686219       4.09193166      10.02314053      -0.00000198       0.00000394       0.00000778
As       0.00000020      -0.00000069       0.00000025      -0.00000497       0.00000287      -0.00000484
Br       2.00839330       1.42014745       6.68209355      -0.00612183      -0.00433111      -0.00000032
Br       5.70742337       4.03575745       6.68209311       0.00612333       0.00433287      -0.00000167
Br       4.78266545       1.42014845       5.08036671       0.00306345      -0.00433879      -0.00530523
Br       2.93315022       4.03575772       8.28382008      -0.00306799       0.00433251       0.00530173
Br       2.93315092       4.03575723       5.08036583      -0.00306295       0.00432712      -0.00530376
Br       4.78266491       1.42014872       8.28381970       0.00306410      -0.00433652       0.00531071
