9
Lattice="5.486606107705677 -8.391140537070437e-08 3.167693664463288 1.8288686396848783 5.172821963424958 3.1676936363542385 1.846214499629804e-08 -2.1371668293546773e-08 6.335387296949171" Properties=species:S:1:pos:R:3:forces:R:3 energy=-42.94829559326172 free_energy=-42.94829559326172 stress="0.0003667648124974221 1.0133621053398656e-08 -6.272926356132302e-08 1.0133621053398656e-08 0.00036674441071227193 -3.00102804828839e-08 -6.272926356132302e-08 -3.00102804828839e-08 0.0003668515710160136" pbc="T T T"
Nb       1.82886735       1.29320510       3.16769596      -0.00001988      -0.00000602       0.00003703
Nb       5.48660862       3.87961615       9.50307536       0.00003446       0.00000050      -0.00007140
As       0.00000041      -0.00000008      -0.00000023      -0.00000177      -0.00000288      -0.00000013
S        1.89486495       1.33987453       6.33538631      -0.00208533      -0.00144857      -0.00001637
S        5.42060920       3.83294807       6.33539069       0.00208437       0.00145698       0.00003815
S        4.53917208       1.33987134       4.80869667       0.00102776      -0.00148314      -0.00178665
S        2.77630326       3.83295065       7.86207834      -0.00102276       0.00148159       0.00179189
S        2.77630024       3.83294956       4.80869700      -0.00105888       0.00146562      -0.00178063
S        4.53917310       1.33987219       7.86207844       0.00104213      -0.00146323       0.00178868
