9
Lattice="4.876525923498057 -7.607301325350986e-09 2.8154650428365127 1.6255080391371821 4.5976288720352345 2.8154660731583006 3.170782022343137e-07 1.4860905597021389e-06 5.630929536477719" Properties=species:S:1:pos:R:3:forces:R:3 energy=-46.13893127441406 free_energy=-46.13893127441406 stress="-6.923860200913623e-05 -1.474216446695209e-07 4.905467676508124e-07 -1.474216446695209e-07 -6.7323082475923e-05 3.5719241964216053e-07 4.905467676508124e-07 3.5719241964216053e-07 -6.956184370210394e-05" pbc="T T T"
Nb       1.62551309       1.14937460       2.81550108       0.00002685      -0.00028475       0.00031223
Nb       4.87653273       3.44825733       8.44639747       0.00006734       0.00030129       0.00001169
As      -0.00000098       0.00000036      -0.00000158      -0.00001564      -0.00000243      -0.00005804
F        1.68940534       1.19458781       5.63091512      -0.00147684      -0.00111675      -0.00011863
F        4.81262309       3.40304755       5.63092584       0.00145310       0.00114201      -0.00002560
F        4.03181458       1.19457070       4.27854035       0.00066478      -0.00117818      -0.00127658
F        2.47021385       3.40305229       6.98331644      -0.00073399       0.00119175       0.00121601
F        2.47021117       3.40304391       4.27853177      -0.00075170       0.00108847      -0.00130267
F        4.03182494       1.19458719       6.98331661       0.00076600      -0.00114156       0.00124131
