9
Lattice="4.316889763809611 -7.805634214314628e-09 2.492357428618595 1.4389632660138547 4.070002528878584 2.4923573961082113 1.6587915953567258e-08 -2.8087491045268716e-08 4.9847148285060765" Properties=species:S:1:pos:R:3:forces:R:3 energy=-64.7192153930664 free_energy=-64.7192153930664 stress="0.0005935138324275613 2.1846249254053873e-08 3.995100250619998e-09 2.1846249254053873e-08 0.0005933318752795458 -1.910709990227133e-08 3.995100250619998e-09 -1.910709990227133e-08 0.0005936392117291689" pbc="T T T"
Nb       1.43896329       1.01750130       2.49235740      -0.00000000       0.00000736       0.00000068
Nb       4.31688931       3.05250101       7.47707209      -0.00000571      -0.00001007      -0.00000344
As       0.00000005      -0.00000005      -0.00000006       0.00000039      -0.00000152      -0.00000361
O        1.46655882       1.03701368       4.98471477      -0.00430208      -0.00304043       0.00000207
O        4.28929448       3.03298895       4.98471477       0.00430328       0.00303990       0.00000120
O        3.58361047       1.03701354       3.76243469       0.00215235      -0.00303933      -0.00372297
O        2.17224261       3.03298899       6.20699511      -0.00215048       0.00304133       0.00372809
O        2.17224286       3.03298886       3.76243447      -0.00214848       0.00303966      -0.00372851
O        3.58361030       1.03701372       6.20699531       0.00215012      -0.00303718       0.00372666
