9
Lattice="4.876147637114452 1.1409466105741897e-06 2.815244817183529 1.6253831003765287 4.597276019025399 2.815245719621798 1.7159432957438077e-07 1.2265920956215694e-06 5.630489337157241" Properties=species:S:1:pos:R:3:forces:R:3 energy=-46.138912200927734 free_energy=-46.138912200927734 stress="-0.00050429004477337 7.407837188111444e-08 -3.9024226339279267e-07 7.407837188111444e-08 -0.0005040743853896856 -2.4997424930006673e-07 -3.9024226339279267e-07 -2.4997424930006673e-07 -0.000504255760461092" pbc="T T T"
Nb       1.62540116       1.14935216       2.81525136       0.00015972       0.00027544       0.00004734
Nb       4.87616382       3.44799191       8.44576093       0.00013415       0.00029203       0.00022878
As      -0.00000400      -0.00000594      -0.00000480      -0.00002335      -0.00005779      -0.00001362
F        1.68884083       1.19418341       5.63049006       0.00547765       0.00380102      -0.00001528
F        4.81268933       3.40307938       5.63047828      -0.00545868      -0.00392921      -0.00009677
F        4.03172356       1.19418359       4.27782194      -0.00279974       0.00380293       0.00472641
F        2.46979690       3.40308016       6.98315454       0.00265197      -0.00395231      -0.00475430
F        2.46979641       3.40307399       4.27781688       0.00269107      -0.00397567       0.00467756
F        4.03171469       1.19417473       6.98315029      -0.00283275       0.00374350      -0.00480042
