9
Lattice="5.709634922877287 -1.7272836198143978e-08 3.296459336967895 1.903211581393366 5.383095951544655 3.296459411932408 -9.324728608841312e-08 2.5876605532315097e-08 6.592918835444809" Properties=species:S:1:pos:R:3:forces:R:3 energy=-33.47547912597656 free_energy=-33.47547912597656 stress="5.653715197695419e-05 -4.4084682571110534e-08 -3.3805285681864916e-08 -4.4084682571110534e-08 5.631221574731171e-05 -7.127484025204467e-08 -3.3805285681864916e-08 -7.127484025204467e-08 5.654491178574972e-05" pbc="T T T"
Nb       1.90321166       1.34577625       3.29645921      -0.00000177       0.00001974      -0.00000050
Nb       5.70963554       4.03732033       9.88937779       0.00000985      -0.00001624      -0.00000683
As      -0.00000023      -0.00000014       0.00000033       0.00000371       0.00000667      -0.00000665
Cl       1.93721934       1.36982126       6.59291858       0.00200552       0.00142683      -0.00000033
Cl       5.67562764       4.01327449       6.59291883      -0.00201310      -0.00142993       0.00000408
Cl       4.74102545       1.36982192       4.97414089      -0.00100160       0.00142525       0.00173700
Cl       2.87182105       4.01327351       8.21169716       0.00100081      -0.00142653      -0.00173751
Cl       2.87182032       4.01327428       4.97414089       0.00099614      -0.00142592       0.00173979
Cl       4.74102487       1.36982199       8.21169674      -0.00099945       0.00142017      -0.00172903
