9
Lattice="6.815936722133754 -4.1095483055803156e-08 3.9351828776904725 2.2719788972334136 6.426126701133589 3.935182828152634 2.118085600068624e-08 -4.5694151222185865e-08 7.8703657186946065" Properties=species:S:1:pos:R:3:forces:R:3 energy=-26.315980911254883 free_energy=-26.315980911254883 stress="4.8595116822980344e-05 -1.5016187182581575e-09 -7.066219831486364e-10 -1.5016187182581575e-09 4.860362605541013e-05 1.268342375571052e-10 -7.066219831486364e-10 1.268342375571052e-10 4.859387263422832e-05" pbc="T T T"
Nb       2.27197892       1.60653175       3.93518275      -0.00000009       0.00000073      -0.00000073
Nb       6.81593644       4.81959513      11.80554876      -0.00000088       0.00000158       0.00000056
Bi      -0.00000012      -0.00000015      -0.00000012       0.00000176       0.00000176       0.00000079
I        2.42823948       1.71702429       7.87036570       0.00095409       0.00067350       0.00000000
I        6.65967639       4.70910226       7.87036559      -0.00095531      -0.00067627      -0.00000015
I        5.60181710       1.71702446       6.03809984      -0.00047669       0.00067401       0.00082701
I        3.48609863       4.70910218       9.70263165       0.00047768      -0.00067562      -0.00082671
I        3.48609875       4.70910204       6.03809990       0.00047762      -0.00067430       0.00082666
I        5.60181703       1.71702441       9.70263161      -0.00047813       0.00067467      -0.00082726
