9
Lattice="5.658363806101003 -1.7536062068786884e-07 3.266857635241453 1.886121064880076 5.334756412886732 3.2668577019057716 -5.0745645509480636e-08 4.5764204349830865e-08 6.533715358376971" Properties=species:S:1:pos:R:3:forces:R:3 energy=-32.81931686401367 free_energy=-32.81931686401367 stress="3.124117210973054e-05 -4.933632524739551e-08 1.2048796627084357e-08 -4.933632524739551e-08 3.1182589736999944e-05 -2.6525732721438544e-08 1.2048796627084357e-08 -2.6525732721438544e-08 3.1096024031285197e-05" pbc="T T T"
Nb       1.88612098       1.33368917       3.26685772       0.00000057       0.00000129       0.00000189
Nb       5.65836392       4.00106758       9.80057326      -0.00000019       0.00000144       0.00000136
B       -0.00000029      -0.00000017      -0.00000063      -0.00000399      -0.00000073      -0.00001097
Br       1.82828568       1.29279292       6.53371533       0.00214982       0.00152171       0.00000312
Br       5.71619940       4.04196356       6.53371526      -0.00214872      -0.00152236       0.00000072
Br       4.74422044       1.29279326       4.85019929      -0.00107050       0.00151822       0.00186574
Br       2.80026401       4.04196309       8.21723138       0.00107330      -0.00152013      -0.00186351
Br       2.80026448       4.04196282       4.85019941       0.00107329      -0.00151870       0.00186494
Br       4.74422066       1.29279303       8.21723177      -0.00107348       0.00151944      -0.00186345
