9
Lattice="6.1063826496121 -1.635978144494774e-08 3.5255216969525556 2.0354609408513666 5.757152659152763 3.525521570389029 1.9960063343811978e-07 -1.3869068134005483e-08 7.051043048186698" Properties=species:S:1:pos:R:3:forces:R:3 energy=-30.21630096435547 free_energy=-30.21630096435547 stress="0.00017548903997521847 -4.266165376520803e-08 -2.860904224633032e-08 -4.266165376520803e-08 0.0001755288540152833 -6.482844039368274e-09 -2.860904224633032e-08 -6.482844039368274e-09 0.00017558856052346528" pbc="T T T"
Nb       2.03546164       1.43928894       3.52552244       0.00000485       0.00000560       0.00000438
Nb       6.10638289       4.31786522      10.57656691      -0.00000015       0.00000480       0.00001201
Bi      -0.00000010      -0.00000008      -0.00000043      -0.00000011      -0.00000272       0.00000367
Br       2.17795751       1.54004863       7.05104256      -0.00099100      -0.00070141      -0.00000195
Br       5.96388627       4.21710369       7.05104235       0.00099526       0.00069956      -0.00000354
Br       5.01740318       1.54004845       5.41168812       0.00049652      -0.00070857      -0.00086524
Br       3.12443950       4.21710401       8.69039771      -0.00050022       0.00070335       0.00086138
Br       3.12444058       4.21710359       5.41168767      -0.00049719       0.00070437      -0.00086977
Br       5.01740373       1.54004804       8.69039787       0.00049219      -0.00070510       0.00085906
