9
Lattice="5.071645669778394 -4.7066466991659895e-08 2.9281161992944558 1.6905485298970555 4.781592229566468 2.928116168673631 3.5314553317687986e-07 2.1220887166657673e-07 5.856231786922934" Properties=species:S:1:pos:R:3:forces:R:3 energy=-45.813804626464844 free_energy=-45.813804626464844 stress="0.0004001755442004651 4.1981657261658256e-08 -2.989312690715451e-07 4.1981657261658256e-08 0.000400926626753062 -1.3903631668199523e-07 -2.989312690715451e-07 -1.3903631668199523e-07 0.0004003405920229852" pbc="T T T"
Nb       1.69055097       1.19539297       2.92811698       0.00001541      -0.00003895       0.00000632
Nb       5.07164569       3.58619746       8.78435722      -0.00000006       0.00002468       0.00006281
Bi       0.00000021      -0.00000011       0.00000133       0.00000028      -0.00000176       0.00000028
F        1.80905475       1.27919291       5.85622983       0.00677352       0.00477926      -0.00000599
F        4.95313906       3.50240079       5.85622785      -0.00677750      -0.00477154      -0.00002819
F        4.16711801       1.27919444       4.49480149      -0.00338953       0.00479271       0.00585666
F        2.59507432       3.50240071       7.21765946       0.00337728      -0.00477734      -0.00587671
F        2.59507739       3.50239977       4.49480288       0.00339757      -0.00477535       0.00585827
F        4.16711780       1.27919046       7.21766008      -0.00339666       0.00476816      -0.00587315
