9
Lattice="6.284131405904446 -1.3521554124878214e-07 3.628145009061665 2.0947103565345664 5.924735924200734 3.628144982418939 -2.2399186805050713e-09 -3.421442752224301e-08 7.256290022003025" Properties=species:S:1:pos:R:3:forces:R:3 energy=-27.901138305664062 free_energy=-27.901138305664062 stress="-8.138851990224794e-05 -4.164656619565221e-09 -3.2341282985015596e-09 -4.164656619565221e-09 -8.142524893628433e-05 -8.098469450601442e-09 -3.2341282985015596e-09 -8.098469450601442e-09 -8.144162711687386e-05" pbc="T T T"
Nb       2.09471030       1.48118318       3.62814516       0.00000264      -0.00000265       0.00000157
Nb       6.28413151       4.44355205      10.88443430      -0.00000099      -0.00000093      -0.00000249
B       -0.00000007      -0.00000008       0.00000059       0.00000002       0.00000044       0.00000204
I        2.05883391       1.45581521       7.25628990      -0.00656616      -0.00464201      -0.00000024
I        6.32000784       4.46892079       7.25629040       0.00656509       0.00464507       0.00000033
I        5.25471414       1.45581557       5.41114680       0.00328408      -0.00464351      -0.00568625
I        3.12412761       4.46892035       9.10143294      -0.00328444       0.00464391       0.00568506
I        3.12412739       4.46892017       5.41114700      -0.00328339       0.00464473      -0.00568408
I        5.25471442       1.45581571       9.10143300       0.00328305      -0.00464499       0.00568391
