9
Lattice="5.503354707674993 -8.753995691158512e-08 3.177363402840412 1.834451573300731 5.188612387764589 3.177363252828896 -1.7865447817592787e-08 -1.9635862790522333e-07 6.354726836624714" Properties=species:S:1:pos:R:3:forces:R:3 energy=-34.98896789550781 free_energy=-34.98896789550781 stress="5.8839807024924085e-05 -8.211152646708797e-08 5.2276448059274117e-08 -8.211152646708797e-08 5.890543252462521e-05 7.967797444052849e-08 5.2276448059274117e-08 7.967797444052849e-08 5.870924724149518e-05" pbc="T T T"
Nb       1.83445292       1.29715287       3.17736194       0.00001112       0.00000259      -0.00001129
Nb       5.50335219       3.89145900       9.53209144      -0.00002219      -0.00000293       0.00000971
B       -0.00000008      -0.00000009      -0.00000000      -0.00000117      -0.00000071      -0.00000022
Cl       1.65894894       1.17305362       6.35472711       0.00070876       0.00049758       0.00000608
Cl       5.67885772       4.01555836       6.35472636      -0.00070608      -0.00049701      -0.00000157
Cl       4.67388021       1.17305427       4.61405490      -0.00035200       0.00050080       0.00060773
Cl       2.66392653       4.01555819       8.09539866       0.00035813      -0.00050098      -0.00060973
Cl       2.66392655       4.01555837       4.61405523       0.00035852      -0.00049683       0.00061047
Cl       4.67388010       1.17305367       8.09539836      -0.00035524       0.00049788      -0.00061056
