9
Lattice="5.8799842937885485 -5.762719598116067e-08 3.394810437584526 1.9599947169060659 5.543702282349452 3.3948104260814085 -2.7075079060287297e-08 -3.32333449102041e-08 6.789620922064465" Properties=species:S:1:pos:R:3:forces:R:3 energy=-33.3936882019043 free_energy=-33.3936882019043 stress="0.0003255995106883347 -3.161878936452922e-08 -3.820068172899482e-08 -3.161878936452922e-08 0.0003255436895415187 7.767673615433068e-09 -3.820068172899482e-08 7.767673615433068e-09 0.0003254528855904937" pbc="T T T"
Nb       1.95999262       1.38592545       3.39481066      -0.00001397      -0.00000282       0.00000201
Nb       5.87998465       4.15777685      10.18443219       0.00000376       0.00000174       0.00000411
Bi       0.00000016      -0.00000001      -0.00000008      -0.00000222       0.00000363       0.00000392
Cl       2.07922414       1.47023361       6.78962068       0.00393586       0.00278160      -0.00000078
Cl       5.76075524       4.07346865       6.78962041      -0.00393188      -0.00278364      -0.00000142
Cl       4.84037274       1.47023342       5.19547163      -0.00196172       0.00277953       0.00340763
Cl       2.99960653       4.07346878       8.38377051       0.00196698      -0.00278363      -0.00341307
Cl       2.99960699       4.07346890       5.19547134       0.00196701      -0.00277828       0.00340946
Cl       4.84037289       1.47023301       8.38376990      -0.00196396       0.00278191      -0.00341174
