9
Lattice="5.192117739369377 3.0706374615826335 1.4254480464396087 2.6927662651963304 4.73507228122934 0.02489794717056001 2.151455995094908 2.6055466934536744 2.3941784823606205" Properties=species:S:1:pos:R:3:forces:R:3 energy=-41978412.0 free_energy=-41978412.0 stress="285893.875 -418644.9375 -416200.25 -418644.9375 34854.703125 123945.8828125 -416200.25 123945.8828125 785498.9375" pbc="T T T"
Nb       0.33899840       2.76431515       0.38495881  828154.75000000  730620.50000000 -1808230.00000000
Nb       4.49652851       8.23776898       1.38135784 489175808.00000000 150780576.00000000 -29783920.00000000
C       -1.72899744       0.57040308      -0.46360160  755801.25000000 6449800.50000000 -3306340.50000000
F        1.71141553       5.02067283       0.53754753 4345867.50000000 -12526090.00000000 -6320534.50000000
F        6.00496055       8.52412174       0.78639921 21342132.00000000  167921.50000000 -12366554.00000000
F        5.43728369       5.67393741       1.06955698  981520.56250000 7977626.50000000 8659973.00000000
F        4.50517833       8.21634459       1.35838217 -513144960.00000000 -143222528.00000000 61039488.00000000
F        3.30871044       6.26962864       0.23728492 1394473.25000000 -5895799.50000000 -5541653.00000000
F        5.88607118       7.66999758       2.48830926 -5678689.00000000 -4462112.50000000 -10572241.00000000
