9
Lattice="5.524362693992519 -3.859881506858583e-08 3.189492281521775 1.841454209531221 5.208418990956449 3.189492256248209 3.3139544092278096e-08 -7.520464046263169e-09 6.378984505644189" Properties=species:S:1:pos:R:3:forces:R:3 energy=-37.463626861572266 free_energy=-37.463626861572266 stress="0.00010509134881431237 3.2922895520925977e-09 3.752127497591573e-08 3.2922895520925977e-09 0.00010502804798306897 2.5754911092690236e-08 3.752127497591573e-08 2.5754911092690236e-08 0.00010506989929126576" pbc="T T T"
Nb       1.84145531       1.30210590       3.18949035       0.00001143       0.00001466      -0.00002183
Nb       5.52436199       3.90631253       9.56847997      -0.00000779      -0.00001673       0.00003188
Co      -0.00000009       0.00000010       0.00000022       0.00000184       0.00000002      -0.00000125
Cl       1.86113112       1.31601888       6.37898475       0.00040616       0.00029039       0.00000597
Cl       5.50468567       3.89240035       6.37898311      -0.00040981      -0.00029068      -0.00001049
Cl       4.59379718       1.31601944       4.80127872      -0.00020195       0.00029535       0.00034708
Cl       2.77201964       3.89239973       7.95668996       0.00020140      -0.00029308      -0.00035087
Cl       2.77202033       3.89240017       4.80127908       0.00020748      -0.00028827       0.00034890
Cl       4.59379663       1.31601867       7.95669002      -0.00020850       0.00028825      -0.00034945
