9
Lattice="5.6571861623404445 -4.1135265533567374e-08 3.2661779533063293 1.8857286812018605 5.333646113202877 3.2661779546843497 1.814379541089884e-08 1.4517324726698136e-08 6.5323558751867035" Properties=species:S:1:pos:R:3:forces:R:3 energy=-32.46526336669922 free_energy=-32.46526336669922 stress="0.0003061321040149778 1.749802791550792e-08 -2.4061284076282163e-09 1.749802791550792e-08 0.0003061977622564882 4.291744293283273e-09 -2.4061284076282163e-09 4.291744293283273e-09 0.0003061014285776764" pbc="T T T"
Nb       1.88572937       1.33341004       3.26617876       0.00000612      -0.00001329       0.00000484
Nb       5.65718503       4.00023514       9.79853409      -0.00001073       0.00000337       0.00000228
C        0.00000008      -0.00000002      -0.00000001      -0.00000137       0.00000040       0.00000048
Cl       1.94483059       1.37520218       6.53235558       0.00075883       0.00053221      -0.00000176
Cl       5.59808424       3.95844409       6.53235580      -0.00075947      -0.00053035      -0.00000245
Cl       4.68477067       1.37520268       4.95045001      -0.00038073       0.00053626       0.00065401
Cl       2.85814417       3.95844377       8.11426145       0.00038223      -0.00053018      -0.00065690
Cl       2.85814423       3.95844379       4.95045013       0.00038403      -0.00053431       0.00065619
Cl       4.68477108       1.37520268       8.11426131      -0.00037876       0.00053599      -0.00065650
