9
Lattice="5.649329477417814 -3.48424140050045e-08 3.2616417727191407 1.8831098041912389 5.3262387062783 3.261641753259462 -9.676645134707363e-08 -9.22573481656934e-08 6.523283713042671" Properties=species:S:1:pos:R:3:forces:R:3 energy=-41.093605041503906 free_energy=-41.093605041503906 stress="0.0004024087393190712 1.915928304896397e-09 -1.9373938897615517e-08 1.915928304896397e-09 0.0004023908986710012 2.6717176027091227e-08 -1.9373938897615517e-08 2.6717176027091227e-08 0.0004024541412945837" pbc="T T T"
Nb       1.88311024       1.33156034       3.26164134       0.00000439       0.00000403      -0.00000679
Nb       5.64932696       3.99467909       9.78492783      -0.00002161       0.00000117       0.00001533
Cr       0.00000015       0.00000007       0.00000018      -0.00000128      -0.00000381      -0.00000446
Cl       1.89503493       1.33999106       6.52328387      -0.00201120      -0.00142985       0.00000156
Cl       5.63740429       3.98624655       6.52328270       0.00202007       0.00142754      -0.00000889
Cl       4.70181243       1.33999222       4.90278940       0.00100994      -0.00142197      -0.00175117
Cl       2.83062735       3.98624638       8.14377724      -0.00100771       0.00142810       0.00175507
Cl       2.83062829       3.98624665       4.90278928      -0.00099964       0.00142250      -0.00175144
Cl       4.70181209       1.33999194       8.14377714       0.00100702      -0.00142755       0.00175070
