9
Lattice="4.697891679329575 -2.599899040805918e-07 2.712329002789724 1.5659637606347567 4.429214304280539 2.7123288076816148 -6.651293117907831e-08 -2.8598940768713637e-07 5.424658120783244" Properties=species:S:1:pos:R:3:forces:R:3 energy=-50.257965087890625 free_energy=-50.257965087890625 stress="0.0003804258012678474 -3.078151422641895e-08 1.2745769595312595e-07 -3.078151422641895e-08 0.00038034480530768633 6.46311875129868e-08 1.2745769595312595e-07 6.46311875129868e-08 0.0003805199812632054" pbc="T T T"
Nb       1.56596516       1.10730544       2.71232944       0.00001531       0.00002182       0.00000043
Nb       4.69789199       3.32190921       8.13697784       0.00000621      -0.00001057      -0.00009635
Co       0.00000007       0.00000012      -0.00000018       0.00000078      -0.00000713      -0.00000770
F        1.55130193       1.09693615       5.42465865      -0.00150076      -0.00105478       0.00000389
F        4.71255366       3.33227713       5.42466145       0.00150117       0.00105496       0.00003960
F        3.92223967       1.09693507       4.05579683       0.00073926      -0.00106883      -0.00128697
F        2.34161584       3.33227724       6.79352115      -0.00074230       0.00105764       0.00131865
F        2.34161336       3.33227771       4.05579715      -0.00076915       0.00105529      -0.00128941
F        3.92223975       1.09693699       6.79352144       0.00074926      -0.00104861       0.00131781
