9
Lattice="6.442164877061473 -3.0878057762210593e-08 3.7193856705593054 2.147388309210916 6.073731134814377 3.719385590938328 6.714741780689025e-08 -5.0034990141999907e-08 7.438771224815854" Properties=species:S:1:pos:R:3:forces:R:3 energy=-33.32896423339844 free_energy=-33.32896423339844 stress="0.000286867783870548 -1.8775056176423277e-08 1.387061043800486e-08 -1.8775056176423277e-08 0.00028687960002571344 -5.1187711846978345e-09 1.387061043800486e-08 -5.1187711846978345e-09 0.00028688256861642003" pbc="T T T"
Nb       2.14738792       1.51843281       3.71938599      -0.00000042       0.00000079       0.00000332
Nb       6.44216471       4.55529782      11.15815810      -0.00000213      -0.00000200       0.00000587
Cr      -0.00000003       0.00000041      -0.00000034       0.00000077      -0.00000253      -0.00000015
I        2.15751320       1.52559186       7.43877085      -0.00679522      -0.00480523      -0.00000110
I        6.43204016       4.54813906       7.43877095       0.00679652       0.00480543      -0.00000238
I        5.36340846       1.52559218       5.58784623       0.00339944      -0.00480452      -0.00588689
I        3.22614488       4.54813923       9.28969555      -0.00339935       0.00480558       0.00588539
I        3.22614508       4.54813864       5.58784658      -0.00339882       0.00480847      -0.00588969
I        5.36340860       1.52559221       9.28969610       0.00339928      -0.00480603       0.00588560
