9
Lattice="6.330688200814978 6.566253404958204e-09 3.655024498461664 2.11022943233652 5.968629938080541 3.65502445364627 -7.3962375052650155e-09 -6.01172815749655e-08 7.310049009733946" Properties=species:S:1:pos:R:3:forces:R:3 energy=-30.089054107666016 free_energy=-30.089054107666016 stress="7.316750270547345e-05 5.777758271818811e-09 4.716989021602558e-09 5.777758271818811e-09 7.316698611248285e-05 1.7279166986128303e-09 4.716989021602558e-09 1.7279166986128303e-09 7.316986011574045e-05" pbc="T T T"
Nb       2.11022931       1.49215790       3.65502418       0.00000007       0.00000232      -0.00000031
Nb       6.33068860       4.47647299      10.96507438       0.00000216       0.00000357       0.00000531
Co       0.00000010      -0.00000005      -0.00000009      -0.00000033      -0.00000039      -0.00000072
I        2.09799084       1.48350340       7.31004911      -0.00250996      -0.00177526       0.00000055
I        6.34292688       4.48512638       7.31004863       0.00250937       0.00177331      -0.00000249
I        5.28169273       1.48350315       5.47193771       0.00125459      -0.00177538      -0.00217282
I        3.15922457       4.48512640       9.14816024      -0.00125582       0.00177393       0.00217218
I        3.15922480       4.48512618       5.47193754      -0.00125488       0.00177388      -0.00217447
I        5.28169271       1.48350319       9.14816018       0.00125471      -0.00177592       0.00217271
