9
Lattice="5.682214262747904 -9.6465861108588e-08 3.2806279324854226 1.8940713485365004 5.357242772520483 3.280627900322268 -4.280716869185652e-08 -6.966090502145125e-08 6.561255939115047" Properties=species:S:1:pos:R:3:forces:R:3 energy=-34.993770599365234 free_energy=-34.993770599365234 stress="-3.3696436730679125e-05 -1.746506228528233e-08 1.400750765379044e-10 -1.746506228528233e-08 -3.373633080627769e-05 1.9629286640565624e-08 1.400750765379044e-10 1.9629286640565624e-08 -3.369371916051023e-05" pbc="T T T"
Nb       1.89407202       1.33931060       3.28062803      -0.00000003       0.00000079       0.00000024
Nb       5.68221460       4.01793204       9.84188386       0.00000171      -0.00000033      -0.00000167
Co      -0.00000018       0.00000002       0.00000014       0.00000006       0.00000347      -0.00000222
Br       1.92554681       1.36156718       6.56125606      -0.00020263      -0.00014218      -0.00000069
Br       5.65073857       3.99567535       6.56125593       0.00020175       0.00014435      -0.00000087
Br       4.71944042       1.36156724       4.94820055       0.00010112      -0.00014614      -0.00017986
Br       2.85684471       3.99567545       8.17431104      -0.00010306       0.00014560       0.00017780
Br       2.85684472       3.99567533       4.94820045      -0.00010022       0.00014176      -0.00017453
Br       4.71944064       1.36156721       8.17431104       0.00010134      -0.00014729       0.00018191
