9
Lattice="5.785060077588473 -3.706322943809983e-08 3.340006038469906 1.928353303210229 5.45420681303515 3.340006074916401 -6.983298219568707e-08 -4.7417432723481566e-09 6.680012197894085" Properties=species:S:1:pos:R:3:forces:R:3 energy=-31.37228775024414 free_energy=-31.37228775024414 stress="2.2424294002121314e-05 1.3890904426716588e-08 -1.4051299679351814e-08 1.3890904426716588e-08 2.234857493021991e-05 -4.45275860627703e-09 -1.4051299679351814e-08 -4.45275860627703e-09 2.2407504729926586e-05" pbc="T T T"
Nb       1.92835343       1.36355234       3.34000593       0.00000241       0.00000811      -0.00000174
Nb       5.78506110       4.09065370      10.02001871       0.00000297      -0.00000589       0.00000115
C        0.00000082       0.00000138       0.00000047       0.00000340       0.00000593       0.00000106
Br       1.99263533       1.40900637       6.68001230      -0.00011845      -0.00008047       0.00000060
Br       5.72077710       4.04520027       6.68001175       0.00011285       0.00007695      -0.00000023
Br       4.78874153       1.40900683       5.06567908       0.00005811      -0.00008070      -0.00009988
Br       2.92467136       4.04520005       8.29434473      -0.00005848       0.00007890       0.00009902
Br       2.92467098       4.04519995       5.06567947      -0.00006060       0.00007947      -0.00009780
Br       4.78874157       1.40900626       8.29434489       0.00005759      -0.00008228       0.00009781
