9
Lattice="5.704170274405673 -1.235687535061822e-07 3.2933041696527314 1.901390004085365 5.377943250622807 3.293304119217943 -1.0907316391444292e-07 -1.3889611107839084e-07 6.586608528225692" Properties=species:S:1:pos:R:3:forces:R:3 energy=-36.322608947753906 free_energy=-36.322608947753906 stress="-7.221687701530755e-05 4.9217121045330714e-08 3.362001521622915e-08 4.9217121045330714e-08 -7.220463885460049e-05 -4.436016887154892e-09 3.362001521622915e-08 -4.436016887154892e-09 -7.22036711522378e-05" pbc="T T T"
Nb       1.90139057       1.34448543       3.29330443       0.00000240      -0.00000223       0.00000025
Nb       5.70416983       4.03345726       9.87991289      -0.00000409       0.00000067       0.00000403
Fe      -0.00000035       0.00000056       0.00000028       0.00000590      -0.00000723      -0.00000002
Br       1.89699579       1.34137868       6.58660820      -0.00278965      -0.00197512      -0.00000028
Br       5.70856450       4.03656421       6.58660835       0.00278991       0.00197527      -0.00000097
Br       4.75567249       1.34137857       4.93615061       0.00139378      -0.00196990      -0.00241482
Br       2.84988782       4.03656431       8.23706596      -0.00139572       0.00197586       0.00241634
Br       2.84988778       4.03656454       4.93615053      -0.00139563       0.00197458      -0.00241873
Br       4.75567231       1.34137843       8.23706603       0.00139295      -0.00197199       0.00241420
