9
Lattice="6.349773682557913 -3.8367163912596213e-08 3.6660433968513253 2.116591191906298 5.986624085171644 3.666043395881542 -7.684512915567163e-09 -6.62151517767268e-09 7.332086807012639" Properties=species:S:1:pos:R:3:forces:R:3 energy=-31.414695739746094 free_energy=-31.414695739746094 stress="0.00020812828734051436 -8.776624760287177e-09 -1.2991023368158494e-08 -8.776624760287177e-09 0.0002081296406686306 5.130478264447902e-09 -1.2991023368158494e-08 5.130478264447902e-09 0.0002081348793581128" pbc="T T T"
Nb       2.11659065       1.49665575       3.66604359      -0.00000262      -0.00000025       0.00000139
Nb       6.34977398       4.48996788      10.99812992       0.00000159      -0.00000113      -0.00000225
Fe      -0.00000004      -0.00000002      -0.00000025       0.00000016       0.00000015       0.00000031
I        2.07367333       1.46630856       7.33208676      -0.00568976      -0.00402362      -0.00000054
I        6.39269164       4.52031554       7.33208692       0.00569011       0.00402403       0.00000069
I        5.31293705       1.46630854       5.46189720       0.00284685      -0.00402480      -0.00492957
I        3.15342784       4.52031576       9.20227653      -0.00284682       0.00402512       0.00492962
I        3.15342764       4.52031568       5.46189720      -0.00284556       0.00402512      -0.00492826
I        5.31293744       1.46630849       9.20227652       0.00284606      -0.00402468       0.00492852
