9
Lattice="4.7300188681552955 -2.3289032806269025e-07 2.730877403165099 1.5766729664459493 4.459503091854566 2.7308770048535003 3.1820314227433e-07 -2.628264669264595e-07 5.4617542551861336" Properties=species:S:1:pos:R:3:forces:R:3 energy=-51.044891357421875 free_energy=-51.044891357421875 stress="0.0006379330880008638 2.846899462838337e-07 -2.383903385805297e-08 2.846899462838337e-07 0.0006384352454915643 -7.578196914437285e-08 -2.383903385805297e-08 -7.578196914437285e-08 0.0006385964225046337" pbc="T T T"
Nb       1.57667619       1.11487313       2.73087544       0.00003755      -0.00003070      -0.00001959
Nb       4.73001454       3.34462625       8.19263062      -0.00005709      -0.00000869      -0.00001053
Fe       0.00000008      -0.00000009       0.00000003      -0.00000906      -0.00000037      -0.00000224
F        1.62571330       1.14955040       5.46175486       0.00576954       0.00406434       0.00000795
F        4.68097887       3.30995223       5.46175486      -0.00576768      -0.00405353       0.00000490
F        3.91716246       1.14955243       4.13878444      -0.00288523       0.00408296       0.00497930
F        2.38953121       3.30995128       6.78472458       0.00290369      -0.00407301      -0.00497925
F        2.38953025       3.30995240       4.13878490       0.00289956      -0.00406427       0.00498946
F        3.91716194       1.14955242       6.78472512      -0.00289122       0.00408350      -0.00496982
