9
Lattice="5.615126260916106 5.6170229437417286e-08 3.2418945781702324 1.8717087634057004 5.29399188002561 3.241894652978914 -3.099449333730995e-09 8.942990618422276e-08 6.483789161708909" Properties=species:S:1:pos:R:3:forces:R:3 energy=-38.46197509765625 free_energy=-38.46197509765625 stress="1.5618556062690914e-05 3.9372494597955665e-08 8.981436039334767e-09 3.9372494597955665e-08 1.563629302836489e-05 -3.985645147253081e-09 8.981436039334767e-09 -3.985645147253081e-09 1.5524155969615094e-05" pbc="T T T"
Nb       1.87171028       1.32349655       3.24189441       0.00001966      -0.00001093      -0.00000385
Nb       5.61512050       3.97049161       9.72568340      -0.00005626      -0.00002218      -0.00000524
Fe       0.00000025       0.00000030      -0.00000080      -0.00000323      -0.00000168       0.00002481
Cl       1.86575922       1.31928971       6.48378877       0.00054553       0.00037631       0.00000142
Cl       5.62107615       3.97470268       6.48378887      -0.00054193      -0.00036837       0.00000312
Cl       4.68224817       1.31929195       4.85768777      -0.00026663       0.00039048       0.00045684
Cl       2.80458929       3.97470206       8.10989142       0.00029440      -0.00038879      -0.00046858
Cl       2.80458871       3.97470179       4.85768818       0.00028291      -0.00037897       0.00045952
Cl       4.68224753       1.31929149       8.10989159      -0.00027452       0.00040440      -0.00046813
