9
Lattice="6.505301282075528 1.0064926894581231e-07 3.7558373946144856 2.168433879453769 6.133256885651811 3.7558373532723923 -2.028240594070675e-09 -5.206774461946738e-08 7.511674792742038" Properties=species:S:1:pos:R:3:forces:R:3 energy=-26.665050506591797 free_energy=-26.665050506591797 stress="5.37746018380858e-05 1.6856070317317062e-08 3.0079898571955255e-09 1.6856070317317062e-08 5.376919580157846e-05 1.4653820379351146e-09 3.0079898571955255e-09 1.4653820379351146e-09 5.37631603947375e-05" pbc="T T T"
Nb       2.16843325       1.53331511       3.75583728      -0.00000338       0.00000404      -0.00000072
Nb       6.50530154       4.59994204      11.26751187       0.00000085      -0.00000236       0.00000053
Ga      -0.00000000      -0.00000006      -0.00000008      -0.00000118      -0.00000189      -0.00000107
I        2.22299656       1.57189634       7.51167484       0.00043253       0.00030634       0.00000039
I        6.45073862       4.56136054       7.51167468      -0.00042770      -0.00030521      -0.00000081
I        5.39380315       1.57189604       5.68100899      -0.00021611       0.00030651       0.00037496
I        3.27993216       4.56136083       9.34234069       0.00021453      -0.00030557      -0.00037272
I        3.27993230       4.56136062       5.68100903       0.00021585      -0.00030651       0.00037322
I        5.39380305       1.57189625       9.34234087      -0.00021539       0.00030468      -0.00037374
