9
Lattice="5.750484650898699 1.2576775788875804e-07 3.320043910624315 1.9168283225901315 5.421608669481938 3.320043933056257 1.941507202028757e-07 1.6475871583310915e-07 6.640087484969714" Properties=species:S:1:pos:R:3:forces:R:3 energy=-34.514556884765625 free_energy=-34.514556884765625 stress="8.814262400846928e-05 -1.4355991950765201e-08 7.955582503882397e-08 -1.4355991950765201e-08 8.809442078927532e-05 1.5789812790600877e-09 7.955582503882397e-08 1.5789812790600877e-09 8.81832602317445e-05" pbc="T T T"
Nb       1.91682795       1.35540185       3.32004287      -0.00000776      -0.00000191      -0.00001130
Nb       5.75048541       4.06620707       9.96013311       0.00000316       0.00000516       0.00001851
Ge       0.00000003      -0.00000005       0.00000020       0.00000018       0.00000230      -0.00000032
Cl       1.94161024       1.37292612       6.64008788       0.00161905       0.00114598       0.00000145
Cl       5.72570259       4.04868286       6.64008706      -0.00161822      -0.00114523      -0.00000421
Cl       4.77967991       1.37292612       5.00152779      -0.00080492       0.00114515       0.00139836
Cl       2.88763298       4.04868313       8.27864714       0.00080551      -0.00114569      -0.00140342
Cl       2.88763405       4.04868347       5.00152770       0.00081223      -0.00114502       0.00140372
Cl       4.77967950       1.37292531       8.27864760      -0.00080920       0.00113922      -0.00140278
