9
Lattice="6.505301367736502 7.239595422820485e-08 3.7558374762482547 2.168433878949325 6.1332569534947865 3.7558374390987828 -3.5676026096019998e-09 -4.802127781352433e-08 7.511674958675731" Properties=species:S:1:pos:R:3:forces:R:3 energy=-26.66505241394043 free_energy=-26.66505241394043 stress="5.380418951972388e-05 2.2424657686315186e-08 -1.0761493030031488e-08 2.2424657686315186e-08 5.3789983212482184e-05 -2.3726658415768043e-09 -1.0761493030031488e-08 -2.3726658415768043e-09 5.378988498705439e-05" pbc="T T T"
Nb       2.16843305       1.53331509       3.75583728      -0.00000359       0.00000379      -0.00000161
Nb       6.50530135       4.59994231      11.26751155      -0.00000029      -0.00000335      -0.00000468
Ga      -0.00000008      -0.00000011      -0.00000005       0.00000034      -0.00000109       0.00000044
I        2.22299705       1.57189635       7.51167506       0.00042990       0.00030493       0.00000117
I        6.45073854       4.56136048       7.51167520      -0.00042632      -0.00030661       0.00000234
I        5.39380314       1.57189601       5.68100932      -0.00021431       0.00030450       0.00037551
I        3.27993232       4.56136075       9.34234080       0.00021523      -0.00030537      -0.00037127
I        3.27993239       4.56136066       5.68100939       0.00021476      -0.00030461       0.00037197
I        5.39380321       1.57189636       9.34234096      -0.00021575       0.00030770      -0.00037383
