9
Lattice="5.382926043551782 -1.8045099937939427e-08 3.1078338923113544 1.7943086539691986 5.075071441198109 3.1078339099810934 -4.417069436144332e-09 1.8517594889138165e-08 6.215667792273286" Properties=species:S:1:pos:R:3:forces:R:3 energy=-42.8896484375 free_energy=-42.8896484375 stress="6.941398169146851e-05 1.1767224528114184e-08 1.5023022825744192e-08 1.1767224528114184e-08 6.941030733287334e-05 5.204784514489802e-08 1.5023022825744192e-08 5.204784514489802e-08 6.946273788344115e-05" pbc="T T T"
Nb       1.79430882       1.26876856       3.10783389      -0.00000160       0.00000729      -0.00000027
Nb       5.38292645       3.80630280       9.32350184       0.00000487      -0.00000893       0.00000087
Ga      -0.00000001      -0.00000005       0.00000000      -0.00000097       0.00000010       0.00000203
S        1.87815246       1.32805448       6.21566772      -0.00105956      -0.00074837       0.00000090
S        5.29908199       3.74701704       6.21566781       0.00106105       0.00075150       0.00000023
S        4.44384969       1.32805511       4.73436163       0.00053188      -0.00074872      -0.00092205
S        2.73338469       3.74701652       7.69697401      -0.00053276       0.00074548       0.00092050
S        2.73338449       3.74701694       4.73436196      -0.00053468       0.00074908      -0.00091833
S        4.44385022       1.32805439       7.69697364       0.00053172      -0.00074756       0.00091612
