9
Lattice="6.555849578107377 5.521855233299364e-08 3.7850214261851085 2.185283261308438 6.18091423017132 3.785021397527605 1.6820406410006905e-08 -2.320427644778218e-08 7.570042823236394" Properties=species:S:1:pos:R:3:forces:R:3 energy=-27.38022804260254 free_energy=-27.38022804260254 stress="0.0001036531466525048 6.027279120246476e-09 3.257575764692433e-09 6.027279120246476e-09 0.00010365311027271673 -9.355311192393856e-09 3.257575764692433e-09 -9.355311192393856e-09 0.0001036508911056444" pbc="T T T"
Nb       2.18528399       1.54522804       3.78502136       0.00000375      -0.00000328      -0.00000146
Nb       6.55584983       4.63568527      11.35506421       0.00000168      -0.00000176       0.00000138
Ge      -0.00000004      -0.00000017       0.00000006       0.00000033       0.00000017      -0.00000145
I        2.26920236       1.60456854       7.57004282       0.00051037       0.00036311      -0.00000023
I        6.47192992       4.57634616       7.57004277      -0.00051304      -0.00036013      -0.00000072
I        5.42124835       1.60456853       5.75020851      -0.00025636       0.00036280       0.00044299
I        3.31988447       4.57634586       9.38987732       0.00025428      -0.00036075      -0.00044328
I        3.31988451       4.57634596       5.75020842       0.00025526      -0.00036133       0.00044398
I        5.42124804       1.60456887       9.38987709      -0.00025625       0.00036117      -0.00044103
