9
Lattice="4.82730248204703 6.084420829786165e-08 2.787045029461196 1.6091009317601028 4.551224251044713 2.7870449479741235 3.6898998423708396e-07 1.611144530328956e-07 5.574089419813" Properties=species:S:1:pos:R:3:forces:R:3 energy=-48.18049240112305 free_energy=-48.18049240112305 stress="-1.9859277017530985e-05 4.562545896646952e-09 -1.0753372947647222e-07 4.562545896646952e-09 -1.9904669898096472e-05 -2.755341199645045e-08 -1.0753372947647222e-07 -2.755341199645045e-08 -1.98795478354441e-05" pbc="T T T"
Nb       1.60909766       1.13781303       2.78704038      -0.00002798       0.00005783      -0.00003012
Nb       4.82730475       3.41341989       8.36114310       0.00001681       0.00000816       0.00005873
Ga      -0.00000012      -0.00000050      -0.00000014       0.00000736       0.00000578      -0.00000841
F        1.58224180       1.11881457       5.57409082       0.00025034       0.00017349       0.00001120
F        4.85416424       3.43240748       5.57408879      -0.00024667      -0.00020307      -0.00002234
F        4.03618373       1.11881454       4.15730580      -0.00011459       0.00018620       0.00022407
F        2.40022070       3.43240829       6.99087300       0.00011101      -0.00019702      -0.00022002
F        2.40021976       3.43240901       4.15730430       0.00013413      -0.00019605       0.00022113
F        4.03618294       1.11881181       6.99087243      -0.00013055       0.00016473      -0.00023431
