9
Lattice="5.558910055223294 -4.489974806427831e-08 3.2094383160648183 1.852969981088055 5.240990779034313 3.209438307383477 1.7963748334217678e-08 2.069846768838818e-09 6.4188766010155" Properties=species:S:1:pos:R:3:forces:R:3 energy=-39.491844177246094 free_energy=-39.491844177246094 stress="-0.0001676942192716524 3.896214195719949e-08 3.546464233394886e-10 3.896214195719949e-08 -0.00016771983064245433 6.451602363455322e-09 3.546464233394886e-10 6.451602363455322e-09 -0.00016763326129876077" pbc="T T T"
Nb       1.85297039       1.31024782       3.20943850       0.00000025       0.00000266       0.00000247
Nb       5.55891037       3.93074321       9.62831413       0.00000017       0.00000117      -0.00000373
Ga       0.00000005      -0.00000003       0.00000009       0.00000115       0.00000117      -0.00000010
Se       1.98954430       1.40682040       6.41887671      -0.00083232      -0.00058913      -0.00000019
Se       5.42233547       3.83417048       6.41887685       0.00083452       0.00059053       0.00000269
Se       4.56413759       1.40682011       4.93243430       0.00041538      -0.00059319      -0.00072375
Se       2.84774218       3.83417034       7.90531898      -0.00041686       0.00058767       0.00072235
Se       2.84774194       3.83417025       4.93243450      -0.00042029       0.00058857      -0.00072253
Se       4.56413791       1.40682034       7.90531890       0.00041811      -0.00058964       0.00072274
