9
Lattice="4.892016254585841 -5.6103603956806775e-06 2.8244046216113077 1.6306682622399902 4.612224231602243 2.824402080904994 -1.7505377364700858e-06 -4.349533720435011e-06 5.6488122752426015" Properties=species:S:1:pos:R:3:forces:R:3 energy=-47.171630859375 free_energy=-47.171630859375 stress="0.0003410582721699029 3.266167993842828e-07 1.0655006121851329e-07 3.266167993842828e-07 0.00034130539279431105 2.1291390339683858e-07 1.0655006121851329e-07 2.1291390339683858e-07 0.0003412776277400553" pbc="T T T"
Nb       1.63068030       1.15307584       2.82441685       0.00007841       0.00016826       0.00010244
Nb       4.89200837       3.45916495       8.47322025      -0.00004138       0.00002641       0.00004107
Ge      -0.00000227      -0.00000469      -0.00000089      -0.00000398      -0.00001194      -0.00000719
F        1.66813160       1.17954156       5.64880592      -0.00174785      -0.00125823      -0.00003695
F        4.85454107       3.43266705       5.64880679       0.00175923       0.00121366      -0.00001822
F        4.05794192       1.17954390       4.26905193       0.00084500      -0.00125810      -0.00154563
F        2.46474244       3.43266560       7.02856431      -0.00087669       0.00120493       0.00153041
F        2.46474195       3.43266032       4.26904691      -0.00088095       0.00116819      -0.00157647
F        4.05794540       1.17954302       7.02856488       0.00086818      -0.00125329       0.00151057
