9
Lattice="5.88621804483827 4.221698732087681e-08 3.3984094904496303 1.9620727419392292 5.549579452771522 3.3984094549011683 4.18589347010296e-08 -1.3939049095806643e-08 6.796818908397474" Properties=species:S:1:pos:R:3:forces:R:3 energy=-31.972789764404297 free_energy=-31.972789764404297 stress="0.00011087397433584556 2.2385007181213723e-09 -5.0458062617053656e-08 2.2385007181213723e-09 0.00011106149759143591 -3.0838155140600065e-08 -5.0458062617053656e-08 -3.0838155140600065e-08 0.00011090920452261344" pbc="T T T"
Nb       1.96207233       1.38739533       3.39840987      -0.00000427       0.00000622       0.00000410
Nb       5.88621837       4.16218451      10.19522742       0.00000401      -0.00000149      -0.00000734
Ge      -0.00000011      -0.00000015      -0.00000000       0.00000027      -0.00000071      -0.00000125
Br       2.02073840       1.42887734       6.79681904       0.00008608       0.00006057      -0.00000007
Br       5.82755269       4.12070190       6.79681924      -0.00008749      -0.00006394       0.00000230
Br       4.87584906       1.42887751       5.14842017      -0.00004343       0.00006109       0.00007604
Br       2.97244187       4.12070201       8.44521787       0.00004388      -0.00006023      -0.00007623
Br       2.97244169       4.12070204       5.14842009       0.00004310      -0.00006261       0.00007734
Br       4.87584900       1.42887742       8.44521773      -0.00004211       0.00006101      -0.00007490
