9
Lattice="4.284285596345745 3.697804110756339e-08 2.4735335010148525 1.428095220840301 4.039263266131965 2.4735335231934794 1.9102691555074706e-08 4.067079863849984e-08 4.947066968942867" Properties=species:S:1:pos:R:3:forces:R:3 energy=-61.93156433105469 free_energy=-61.93156433105469 stress="4.5578894059872255e-05 8.734548373467987e-08 -9.934332467764762e-08 8.734548373467987e-08 4.572862962959334e-05 6.854541823031468e-08 -9.934332467764762e-08 6.854541823031468e-08 4.5757271436741576e-05" pbc="T T T"
Nb       1.42809510       1.00981642       2.47353204      -0.00000104       0.00000671      -0.00002198
Nb       4.28428542       3.02944862       7.42059967      -0.00000231       0.00001658      -0.00001736
Ga       0.00000008      -0.00000010       0.00000024      -0.00000157      -0.00000314      -0.00000089
O        1.48545995       1.05037843       4.94706677       0.00079495       0.00055614       0.00000785
O        4.22692079       2.98888463       4.94706704      -0.00078481      -0.00055617       0.00000597
O        3.54155574       1.05037844       3.75998004      -0.00039187       0.00055572       0.00068820
O        2.17082540       2.98888360       6.13415550       0.00039279      -0.00057319      -0.00066876
O        2.17082499       2.98888485       3.75998021       0.00039247      -0.00055864       0.00069439
O        3.54155592       1.05037846       6.13415449      -0.00039783       0.00055593      -0.00068820
