9
Lattice="4.827302509418536 -2.5427521531888724e-07 2.7870448083925834 1.6091007610931631 4.551224722299047 2.787044523724291 1.144135809152376e-07 -2.677433548752756e-07 5.574089418615043" Properties=species:S:1:pos:R:3:forces:R:3 energy=-48.18048858642578 free_energy=-48.18048858642578 stress="-1.9709899788722396e-05 -7.861312667500897e-08 -9.444356408039312e-08 -7.861312667500897e-08 -1.976689054572489e-05 -8.143604190991027e-08 -9.444356408039312e-08 -8.143604190991027e-08 -1.9783694369834848e-05" pbc="T T T"
Nb       1.60909669       1.13781004       2.78703987      -0.00002836       0.00003654      -0.00003658
Nb       4.82731091       3.41341955       8.36114209       0.00006494       0.00000600       0.00005480
Ga       0.00000050       0.00000003      -0.00000004      -0.00000106       0.00000317      -0.00001891
F        1.58223979       1.11881484       5.57409108       0.00024888       0.00018737       0.00001097
F        4.85416430       3.43240950       5.57408734      -0.00025612      -0.00019969      -0.00002386
F        4.03618394       1.11881203       4.15730618      -0.00011858       0.00018421       0.00023507
F        2.40021840       3.43240708       6.99087143       0.00009459      -0.00018741      -0.00022630
F        2.40021893       3.43241005       4.15730580       0.00012222      -0.00018923       0.00022952
F        4.03618033       1.11881359       6.99087203      -0.00012653       0.00015916      -0.00022465
