9
Lattice="5.7003704779333075 7.447930874174009e-08 3.291110330322416 1.9001235461171813 5.374361085227376 3.291110359329154 -2.4341444466632186e-08 1.8313837819512005e-08 6.582220702805494" Properties=species:S:1:pos:R:3:forces:R:3 energy=-34.4290657043457 free_energy=-34.4290657043457 stress="4.946249828208238e-05 -2.6131472097290498e-08 -2.907161622545118e-08 -2.6131472097290498e-08 4.938671918353066e-05 1.0039417297491582e-08 -2.907161622545118e-08 1.0039417297491582e-08 4.935265314998105e-05" pbc="T T T"
Nb       1.90012429       1.34359104       3.29111127       0.00000679       0.00000522       0.00000929
Nb       5.70037084       4.03077127       9.87333046       0.00000416       0.00000281      -0.00000684
Ga       0.00000023       0.00000011       0.00000015       0.00000142      -0.00000109      -0.00000201
Cl       1.92798482       1.36329144       6.58221994       0.00112481       0.00079144      -0.00000500
Cl       5.67250933       4.01106970       6.58222140      -0.00112276      -0.00079560       0.00000618
Cl       4.73637777       1.36329116       4.96079398      -0.00056543       0.00079378       0.00097290
Cl       2.86411515       4.01106941       8.20364712       0.00055809      -0.00079494      -0.00097138
Cl       2.86411578       4.01106960       4.96079384       0.00055957      -0.00079613       0.00097113
Cl       4.73637782       1.36329101       8.20364739      -0.00056662       0.00079458      -0.00097424
