9
Lattice="5.850097838629714 2.2895580238768007e-08 3.377555567829885 1.9500326500739722 5.5155251919404895 3.3775555407904094 -5.461057927223265e-08 -7.173195472307518e-08 6.755111230248037" Properties=species:S:1:pos:R:3:forces:R:3 energy=-31.909273147583008 free_energy=-31.909273147583008 stress="0.0002726677630562335 -5.126893132256782e-09 1.4132928161103564e-09 -5.126893132256782e-09 0.0002726776001509279 2.4944830645523552e-09 1.4132928161103564e-09 2.4944830645523552e-09 0.0002727033570408821" pbc="T T T"
Nb       1.95003265       1.37888087       3.37755544       0.00000091      -0.00000345      -0.00000253
Nb       5.85009765       4.13664380      10.13266669      -0.00000106       0.00000064      -0.00000156
Ga      -0.00000010      -0.00000003      -0.00000016      -0.00000050       0.00000023       0.00000010
Br       2.00770859       1.41966441       6.75511124      -0.00690668      -0.00488385      -0.00000026
Br       5.79242169       4.09586087       6.75511123       0.00690760       0.00488477       0.00000002
Br       4.84624369       1.41966452       5.11628235       0.00345276      -0.00488231      -0.00598069
Br       2.95388707       4.09586067       8.39394001      -0.00345445       0.00488525       0.00598375
Br       2.95388696       4.09586088       5.11628237      -0.00345279       0.00488361      -0.00598212
Br       4.84624351       1.41966458       8.39394020       0.00345454      -0.00488506       0.00598321
