9
Lattice="5.056175736964473 -8.014232287712048e-09 2.919184890315835 1.685391973344498 4.767008690310346 2.9191847715336756 -5.279834349236155e-07 -5.188185343211602e-07 5.8383706951257635" Properties=species:S:1:pos:R:3:forces:R:3 energy=-57.176143646240234 free_energy=-57.176143646240234 stress="-3.59185942215845e-05 -1.73261227587318e-07 1.91841451169239e-07 -1.73261227587318e-07 -3.614072556956671e-05 8.298209763779596e-08 1.91841451169239e-07 8.298209763779596e-08 -3.633516826084815e-05" pbc="T T T"
Nb       1.68537918       1.19175049       2.91919386      -0.00006503      -0.00000761       0.00004390
Nb       5.05618813       3.57525241       8.75754428       0.00006642      -0.00001885      -0.00005639
Hf       0.00000015       0.00000055      -0.00000143       0.00000242       0.00000249       0.00000494
F        1.65506337       1.17031294       5.83836783       0.00238293       0.00170493      -0.00001044
F        5.08650283       3.59669901       5.83837440      -0.00239074      -0.00169891       0.00001611
F        4.22864406       1.17030759       4.35251759      -0.00118873       0.00168502       0.00207847
F        2.51292506       3.59670133       7.32422301       0.00119397      -0.00167960      -0.00207740
F        2.51291886       3.59669973       4.35251930       0.00117353      -0.00168437       0.00208068
F        4.22864725       1.17030922       7.32422269      -0.00117567       0.00169677      -0.00207955
