9
Lattice="5.805935651230012 5.8528271314609785e-08 3.352058317988753 1.935311940492564 5.473888403582112 3.352058315272431 1.5408963287612296e-07 1.0563108326762396e-07 6.704116369086428" Properties=species:S:1:pos:R:3:forces:R:3 energy=-43.739585876464844 free_energy=-43.739585876464844 stress="0.0001540097437100485 -7.723396144854178e-09 -4.347576165741884e-08 -7.723396144854178e-09 0.00015400566917378455 1.44410581270904e-08 -4.347576165741884e-08 1.44410581270904e-08 0.0001541180827189237" pbc="T T T"
Nb       1.93531130       1.36847097       3.35205972      -0.00000368      -0.00000761       0.00001332
Nb       5.80593648       4.10541873      10.05617147       0.00000225       0.00001706      -0.00002196
Hf       0.00000002      -0.00000013      -0.00000003       0.00000068      -0.00000221      -0.00000180
Cl       2.00986578       1.42118944       6.70411653      -0.00182921      -0.00129908      -0.00000305
Cl       5.73138210       4.05269910       6.70411736       0.00183094       0.00129673       0.00000511
Cl       4.80100289       1.42118872       5.09265308       0.00091310      -0.00130415      -0.00158250
Cl       2.94024489       4.05269913       8.31558064      -0.00091387       0.00129977       0.00158828
Cl       2.94024435       4.05269877       5.09265277      -0.00091791       0.00129414      -0.00158107
Cl       4.80100327       1.42118956       8.31558049       0.00091790      -0.00129458       0.00158370
