9
Lattice="6.003736548360156 1.1283599285008657e-08 3.4662588056454773 2.001245551069573 5.66037698178907 3.4662587635371835 3.71737312184908e-08 -2.5286130361438684e-08 6.932517546904165" Properties=species:S:1:pos:R:3:forces:R:3 energy=-40.492984771728516 free_energy=-40.492984771728516 stress="0.0001616906374692917 2.468250492881907e-08 -2.1977313302556922e-09 2.468250492881907e-08 0.00016167794819921255 -2.467264259564672e-08 -2.1977313302556922e-09 -2.467264259564672e-08 0.00016169789887499064" pbc="T T T"
Nb       2.00124557       1.41509400       3.46625905       0.00000002      -0.00000382       0.00000232
Nb       6.00373629       4.24528241      10.39877703      -0.00000069      -0.00000186       0.00000503
Hf      -0.00000000       0.00000011      -0.00000025      -0.00000013       0.00000034       0.00000306
Br       2.07635523       1.46820475       6.93251745      -0.00190505      -0.00134602      -0.00000083
Br       5.92862691       4.19217230       6.93251735       0.00190446       0.00134778      -0.00000084
Br       4.96555897       1.46820480       5.26443480       0.00095376      -0.00134605      -0.00165087
Br       3.03942319       4.19217243       8.60060015      -0.00095110       0.00134605       0.00164658
Br       3.03942319       4.19217233       5.26443486      -0.00095226       0.00134861      -0.00165084
Br       4.96555916       1.46820472       8.60060000       0.00095099      -0.00134516       0.00164676
