9
Lattice="4.805089713865995 -1.0428468194520885e-07 2.774219997178576 1.6016964602371355 4.530283479439304 2.774220019229348 -4.5028084042856125e-07 -2.9139009519600945e-07 5.5484407742664805" Properties=species:S:1:pos:R:3:forces:R:3 energy=-48.30168151855469 free_energy=-48.30168151855469 stress="0.00023504947603214532 -6.307843847253025e-08 1.751210305656059e-07 -6.307843847253025e-08 0.0002343844244023785 1.4536300341205788e-07 1.751210305656059e-07 1.4536300341205788e-07 0.0002349706628592685" pbc="T T T"
Nb       1.60169394       1.13257971       2.77422916      -0.00002676       0.00009252       0.00009107
Nb       4.80508990       3.39769057       8.32264570       0.00000719      -0.00023287      -0.00015290
Ir      -0.00000017       0.00000176       0.00000076       0.00000546       0.00001626       0.00001254
F        1.69578022       1.19910598       5.54843747       0.00080042       0.00065539      -0.00003684
F        4.71100433       3.33118021       5.54844589      -0.00081512      -0.00061946       0.00006057
F        3.95719842       1.19910434       4.24281142      -0.00041495       0.00063089       0.00070713
F        2.44958914       3.33118233       6.85406923       0.00043344      -0.00059407      -0.00070754
F        2.44958527       3.33117905       4.24281154       0.00037920      -0.00062973       0.00071526
F        3.95720167       1.19910865       6.85407224      -0.00036917       0.00068096      -0.00068925
