9
Lattice="6.474106570335535 -4.758425267648836e-08 3.7378272570291613 2.158035483521588 6.1038461927362695 3.7378272484740966 1.5664650709061335e-08 5.987883597289627e-10 7.475654486926356" Properties=species:S:1:pos:R:3:forces:R:3 energy=-31.938928604125977 free_energy=-31.938928604125977 stress="7.655662921024486e-05 -1.4657961511232998e-09 -1.3725737879610733e-08 -1.4657961511232998e-09 7.656001253053546e-05 1.316480435775702e-08 -1.3725737879610733e-08 1.316480435775702e-08 7.655457011424005e-05" pbc="T T T"
Nb       2.15803569       1.52596182       3.73782712       0.00000187       0.00000219      -0.00000047
Nb       6.47410643       4.57788431      11.21348173      -0.00000097      -0.00000204       0.00000018
Ir      -0.00000013       0.00000004       0.00000025       0.00000455      -0.00000215      -0.00000230
I        2.16258928       1.52918196       7.47565445       0.00024507       0.00017300       0.00000020
I        6.46955292       4.57466428       7.47565442      -0.00024647      -0.00017543       0.00000010
I        5.39281172       1.52918177       5.61068470      -0.00012449       0.00017470       0.00021361
I        3.23933032       4.57466435       9.34062418       0.00012146      -0.00017204      -0.00020964
I        3.23933026       4.57466432       5.61068473       0.00012379      -0.00017424       0.00021179
I        5.39281179       1.52918173       9.34062436      -0.00012480       0.00017591      -0.00021350
