9
Lattice="5.74097898331001 -2.0794964298181905e-08 3.314555636234957 1.9136596080987336 5.41264669388036 3.314555694083553 -2.0868098950412519e-07 -7.670996058951703e-08 6.629111633915993" Properties=species:S:1:pos:R:3:forces:R:3 energy=-37.38128662109375 free_energy=-37.38128662109375 stress="3.866619954351336e-05 -7.801947532470876e-08 2.47556926069592e-08 -7.801947532470876e-08 3.863333404297009e-05 3.976172280317769e-08 2.47556926069592e-08 3.976172280317769e-08 3.87754371331539e-05" pbc="T T T"
Nb       1.91366037       1.35316387       3.31455514       0.00000410       0.00001317      -0.00000164
Nb       5.74097918       4.05948390       9.94366646      -0.00000027      -0.00000851      -0.00000704
Ir      -0.00000028      -0.00000018       0.00000015      -0.00000059      -0.00000222       0.00000219
Cl       1.91639321       1.35509490       6.62911210       0.00255463       0.00181235       0.00000363
Cl       5.73824518       4.05755150       6.62911133      -0.00255150      -0.00180942       0.00000012
Cl       4.78278171       1.35509510       4.97420099      -0.00127786       0.00180526       0.00220799
Cl       2.87185649       4.05755090       8.28402235       0.00127722      -0.00181049      -0.00220585
Cl       2.87185547       4.05755160       4.97420167       0.00127086      -0.00180964       0.00220920
Cl       4.78278220       1.35509477       8.28402162      -0.00127634       0.00180955      -0.00220859
