9
Lattice="5.7409355109150875 -1.0897272396237409e-07 3.3145303417501975 1.913645073242401 5.412605708105943 3.3145303319158765 -3.5579538116115396e-08 -3.7203068844235496e-08 6.629060745125957" Properties=species:S:1:pos:R:3:forces:R:3 energy=-37.38128662109375 free_energy=-37.38128662109375 stress="3.464831388555467e-05 2.1529794835828397e-08 -2.239446850182958e-08 2.1529794835828397e-08 3.463502798695117e-05 1.8316743677360137e-08 -2.239446850182958e-08 1.8316743677360137e-08 3.464876499492675e-05" pbc="T T T"
Nb       1.91364554       1.35315141       3.31452983       0.00000341      -0.00000152      -0.00000053
Nb       5.74093517       4.05945525       9.94359059       0.00000030       0.00000893      -0.00001088
Ir      -0.00000018      -0.00000008       0.00000010       0.00000822      -0.00000651       0.00000342
Cl       1.91640018       1.35509924       6.62906042       0.00237185       0.00167635       0.00000065
Cl       5.73818035       4.05750617       6.62906101      -0.00237364      -0.00167678       0.00000469
Cl       4.78273511       1.35509904       4.97418144      -0.00118870       0.00167610       0.00205585
Cl       2.87184545       4.05750579       8.28394050       0.00118375      -0.00167543      -0.00204991
Cl       2.87184547       4.05750636       4.97418155       0.00118609      -0.00167644       0.00205387
Cl       4.78273511       1.35509909       8.28394027      -0.00119132       0.00167555      -0.00205721
