9
Lattice="5.922378112351479 -1.4203488536021987e-07 3.4192864012418758 1.9741259421681963 5.583671247779735 3.4192863343336657 -6.935797818705136e-08 -1.3098900052584624e-07 6.838572922615289" Properties=species:S:1:pos:R:3:forces:R:3 energy=-35.201416015625 free_energy=-35.201416015625 stress="0.0003077493456657976 -6.416637887696197e-08 -1.7144756725429033e-08 -6.416637887696197e-08 0.00030771284946240485 -8.278427543473299e-08 -1.7144756725429033e-08 -8.278427543473299e-08 0.00030774823972024024" pbc="T T T"
Nb       1.97412653       1.39591787       3.41928780       0.00000325      -0.00000276       0.00000847
Nb       5.92237842       4.18775330      10.25785909       0.00000404       0.00000091      -0.00000138
Ir      -0.00000026      -0.00000020      -0.00000011       0.00000225       0.00000029      -0.00000237
Br       1.98822434       1.40588666       6.83857254      -0.00243180      -0.00171790      -0.00000272
Br       5.90827916       4.17778450       6.83857275       0.00243139       0.00172050       0.00000045
Br       4.92826563       1.40588671       5.14113943       0.00121317      -0.00171740      -0.00210615
Br       2.96823819       4.17778422       8.53600583      -0.00121886       0.00171936       0.00210570
Br       2.96823827       4.17778390       5.14113931      -0.00121950       0.00171902      -0.00210991
Br       4.92826574       1.40588700       8.53600601       0.00121604      -0.00172201       0.00210798
