9
Lattice="4.805516355378425 -1.0433750248490913e-07 2.7744664888215276 1.6018388505463768 4.530683734190472 2.7744662051279865 5.393976920265836e-07 3.3959549651817846e-08 5.548932043378864" Properties=species:S:1:pos:R:3:forces:R:3 energy=-48.301666259765625 free_energy=-48.301666259765625 stress="0.00035888762795366347 3.962565831017173e-09 -2.092059361302745e-07 3.962565831017173e-09 0.00035874705645255744 -9.567371961338722e-08 -2.092059361302745e-07 -9.567371961338722e-08 0.0003589305852074176" pbc="T T T"
Nb       1.60184426       1.13267524       2.77445296       0.00005765       0.00004615      -0.00014018
Nb       4.80552189       3.39800917       8.32340605       0.00005497      -0.00003705       0.00007842
Ir      -0.00000141       0.00000000       0.00000117      -0.00001666       0.00000217       0.00000698
F        1.69579823       1.19911239       5.54893789       0.00093390       0.00068977       0.00005824
F        4.71155614       3.33157192       5.54892839      -0.00095384      -0.00067924      -0.00003775
F        3.95761726       1.19911216       4.24307284      -0.00046429       0.00068542       0.00082219
F        2.44973560       3.33157015       6.85479308       0.00043245      -0.00070308      -0.00081625
F        2.44973750       3.33157266       4.24307109       0.00047500      -0.00067457       0.00083084
F        3.95761349       1.19911104       6.85479571      -0.00051906       0.00067059      -0.00080252
