9
Lattice="5.922232515761208 1.7670968662404072e-07 3.4192025436285323 1.9740776715101154 5.583534753169117 3.4192025442297505 -1.518998733195932e-07 -1.0667307036420297e-07 6.838405350355363" Properties=species:S:1:pos:R:3:forces:R:3 energy=-35.20142364501953 free_energy=-35.20142364501953 stress="0.00028570202994160354 6.721185741298541e-08 -5.219540355483332e-08 6.721185741298541e-08 0.0002856819482985884 -1.6342855957418578e-08 -5.219540355483332e-08 -1.6342855957418578e-08 0.0002855951606761664" pbc="T T T"
Nb       1.97407748       1.39588295       3.41920246       0.00000138      -0.00000448       0.00000076
Nb       5.92223206       4.18765118      10.25760874      -0.00000438      -0.00000066       0.00000597
Ir       0.00000019       0.00000028      -0.00000022      -0.00000218      -0.00000360       0.00001204
Br       1.98820284       1.40587205       6.83840530      -0.00246037      -0.00173937      -0.00000117
Br       5.90810726       4.17766277       6.83840480       0.00246453       0.00174218       0.00000012
Br       4.92813105       1.40587229       5.14103652       0.00123134      -0.00173913      -0.00213138
Br       2.96817897       4.17766323       8.53577385      -0.00122625       0.00173636       0.00212228
Br       2.96817928       4.17766305       5.14103644      -0.00123028       0.00174292      -0.00212992
Br       4.92813097       1.40587151       8.53577387       0.00122623      -0.00173433       0.00212130
