9
Lattice="4.082612555475592 -1.6815940771305734e-08 2.357097501744519 1.3608706671087027 3.849124421242729 2.3570977942224816 -6.490458663579429e-08 3.123164044796288e-07 4.714195115906961" Properties=species:S:1:pos:R:3:forces:R:3 energy=-46.53536605834961 free_energy=-46.53536605834961 stress="-0.0003532848204486072 4.005845823940035e-07 3.626922193689097e-07 4.005845823940035e-07 -0.00035308045335114 2.8419364639376e-07 3.626922193689097e-07 2.8419364639376e-07 -0.00035268603824079037" pbc="T T T"
Nb       1.36087180       0.96228062       2.35709802       0.00009374      -0.00003537       0.00008706
Nb       4.08261320       2.88684419       7.07129106       0.00005162      -0.00004336       0.00012285
Mn       0.00000254       0.00000054       0.00000307      -0.00067544       0.00015191      -0.00075540
F        1.37073420       0.96925473       4.71419703       0.00428200       0.00308979      -0.00008539
F        4.07274615       2.87986380       4.71419710      -0.00390911      -0.00267816      -0.00011602
F        3.39724650       0.96925607       3.54419110      -0.00216854       0.00300574       0.00353765
F        2.04623987       2.87986677       5.88420040       0.00191641      -0.00279951      -0.00350904
F        2.04623590       2.87987214       3.54418680       0.00226140      -0.00323522       0.00387669
F        3.39724204       0.96926088       5.88419554      -0.00185168       0.00254357      -0.00316000
