9
Lattice="5.625384227488648 -1.2415440711985348e-07 3.247816808642895 1.8751279312348448 5.303662903405911 3.2478168563449827 -2.226844655768421e-07 -9.903881329282603e-08 6.495634002986627" Properties=species:S:1:pos:R:3:forces:R:3 energy=-41.08616256713867 free_energy=-41.08616256713867 stress="4.0895683923736215e-05 2.3625924328030123e-08 -3.1779691767042095e-08 2.3625924328030123e-08 4.09916065109428e-05 2.62566279829457e-09 -3.1779691767042095e-08 2.62566279829457e-09 4.0923390770331025e-05" pbc="T T T"
Nb       1.87512806       1.32591901       3.24781525       0.00000130       0.00003135      -0.00000680
Nb       5.62538450       3.97774483       9.74344536       0.00000245      -0.00002332      -0.00005123
Mo       0.00000002      -0.00000018       0.00000064      -0.00000071       0.00000447      -0.00000572
Cl       1.94141737       1.37278982       6.49563458       0.00071514       0.00051611       0.00000478
Cl       5.55909501       3.93087237       6.49563602      -0.00071689      -0.00052123       0.00002048
Cl       4.65467453       1.37278897       4.92913425      -0.00036059       0.00050996       0.00062816
Cl       2.84583682       3.93087244       8.06213480       0.00036184      -0.00051902      -0.00061022
Cl       2.84583587       3.93087264       4.92913458       0.00035091      -0.00051834       0.00063154
Cl       4.65467547       1.37279079       8.06213522      -0.00035362       0.00051994      -0.00061087
