9
Lattice="5.616456092155763 1.6086487665520627e-07 3.2426625537519005 1.8721521678309567 5.295245704830773 3.2426625789575696 6.997504335650807e-08 8.035034984777189e-08 6.485324986303461" Properties=species:S:1:pos:R:3:forces:R:3 energy=-40.48350524902344 free_energy=-40.48350524902344 stress="0.00022150778386276215 2.0799914679514586e-08 3.0782800308770675e-08 2.0799914679514586e-08 0.00022156743216328323 5.987225648595995e-08 3.0782800308770675e-08 5.987225648595995e-08 0.0002214795385953039" pbc="T T T"
Nb       1.87215214       1.32381243       3.24266057      -0.00000165       0.00000984      -0.00002067
Nb       5.61645851       3.97143289       9.72799225       0.00002058      -0.00001758       0.00004320
Mn      -0.00000000       0.00000024      -0.00000053      -0.00000462      -0.00000768       0.00001373
Cl       1.89934530       1.34304104       6.48532591       0.00106340       0.00076285       0.00000803
Cl       5.58926219       3.95220520       6.48532306      -0.00106133      -0.00075336      -0.00001836
Cl       4.66678326       1.34304089       4.88754361      -0.00052789       0.00076010       0.00092078
Cl       2.82182350       3.95220531       8.08310556       0.00052087      -0.00076012      -0.00093174
Cl       2.82182504       3.95220569       4.88754417       0.00053051      -0.00075065       0.00091790
Cl       4.66678340       1.34304013       8.08310590      -0.00053986       0.00075668      -0.00093296
