9
Lattice="5.738072168937014 1.541488165679114e-08 3.312877440032991 1.9126907147699173 5.409906201507301 3.312877479423958 1.96981173093024e-08 6.217252693596631e-08 6.625754845947803" Properties=species:S:1:pos:R:3:forces:R:3 energy=-38.0296630859375 free_energy=-38.0296630859375 stress="1.497532593930373e-05 2.1493377744263853e-08 2.3906787660621376e-08 2.1493377744263853e-08 1.4914749954186846e-05 3.961383043815658e-08 2.3906787660621376e-08 3.961383043815658e-08 1.494216667197179e-05" pbc="T T T"
Nb       1.91269090       1.35247678       3.31287811      -0.00000001       0.00000087       0.00000077
Nb       5.73807215       4.05742917       9.93863224      -0.00000061      -0.00000151      -0.00000124
Mn       0.00000026      -0.00000010       0.00000053      -0.00000560       0.00000216      -0.00001162
Br       1.92618219       1.36201633       6.62575495      -0.00271363      -0.00191692      -0.00000242
Br       5.72458091       4.04789000       6.62575471       0.00271325       0.00191987      -0.00000085
Br       4.77498120       1.36201620       4.98099984       0.00135708      -0.00191579      -0.00234904
Br       2.87578176       4.04788985       8.27050966      -0.00135916       0.00192351       0.00235192
Br       2.87578145       4.04789025       4.98099956      -0.00135307       0.00191105      -0.00234278
Br       4.77498082       1.36201663       8.27050948       0.00136175      -0.00192333       0.00235502
