9
Lattice="5.811503802303665 -2.0868938463067054e-07 3.355273319517741 1.9371677546269224 5.47913814827594 3.355273289588022 9.081855642159612e-08 2.7562124345602226e-08 6.710546481733145" Properties=species:S:1:pos:R:3:forces:R:3 energy=-38.245811462402344 free_energy=-38.245811462402344 stress="0.00010090514115290716 -4.3783135339481305e-08 2.230652285106771e-08 -4.3783135339481305e-08 0.00010098490747623146 1.092930457247121e-08 2.230652285106771e-08 1.092930457247121e-08 0.00010092010052176192" pbc="T T T"
Nb       1.93716795       1.36978428       3.35527374       0.00000102      -0.00000173      -0.00000018
Nb       5.81150359       4.10935339      10.06582060      -0.00000204       0.00000190       0.00000262
Mo       0.00000002      -0.00000012       0.00000007       0.00000218       0.00000206      -0.00000934
Br       2.02708372       1.43336436       6.71054645      -0.00370990      -0.00262279      -0.00000211
Br       5.72158792       4.04577397       6.71054633       0.00370710       0.00261988      -0.00000142
Br       4.79796196       1.43336429       5.11077934       0.00185516      -0.00262087      -0.00321484
Br       2.95071004       4.04577353       8.31031339      -0.00186008       0.00262965       0.00322059
Br       2.95070972       4.04577377       5.11077921      -0.00185295       0.00261997      -0.00321393
Br       4.79796165       1.43336441       8.31031323       0.00185930      -0.00262816       0.00321864
