9
Lattice="5.811469149996927 8.122769556863467e-08 3.355253116376194 1.9371564421940615 5.479105405627165 3.3552531470689404 4.624994261994674e-08 7.029440415187751e-08 6.710506152645139" Properties=species:S:1:pos:R:3:forces:R:3 energy=-38.24580001831055 free_energy=-38.24580001831055 stress="0.00011248731607338414 -3.8257219614479254e-08 -6.531976737278455e-08 -3.8257219614479254e-08 0.00011252672993578017 2.6968962174578337e-08 -6.531976737278455e-08 2.6968962174578337e-08 0.00011244709457969293" pbc="T T T"
Nb       1.93715695       1.36977629       3.35525302       0.00000165      -0.00000174       0.00000190
Nb       5.81146845       4.10932892      10.06575987      -0.00000635      -0.00000421       0.00000233
Mo       0.00000020       0.00000061      -0.00000036      -0.00000104      -0.00001417       0.00000100
Br       2.02714807       1.43341042       6.71050610      -0.00568382      -0.00401890       0.00000079
Br       5.72147744       4.04569513       6.71050605       0.00569461       0.00402474       0.00000057
Br       4.79789487       1.43341011       5.11081438       0.00284340      -0.00401876      -0.00492571
Br       2.95073091       4.04569517       8.31019744      -0.00284448       0.00402512       0.00492905
Br       2.95073076       4.04569565       5.11081482      -0.00284575       0.00402740      -0.00493039
Br       4.79789490       1.43340998       8.31019828       0.00284141      -0.00401948       0.00492042
