9
Lattice="6.433238096640994 -2.368094637694729e-09 3.7142317359858774 2.1444126903603054 6.065315110818641 3.7142317468759263 -3.855800157357825e-08 -1.3927128265078053e-08 7.428463538756161" Properties=species:S:1:pos:R:3:forces:R:3 energy=-32.97175216674805 free_energy=-32.97175216674805 stress="0.00016390200471505523 -8.007850382796278e-09 -6.018828102583029e-09 -8.007850382796278e-09 0.0001639115362195298 -1.8066012019701816e-09 -6.018828102583029e-09 -1.8066012019701816e-09 0.00016390494420193136" pbc="T T T"
Nb       2.14441298       1.51632839       3.71423144       0.00000177      -0.00000164       0.00000020
Nb       6.43323755       4.54898551      11.14269576      -0.00000105      -0.00000347       0.00000085
Mn      -0.00000017      -0.00000013      -0.00000024       0.00000160       0.00000187      -0.00000315
I        2.16478548       1.53073475       7.42846356      -0.00296396      -0.00209540      -0.00000047
I        6.41286577       4.53458105       7.42846340       0.00295904       0.00209299      -0.00000022
I        5.35084523       1.53073461       5.58899087       0.00148093      -0.00209175      -0.00256588
I        3.22680532       4.53458093       9.26793616      -0.00148040       0.00209531       0.00256633
I        3.22680552       4.53458085       5.58899086      -0.00147883       0.00209470      -0.00256506
I        5.35084529       1.53073442       9.26793622       0.00148092      -0.00209253       0.00256729
