9
Lattice="6.56527115071638 -1.5182829013596066e-08 3.7904611228570797 2.1884237296164293 6.1897970757077365 3.7904610760476247 5.48366007947621e-08 -1.85543231170432e-08 7.580922150734364" Properties=species:S:1:pos:R:3:forces:R:3 energy=-33.35084533691406 free_energy=-33.35084533691406 stress="4.0326049202121794e-05 -7.659521905623023e-09 -4.973808476194108e-09 -7.659521905623023e-09 4.033137156511657e-05 2.2135853150473395e-09 -4.973808476194108e-09 2.2135853150473395e-09 4.0331127820536494e-05" pbc="T T T"
Nb       2.18842411       1.54744904       3.79046113       0.00000145       0.00000043       0.00000004
Nb       6.56527131       4.64234811      11.37138422       0.00000042       0.00000168       0.00000546
Mo       0.00000015       0.00000022      -0.00000015      -0.00000242       0.00000134      -0.00000302
I        2.24052025       1.58428702       7.58092224       0.00008336       0.00005771       0.00000010
I        6.51317453       4.60550980       7.58092178      -0.00008315      -0.00005729      -0.00000237
I        5.44501121       1.58428716       5.73080850      -0.00004051       0.00005681       0.00006951
I        3.30868360       4.60550968       9.43103587       0.00003993      -0.00005688      -0.00007184
I        3.30868374       4.60550997       5.73080813       0.00004227      -0.00005879       0.00007202
I        5.44501084       1.58428714       9.43103569      -0.00004136       0.00005510      -0.00006978
