9
Lattice="4.886331852259633 -1.439642453015446e-06 2.8211242577978495 1.6287762634744483 4.606874015010982 2.8211236746236588 -1.977322335108216e-07 -8.5405746718045e-07 5.642248858077838" Properties=species:S:1:pos:R:3:forces:R:3 energy=-51.6993522644043 free_energy=-51.6993522644043 stress="-0.00019026274094358087 2.6517033901996e-08 9.14376485638968e-08 2.6517033901996e-08 -0.00018926121992990375 -7.801934742701633e-08 9.14376485638968e-08 -7.801934742701633e-08 -0.00018964654009323567" pbc="T T T"
Nb       1.62877008       1.15170679       2.82112025      -0.00004796      -0.00008767      -0.00002748
Nb       4.88631448       3.45515842       8.46336921      -0.00013090       0.00004049      -0.00002928
Mo       0.00000157       0.00000097       0.00000045       0.00000377      -0.00000390      -0.00000073
F        1.68903365       1.19431744       5.64225111       0.00068611       0.00043356       0.00001879
F        4.82607949       3.41255045       5.64224726      -0.00064790      -0.00044253       0.00000108
F        4.04181701       1.19432052       4.28386810      -0.00030853       0.00045252       0.00057417
F        2.47329926       3.41255262       7.00063194       0.00037920      -0.00043061      -0.00054705
F        2.47329605       3.41255384       4.28386712       0.00036375      -0.00042567       0.00056165
F        4.04182008       1.19432526       7.00063141      -0.00029764       0.00046384      -0.00055125
