9
Lattice="5.6253593607378685 -1.5634280583416335e-08 3.247802673689549 1.8751197540837259 5.303639757676586 3.247802705020185 5.976443108784917e-09 4.259801219688104e-08 6.495605337027569" Properties=species:S:1:pos:R:3:forces:R:3 energy=-41.08616256713867 free_energy=-41.08616256713867 stress="3.77716169168707e-05 1.4071398268811208e-08 7.411132596502057e-09 1.4071398268811208e-08 3.777983511099592e-05 3.824982286459999e-08 7.411132596502057e-09 3.824982286459999e-08 3.7673136830562726e-05" pbc="T T T"
Nb       1.87512133       1.32590647       3.24779966       0.00001783      -0.00003426      -0.00003421
Nb       5.62535755       3.97773292       9.74341428      -0.00002192       0.00003419       0.00006222
Mo      -0.00000038       0.00000010      -0.00000022      -0.00000140       0.00000155      -0.00000616
Cl       1.94141789       1.37278833       6.49560703       0.00068389       0.00046715       0.00001606
Cl       5.55906103       3.93085106       6.49560284      -0.00068299      -0.00046531      -0.00002690
Cl       4.65465031       1.37278998       4.92911926      -0.00033920       0.00048081       0.00058298
Cl       2.84582889       3.93085111       8.06209086       0.00033852      -0.00047504      -0.00059322
Cl       2.84583055       3.93085103       4.92911883       0.00035781      -0.00046910       0.00058858
Cl       4.65464930       1.37278816       8.06209032      -0.00035249       0.00045973      -0.00058919
