9
Lattice="4.130551076872905 2.258479410866051e-08 2.3847748239294013 1.3768503848385905 3.8943208369319677 2.3847748159830933 -1.478662443920854e-08 -2.0187937669811263e-08 4.769549673470012" Properties=species:S:1:pos:R:3:forces:R:3 energy=-61.097442626953125 free_energy=-61.097442626953125 stress="-7.778945291647688e-05 -4.957809096595156e-08 -1.0164243491317393e-07 -4.957809096595156e-08 -7.773622928652912e-05 1.855584130794341e-08 -1.0164243491317393e-07 1.855584130794341e-08 -7.747030758764595e-05" pbc="T T T"
Nb       1.37684998       0.97357982       2.38477498      -0.00000375      -0.00000845       0.00000361
Nb       4.13055103       2.92074087       7.15432423      -0.00000248       0.00000184      -0.00000478
N       -0.00000002      -0.00000139       0.00000014      -0.00000331      -0.00003602       0.00000344
O        1.35594066       0.95879471       4.76954956      -0.00315286      -0.00222760       0.00000051
O        4.15146154       2.93552654       4.76954976       0.00317356       0.00224317       0.00000101
O        3.45258094       0.95879463       3.55905379       0.00158254      -0.00223038      -0.00273324
O        2.05482025       2.93552672       5.98004582      -0.00158373       0.00223900       0.00274707
O        2.05482056       2.93552670       3.55905325      -0.00158343       0.00224287      -0.00275073
O        3.45258089       0.95879482       5.98004562       0.00157304      -0.00222412       0.00273250
