9
Lattice="4.700480767298209 6.995361937954944e-08 2.713823601787992 1.5668269001719994 4.431655945298863 2.7138237545785024 2.6858223407285747e-08 2.0612107442783346e-07 5.427647157056139" Properties=species:S:1:pos:R:3:forces:R:3 energy=-47.50170135498047 free_energy=-47.50170135498047 stress="0.0003704889095388353 2.2884671579959104e-07 -7.308396732241818e-08 2.2884671579959104e-07 0.0003709818993229419 -5.202858943675892e-08 -7.308396732241818e-08 -5.202858943675892e-08 0.000371120753698051" pbc="T T T"
Nb       1.56683294       1.10791528       2.71382044       0.00007630       0.00001403      -0.00003785
Nb       4.70047431       3.32374603       8.14147101      -0.00008163       0.00004895       0.00000171
Ni       0.00000001       0.00000007       0.00000036      -0.00000203      -0.00000097      -0.00000750
F        1.57383253       1.11286492       5.42764830       0.00250554       0.00173020       0.00001529
F        4.69347593       3.31878968       5.42764763      -0.00249133      -0.00175069       0.00000250
F        3.91356398       1.11286631       4.07680104      -0.00125903       0.00175267       0.00215247
F        2.35374392       3.31878798       6.77849497       0.00125927      -0.00177637      -0.00212817
F        2.35374427       3.31878862       4.07680038       0.00126529      -0.00176643       0.00213890
F        3.91356279       1.11286625       6.77849393      -0.00127235       0.00174852      -0.00213763
