9
Lattice="5.596154745996326 -1.0437418424286086e-07 3.2309413798192734 1.8653848457531454 5.276105224668165 3.230941329891228 8.283565002953942e-10 -6.056336031447323e-08 6.461882758203773" Properties=species:S:1:pos:R:3:forces:R:3 energy=-35.83384323120117 free_energy=-35.83384323120117 stress="0.00013455314910970628 3.855874286529115e-09 -1.5488494042870116e-08 3.855874286529115e-09 0.00013460125774145126 1.417310180329423e-08 -1.5488494042870116e-08 1.417310180329423e-08 0.00013462152855936438" pbc="T T T"
Nb       1.86538530       1.31902721       3.23094101       0.00000253       0.00001234      -0.00000583
Nb       5.59615464       3.95707789       9.69282501      -0.00000053      -0.00001137       0.00001033
Ni      -0.00000001       0.00000005       0.00000019      -0.00000232       0.00000044       0.00000048
Cl       1.87767640       1.32771744       6.46188312       0.00090449       0.00064067       0.00000332
Cl       5.58386298       3.94838739       6.46188254      -0.00089970      -0.00063768      -0.00000579
Cl       4.65731681       1.32771800       4.85705639      -0.00045209       0.00064489       0.00078072
Cl       2.80422284       3.94838698       8.06670874       0.00044753      -0.00064321      -0.00078285
Cl       2.80422293       3.94838723       4.85705624       0.00045403      -0.00064560       0.00078170
Cl       4.65731646       1.32771803       8.06670857      -0.00045399       0.00063951      -0.00078216
