9
Lattice="5.720268834857023 1.2650144673395262e-07 3.3025986994703316 1.9067562978699775 5.3931215611330385 3.3025988721253428 -1.1622604671329534e-07 1.292741195765363e-07 6.605197600250098" Properties=species:S:1:pos:R:3:forces:R:3 energy=-33.91102600097656 free_energy=-33.91102600097656 stress="-2.3583826987305656e-05 3.628468192573564e-08 2.1733331578843718e-08 3.628468192573564e-08 -2.3536395019618794e-05 5.5335817705781665e-08 2.1733331578843718e-08 5.5335817705781665e-08 -2.3519647584180348e-05" pbc="T T T"
Nb       1.90675654       1.34828109       3.30259907       0.00000015      -0.00000045      -0.00000243
Nb       5.72026856       4.04484091       9.90779648       0.00000115      -0.00000051       0.00000180
Ni      -0.00000002      -0.00000020      -0.00000003       0.00000180       0.00000013      -0.00000116
Br       1.93009202       1.36478139       6.60519760      -0.00563994      -0.00398733      -0.00000015
Br       5.69693321       4.02834025       6.60519756       0.00563683       0.00398539      -0.00000024
Br       4.75522283       1.36478143       4.97410747       0.00281779      -0.00398473      -0.00488254
Br       2.87180227       4.02834035       8.23628773      -0.00281982       0.00398739       0.00488341
Br       2.87180194       4.02834065       4.97410714      -0.00281729       0.00398488      -0.00487983
Br       4.75522272       1.36478139       8.23628762       0.00281928      -0.00398473       0.00488093
