9
Lattice="5.490125241209726 -1.408754779624917e-08 3.1697252399915676 1.8300417052993987 5.176139770495347 3.1697252893353274 -3.757535988476002e-08 3.386370488234665e-08 6.33945054506558" Properties=species:S:1:pos:R:3:forces:R:3 energy=-32.887264251708984 free_energy=-32.887264251708984 stress="0.0002774681488517672 -1.9646103410764226e-08 3.307262730345428e-08 -1.9646103410764226e-08 0.0002775128523353487 2.1445485387516783e-08 3.307262730345428e-08 2.1445485387516783e-08 0.0002774953027255833" pbc="T T T"
Nb       1.83004207       1.29403482       3.16972624       0.00000346      -0.00000227       0.00001001
Nb       5.49012517       3.88210572       9.50917525       0.00000165       0.00000802      -0.00000543
N        0.00000017       0.00000080       0.00000041       0.00000075       0.00000833       0.00000421
Cl       1.85199305       1.30955627       6.33945008       0.00451314       0.00318605      -0.00000333
Cl       5.46817335       3.86658303       6.33945084      -0.00451565      -0.00318994       0.00000043
Cl       4.56412882       1.30955662       4.77359838      -0.00225776       0.00318559       0.00390700
Cl       2.75603817       3.86658261       7.90530228       0.00225613      -0.00318929      -0.00390959
Cl       2.75603786       3.86658240       4.77359826       0.00225562      -0.00319463       0.00390537
Cl       4.56412893       1.30955690       7.90530248      -0.00225716       0.00318834      -0.00390856
