9
Lattice="5.197602029462398 1.1459080970452167 1.1482542481360398 1.6316582710530636 6.529911762801825 3.0571255256457017 -1.7454169215061555 1.309856587781612 4.911380639898144" Properties=species:S:1:pos:R:3:forces:R:3 energy=-62.123992919921875 free_energy=-62.123992919921875 stress="-0.0008670960669405758 0.0011326591484248638 0.00047904576058499515 0.0011326591484248638 0.0009343858691863716 0.0014492316404357553 0.00047904576058499515 0.0014492316404357553 0.0004656650999095291" pbc="T T T"
Nb       0.08490567       7.59057417       3.83988182      -0.03534746       0.08994651       0.00532517
Nb       4.10577270       7.79912118       8.16001427      -0.05897319       0.03821141      -0.07322657
N       -0.46048981      -0.42622334       0.65343053       0.08707070      -0.12571031      -0.02161145
F        2.05900759       1.26559774       2.82649629      -0.00229236       0.02097794      -0.01150109
F        4.40867688       5.39547686       3.78081022      -0.03577304      -0.00933164      -0.02884829
F        3.80162339       2.53320797       4.01521161       0.00043643      -0.02808692       0.02306207
F        0.28175972       5.20863302       6.74081135       0.00657165       0.01087484       0.09063697
F        4.87381108       3.59290663       1.52712078       0.03851599      -0.03639841       0.02224152
F        1.18016143       2.98339047       4.92320790      -0.00020793       0.03951657      -0.00607821
