9
Lattice="4.920513790858369 -2.2697534142605045e-07 2.840859700594049 1.6401711028834933 4.639104364078787 2.840859608347732 -3.506459635360782e-07 -3.609223326789252e-07 5.681720008524663" Properties=species:S:1:pos:R:3:forces:R:3 energy=-49.886985778808594 free_energy=-49.886985778808594 stress="7.971269224071875e-05 -5.1286427549257496e-08 1.494199608487179e-07 -5.1286427549257496e-08 7.97082029748708e-05 7.42315009460981e-08 1.494199608487179e-07 7.42315009460981e-08 7.954788452479988e-05" pbc="T T T"
Nb       1.64015981       1.15977783       2.84087236      -0.00008680       0.00001540       0.00009693
Nb       4.92050713       3.47933047       8.52258676      -0.00005122       0.00002216       0.00005882
Os       0.00000258       0.00000001      -0.00000261       0.00002381      -0.00000608      -0.00002469
F        1.74024344       1.23053384       5.68171475      -0.00037804      -0.00029071      -0.00003791
F        4.82044637       3.40856670       5.68171693       0.00040966       0.00026274      -0.00001945
F        4.05039475       1.23053618       4.34795167       0.00021133      -0.00027552      -0.00034747
F        2.51029347       3.40856911       7.01548504      -0.00018127       0.00029054       0.00032656
F        2.51029302       3.40856700       4.34795019      -0.00018170       0.00026841      -0.00036006
F        4.05039785       1.23053399       7.01548183       0.00023422      -0.00028703       0.00030717
