9
Lattice="5.722224959783978 -9.736245982737476e-09 3.3037281037081914 1.9074082681277535 5.394965329447628 3.3037281775295977 -2.285162418903708e-08 7.425386513251469e-08 6.607456246996546" Properties=species:S:1:pos:R:3:forces:R:3 energy=-39.09967041015625 free_energy=-39.09967041015625 stress="2.3275797502719797e-05 -2.7852687267682086e-08 -3.225051514732513e-08 -2.7852687267682086e-08 2.3288437660085037e-05 3.011987104173386e-08 -3.225051514732513e-08 3.011987104173386e-08 2.3167174731497653e-05" pbc="T T T"
Nb       1.90740813       1.34874182       3.30372795       0.00000135       0.00000153      -0.00000286
Nb       5.72222415       4.04622316       9.91118338      -0.00000523      -0.00000515      -0.00000636
Os       0.00000013       0.00000026       0.00000012      -0.00000034      -0.00000061       0.00000393
Cl       1.93406927       1.36759336       6.60745662       0.00204018       0.00144252       0.00000038
Cl       5.69556412       4.02737214       6.60745642      -0.00203955      -0.00144333       0.00000224
Cl       4.75519052       1.36759359       4.97868139      -0.00101772       0.00144070       0.00176170
Cl       2.87444330       4.02737161       8.23623172       0.00102057      -0.00144050      -0.00176111
Cl       2.87444261       4.02737174       4.97868102       0.00101928      -0.00144237       0.00176510
Cl       4.75519056       1.36759391       8.23623151      -0.00101830       0.00144741      -0.00176287
