9
Lattice="5.872512971942435 -2.0052924488162567e-08 3.3904969112138823 1.9575043301823187 5.53665808496464 3.3904968677262772 7.639747479657126e-08 7.599523618291832e-10 6.780993690103433" Properties=species:S:1:pos:R:3:forces:R:3 energy=-36.74360656738281 free_energy=-36.74360656738281 stress="0.0002161888696718961 -2.727265879798324e-08 -2.0722607629863887e-08 -2.727265879798324e-08 0.00021621750784106553 -1.861848275552802e-08 -2.0722607629863887e-08 -1.861848275552802e-08 0.00021617986203636974" pbc="T T T"
Nb       1.95750412       1.38416495       3.39049672      -0.00000051       0.00000060      -0.00000202
Nb       5.87251327       4.15249331      10.17149070       0.00000225      -0.00000299       0.00000126
Os      -0.00000023      -0.00000003      -0.00000008       0.00000120      -0.00000215      -0.00000110
Br       2.00109350       1.41498662       6.78099386      -0.00290057      -0.00205006       0.00000020
Br       5.82892388       4.12167132       6.78099371       0.00290227       0.00205249       0.00000068
Br       4.87196614       1.41498699       5.12349485       0.00144982      -0.00205001      -0.00251082
Br       2.95805121       4.12167109       8.43849271      -0.00145191       0.00205138       0.00251228
Br       2.95805115       4.12167111       5.12349475      -0.00145307       0.00205190      -0.00251186
Br       4.87196647       1.41498682       8.43849256       0.00145054      -0.00205119       0.00251129
