9
Lattice="6.487760975986271 4.925236522840004e-08 3.7457105375980277 2.162587006248733 6.116719834238846 3.7457105933393557 -4.985314666585426e-08 3.301740304747627e-08 7.491421161544236" Properties=species:S:1:pos:R:3:forces:R:3 energy=-32.837154388427734 free_energy=-32.837154388427734 stress="0.00019901157065760344 -8.73328609429791e-09 -2.8761075743233278e-09 -8.73328609429791e-09 0.00019901449559256434 2.804978915804668e-09 -2.8761075743233278e-09 2.804978915804668e-09 0.0001990261225728318" pbc="T T T"
Nb       2.16258696       1.52918115       3.74571043       0.00000076       0.00000410      -0.00000163
Nb       6.48776052       4.58753979      11.23713219      -0.00000132      -0.00000099       0.00000236
Os       0.00000012       0.00000015       0.00000024      -0.00000029      -0.00000106      -0.00000572
I        2.17308729       1.53660476       7.49142111      -0.00110587      -0.00078242      -0.00000055
I        6.47726075       4.58011482       7.49142112       0.00110717       0.00078123      -0.00000060
I        5.40121742       1.53660489       5.62765918       0.00055289      -0.00078005      -0.00095785
I        3.24913067       4.58011446       9.35518286      -0.00055636       0.00078334       0.00096276
I        3.24913080       4.58011487       5.62765916      -0.00055142       0.00078035      -0.00095860
I        5.40121718       1.53660480       9.35518287       0.00055439      -0.00078452       0.00095990
