9
Lattice="5.646396272745228 1.516358894292612e-07 3.259948420072416 1.8821322077709628 5.323473585349803 3.2599484652924295 5.876437518960959e-08 9.69356804801619e-08 6.519896738361948" Properties=species:S:1:pos:R:3:forces:R:3 energy=-34.97724914550781 free_energy=-34.97724914550781 stress="0.0004450675332918763 -1.659350701288531e-08 -1.743055477732014e-08 -1.659350701288531e-08 0.0004451293498277664 -1.3330662795851822e-08 -1.743055477732014e-08 -1.3330662795851822e-08 0.0004451405839063227" pbc="T T T"
Nb       1.88213197       1.33086732       3.25994682       0.00000123      -0.00001257      -0.00001207
Nb       5.64639617       3.99260725       9.77984203      -0.00000121       0.00001817      -0.00002087
Pd      -0.00000008       0.00000000       0.00000057       0.00000313       0.00000249      -0.00000392
Cl       1.92500566       1.36118407       6.51989737      -0.00019930      -0.00014681       0.00000549
Cl       5.60352314       3.96228949       6.51989815       0.00019545       0.00014101       0.00000994
Cl       4.68389388       1.36118379       4.92705265       0.00009854      -0.00014799      -0.00016466
Cl       2.84463518       3.96228942       8.11274235      -0.00009690       0.00014299       0.00017657
Cl       2.84463480       3.96228961       4.92705229      -0.00010089       0.00014497      -0.00016461
Cl       4.68389342       1.36118443       8.11274234       0.00010009      -0.00014216       0.00017415
