9
Lattice="5.824259077753405 8.855953640286793e-09 3.3626374772263663 1.9414196805283936 5.491164017739402 3.3626375125698353 -5.193861574950472e-09 3.9614102363562905e-08 6.725274963448765" Properties=species:S:1:pos:R:3:forces:R:3 energy=-32.746952056884766 free_energy=-32.746952056884766 stress="0.0002230117388535291 1.5220150473282956e-08 8.408532536918756e-09 1.5220150473282956e-08 0.00022290860943030566 1.9113089777533787e-08 8.408532536918756e-09 1.9113089777533787e-08 0.00022301007993519306" pbc="T T T"
Nb       1.94141944       1.37279187       3.36263722      -0.00000072       0.00000457      -0.00000065
Nb       5.82425874       4.11837254      10.08791219      -0.00000306      -0.00000273      -0.00000094
Pd      -0.00000015       0.00000010       0.00000024      -0.00000200      -0.00000381      -0.00000834
Br       1.98889096       1.40635822       6.72527489      -0.00497113      -0.00351425      -0.00000030
Br       5.77678774       4.08480564       6.72527539       0.00497592       0.00351748      -0.00000028
Br       4.82981394       1.40635817       5.08506752       0.00248644      -0.00351338      -0.00430329
Br       2.93586521       4.08480543       8.36548236      -0.00248954       0.00351808       0.00430834
Br       2.93586541       4.08480562       5.08506743      -0.00248333       0.00351237      -0.00430418
Br       4.82981370       1.40635872       8.36548253       0.00248750      -0.00351833       0.00430949
