9
Lattice="4.858988154206157 3.4449388531225895e-07 2.8053379997153676 1.619662323385967 4.581098118565626 2.805339245882059 -2.3637746744015884e-06 -1.4520472811071226e-07 5.610680093608385" Properties=species:S:1:pos:R:3:forces:R:3 energy=-46.0063362121582 free_energy=-46.0063362121582 stress="0.0005480179679580033 -1.921034709084779e-07 5.524056945205302e-08 -1.921034709084779e-07 0.00054809550056234 -1.2853543296387215e-07 5.524056945205302e-08 -1.2853543296387215e-07 0.0005474236677400768" pbc="T T T"
Nb       1.61975049       1.14530943       2.80541284       0.00073950       0.00032519       0.00056858
Nb       4.85902204       3.43591160       8.41593806       0.00036116       0.00076035      -0.00063003
P       -0.00003088      -0.00002893      -0.00000502      -0.00015737      -0.00015839       0.00001873
F        1.69432951       1.19805896       5.61066392      -0.00323809      -0.00245058      -0.00017940
F        4.78429169       3.38301595       5.61069981       0.00305975       0.00223521       0.00019824
F        4.01178610       1.19804278       4.27268773       0.00124022      -0.00257312      -0.00275265
F        2.46683290       3.38301512       6.94867661      -0.00161347       0.00220668       0.00279340
F        2.46680481       3.38299912       4.27268041      -0.00185645       0.00203644      -0.00279585
F        4.01180600       1.19806918       6.94867480       0.00146492      -0.00238191       0.00277898
