9
Lattice="5.801309976875534 4.029629818754378e-08 3.3493881593709736 1.9337700074677993 5.469527767758491 3.349388198889025 -7.26110853088523e-08 -2.9442847306636026e-09 6.698776444508061" Properties=species:S:1:pos:R:3:forces:R:3 energy=-34.84838104248047 free_energy=-34.84838104248047 stress="0.0002482411509845406 -2.563627887752773e-08 -4.6889883975609337e-08 -2.563627887752773e-08 0.0002482187992427498 -2.326518711015524e-08 -4.6889883975609337e-08 -2.326518711015524e-08 0.00024819752434268594" pbc="T T T"
Nb       1.93376808       1.36738048       3.34938880      -0.00001347      -0.00001149       0.00000311
Nb       5.80130873       4.10214727      10.04816568      -0.00000585       0.00001030       0.00000543
Pt       0.00000035      -0.00000004       0.00000001       0.00000090       0.00000153       0.00000080
Cl       1.93371213       1.36733994       6.69877626       0.00492892       0.00347707      -0.00000309
Cl       5.80136894       4.10218746       6.69877612      -0.00492769      -0.00348094      -0.00000260
Cl       4.83445479       1.36734028       5.02403150      -0.00245847       0.00348216       0.00426717
Cl       2.90062553       4.10218778       8.37352070       0.00246777      -0.00347796      -0.00426568
Cl       2.90062624       4.10218754       5.02403147       0.00246738      -0.00348288       0.00426443
Cl       4.83445490       1.36734049       8.37352068      -0.00245935       0.00348227      -0.00426957
