9
Lattice="5.899154961845156 1.9371322423837336e-08 3.405878658288107 1.9663850015195676 5.561776799485221 3.405878665260675 -6.33308995146335e-08 -3.624212628283025e-08 6.811757426268548" Properties=species:S:1:pos:R:3:forces:R:3 energy=-33.37554168701172 free_energy=-33.37554168701172 stress="0.00034926808439195156 -2.3360072987088643e-08 -1.9027490694156768e-09 -2.3360072987088643e-08 0.00034920027246698737 2.9161434156321775e-08 -1.9027490694156768e-09 2.9161434156321775e-08 0.00034921083715744317" pbc="T T T"
Nb       1.96638515       1.39044390       3.40587887       0.00000135      -0.00000078      -0.00000163
Nb       5.89915460       4.17133259      10.21763612      -0.00000132       0.00000113      -0.00000309
Pt      -0.00000010      -0.00000007       0.00000018       0.00000188       0.00000382      -0.00000843
Br       1.98083650       1.40066269       6.81175737      -0.00337111      -0.00238208      -0.00000137
Br       5.88470342       4.16111418       6.81175738       0.00336626       0.00238075      -0.00000136
Br       4.90873681       1.40066281       5.12133312       0.00168410      -0.00238094      -0.00291749
Br       2.95680344       4.16111397       8.50218139      -0.00168829       0.00238829       0.00292464
Br       2.95680309       4.16111421       5.12133319      -0.00168168       0.00237719      -0.00291285
Br       4.90873672       1.40066282       8.50218137       0.00168851      -0.00238729       0.00292138
