9
Lattice="5.786880795866185 -1.5136289822979327e-07 3.3410557870356064 1.9289601699451766 5.455922512828956 3.3410557050009992 -6.069267184922335e-07 -5.29633511040629e-07 6.6821126252990455" Properties=species:S:1:pos:R:3:forces:R:3 energy=-32.205421447753906 free_energy=-32.205421447753906 stress="-0.000385811785236001 4.288829558163343e-08 1.522126780173494e-07 4.288829558163343e-08 -0.0003859112330246717 9.166947734229325e-08 1.522126780173494e-07 9.166947734229325e-08 -0.00038565348950214684" pbc="T T T"
Nb       1.92895866       1.36397401       3.34105364      -0.00001013      -0.00004895      -0.00001813
Nb       5.78688443       4.09195059      10.02318547       0.00002491       0.00007760       0.00014578
P        0.00000007      -0.00000188      -0.00000568       0.00000192      -0.00002114      -0.00004917
Cl       1.94163887       1.37294276       6.68211183       0.00671682       0.00473014       0.00000334
Cl       5.77420272       4.08297786       6.68210467      -0.00670810      -0.00473212      -0.00006345
Cl       4.81605936       1.37294670       5.02256408      -0.00335816       0.00475493       0.00581932
Cl       2.89977633       4.08297962       8.34166178       0.00331823      -0.00471754      -0.00582106
Cl       2.89978109       4.08297753       5.02256316       0.00337386      -0.00473008       0.00581166
Cl       4.81605974       1.37294029       8.34165759      -0.00335930       0.00468720      -0.00582822
