9
Lattice="6.452528640915702 -2.9275816340484548e-08 3.725369185734495 2.1508428737418113 6.083502365759422 3.725369149295444 5.214209967003154e-09 -4.0941514896587446e-08 7.450738362437716" Properties=species:S:1:pos:R:3:forces:R:3 energy=-28.81140899658203 free_energy=-28.81140899658203 stress="5.69655021536164e-05 -2.5791699886923425e-09 3.202056841900003e-09 -2.5791699886923425e-09 5.695833169738762e-05 -5.054921814462432e-09 3.202056841900003e-09 -5.054921814462432e-09 5.6979530199896544e-05" pbc="T T T"
Nb       2.15084340       1.52087594       3.72536883       0.00000053       0.00000128      -0.00000134
Nb       6.45252889       4.56262593      11.17610815       0.00000328      -0.00000417       0.00000470
Pd       0.00000002       0.00000019       0.00000017       0.00000033      -0.00000046      -0.00000075
I        2.18893516       1.54781134       7.45073833       0.00027995       0.00020156       0.00000065
I        6.41443610       4.53569121       7.45073810      -0.00028243      -0.00019977      -0.00000232
I        5.35806088       1.54781126       5.62104257      -0.00014051       0.00020104       0.00024300
I        3.24531028       4.53569106       9.28043389       0.00013962      -0.00019972      -0.00024421
I        3.24531071       4.53569117       5.62104278       0.00014082      -0.00019909       0.00024377
I        5.35806064       1.54781107       9.28043394      -0.00014155       0.00019927      -0.00024359
