9
Lattice="6.537578937235689 4.800350569866942e-08 3.7744729098985275 2.179193006940219 6.163688639068636 3.7744729400301527 -1.465096410449361e-08 2.6543723336635332e-08 7.548945845173265" Properties=species:S:1:pos:R:3:forces:R:3 energy=-27.304546356201172 free_energy=-27.304546356201172 stress="0.00018799887038767338 -1.5307327627667178e-09 -6.7060610398073095e-09 -1.5307327627667178e-09 0.0001879969786386937 -5.227407395835826e-09 -6.7060610398073095e-09 -5.227407395835826e-09 0.00018800482212100178" pbc="T T T"
Nb       2.17919257       1.54092194       3.77447266      -0.00000247      -0.00000097       0.00000004
Nb       6.53757871       4.62276619      11.32341763      -0.00000153      -0.00000230      -0.00000640
P       -0.00000008       0.00000048       0.00000030      -0.00000032      -0.00000111      -0.00000114
I        2.24092223       1.58457140       7.54894592      -0.00342290      -0.00242031       0.00000021
I        6.47584977       4.57911708       7.54894632       0.00342427       0.00242171       0.00000213
I        5.41711812       1.58457129       5.71516882       0.00171228      -0.00241967      -0.00296398
I        3.29965430       4.57911723       9.38272305      -0.00171049       0.00242093       0.00296662
I        3.29965404       4.57911740       5.71516886      -0.00171153       0.00242071      -0.00296449
I        5.41711808       1.58457184       9.38272319       0.00171268      -0.00241896       0.00296697
