9
Lattice="6.083463762932688 -1.3655296158766347e-07 3.5122894080897673 2.027821113627278 5.735544477386824 3.5122894287708903 -4.6015566043784444e-08 -7.208817660846022e-09 7.024578895880846" Properties=species:S:1:pos:R:3:forces:R:3 energy=-29.981689453125 free_energy=-29.981689453125 stress="0.00019206876459065825 -1.2541722327341631e-08 2.8865303036695877e-08 -1.2541722327341631e-08 0.0001921141956700012 9.274423007354926e-09 2.8865303036695877e-08 9.274423007354926e-09 0.0001921053626574576" pbc="T T T"
Nb       2.02782041       1.43388543       3.51228979      -0.00000435      -0.00000387       0.00000270
Nb       6.08346377       4.30165768      10.53686790      -0.00000122      -0.00000337      -0.00000292
Pb      -0.00000003       0.00000013      -0.00000003       0.00000011      -0.00000045      -0.00000033
Br       2.16518531       1.53101697       7.02457852      -0.00057948      -0.00040896       0.00000026
Br       5.94609940       4.20452747       7.02457912       0.00058252       0.00041217       0.00000108
Br       5.00087151       1.53101745       5.38739480       0.00029294      -0.00040874      -0.00050171
Br       3.11041379       4.20452766       8.66176302      -0.00029087       0.00041050       0.00050162
Br       3.11041368       4.20452720       5.38739500      -0.00029205       0.00041112      -0.00050308
Br       5.00087146       1.53101738       8.66176277       0.00029238      -0.00040847       0.00050266
