9
Lattice="6.768996637258579 -4.1129740773775875e-08 3.9080820317379743 2.256332182605544 6.3818713487612175 3.9080820162127274 1.5692862178705495e-08 -7.917954156558814e-09 7.816164036295117" Properties=species:S:1:pos:R:3:forces:R:3 energy=-26.035598754882812 free_energy=-26.035598754882812 stress="4.638691098080017e-05 3.5511809048927034e-09 2.1439789943400456e-09 3.5511809048927034e-09 4.637766687665135e-05 1.2093591017503513e-08 2.1439789943400456e-09 1.2093591017503513e-08 4.63856449641753e-05" pbc="T T T"
Nb       2.25633224       1.59546782       3.90808213      -0.00000106      -0.00000000       0.00000023
Nb       6.76899675       4.78640293      11.72424612       0.00000071      -0.00000238       0.00000038
Pb       0.00000014       0.00000014       0.00000026      -0.00000140       0.00000174      -0.00000169
I        2.42804841       1.71688976       7.81616394       0.00107194       0.00075892       0.00000041
I        6.59728001       4.66498170       7.81616379      -0.00107095      -0.00075801      -0.00000043
I        5.55497220       1.71688960       6.01083378      -0.00053516       0.00075861       0.00092769
I        3.47035678       4.66498163       9.62149428       0.00053541      -0.00075783      -0.00092823
I        3.47035641       4.66498167       6.01083385       0.00053618      -0.00075919       0.00092945
I        5.55497241       1.71688998       9.62149418      -0.00053555       0.00075814      -0.00092786
