9
Lattice="5.808006600800351 -2.2244311031672696e-08 3.353253953173861 1.9360021821455646 5.475841050391057 3.353253948235979 -5.543705331449664e-09 -9.967694534495065e-09 6.706507915949701" Properties=species:S:1:pos:R:3:forces:R:3 energy=-31.090702056884766 free_energy=-31.090702056884766 stress="7.280264981091022e-05 1.6635818056442986e-08 -3.206736920446929e-08 1.6635818056442986e-08 7.279679266503081e-05 1.1272245359350563e-08 -3.206736920446929e-08 1.1272245359350563e-08 7.286047912202775e-05" pbc="T T T"
Nb       1.93600299       1.36896065       3.35325368       0.00000463       0.00000308      -0.00000148
Nb       5.80800633       4.10688092      10.05976202       0.00000051       0.00000278       0.00000167
P       -0.00000033      -0.00000045       0.00000023      -0.00000046      -0.00000084      -0.00000042
Br       2.01854549       1.42732687       6.70650785      -0.00078897      -0.00055888       0.00000184
Br       5.72546359       4.04851412       6.70650802       0.00078791       0.00055768       0.00000014
Br       4.79873378       1.42732726       5.10136564       0.00039335      -0.00055826      -0.00068581
Br       2.94527484       4.04851396       8.31165014      -0.00039476       0.00055569       0.00068456
Br       2.94527488       4.04851372       5.10136546      -0.00039336       0.00055668      -0.00068398
Br       4.79873356       1.42732700       8.31165026       0.00039099      -0.00055791       0.00068326
