9
Lattice="4.872639215352089 2.309416823624087e-06 2.813221061073069 1.6242149527494774 4.593972725851685 2.8132215744066533 4.744356353198067e-07 9.641794246549072e-07 5.626441300399362" Properties=species:S:1:pos:R:3:forces:R:3 energy=-44.71064758300781 free_energy=-44.71064758300781 stress="-4.926837937091477e-05 -9.924201549438294e-07 -1.1850284664660649e-07 -9.924201549438294e-07 -5.0463910156395286e-05 -6.159596921406774e-08 -1.1850284664660649e-07 -6.159596921406774e-08 -5.037995651946403e-05" pbc="T T T"
Nb       1.62431784       1.14854273       2.81316537       0.00128445       0.00057386      -0.00068465
Nb       4.87283643       3.44550059       8.43958396       0.00232395       0.00023762      -0.00092974
Pt      -0.00005255      -0.00001260       0.00002564      -0.00077763      -0.00017048       0.00034799
F        1.75655401       1.24211018       5.62647168      -0.00162822      -0.00068825       0.00028125
F        4.74025237       3.35187956       5.62646163       0.00107861       0.00088233       0.00028478
F        3.99431133       1.24207022       4.33447802       0.00022867      -0.00121859      -0.00095692
F        2.50245136       3.35186316       6.91841824      -0.00125664       0.00064692       0.00112608
F        2.50243128       3.35186545       4.33449844      -0.00146681       0.00074983      -0.00076011
F        3.99431648       1.24208448       6.91843242       0.00021318      -0.00101343       0.00129190
