9
Lattice="5.89297772237033 -1.062619274788891e-07 3.4023123036344427 1.9643258510237573 5.555952503194903 3.4023122278542974 -2.8057539094152904e-08 -1.126510281868749e-07 6.804624655865986" Properties=species:S:1:pos:R:3:forces:R:3 energy=-32.76515579223633 free_energy=-32.76515579223633 stress="2.6192428776994348e-05 1.2163267726350568e-08 -2.9918275856744e-08 1.2163267726350568e-08 2.6242054445901886e-05 2.4355724548286162e-08 -2.9918275856744e-08 2.4355724548286162e-08 2.6182655346929096e-05" pbc="T T T"
Nb       1.96432664       1.38898715       3.40231162       0.00000919      -0.00000806      -0.00000586
Nb       5.89297876       4.16696513      10.20693737       0.00001036       0.00000468       0.00000712
Pb       0.00000015      -0.00000003      -0.00000012       0.00000053      -0.00000220       0.00000074
Cl       2.09210636       1.47934280       6.80462481       0.00205758       0.00145628       0.00000294
Cl       5.76519672       4.07661003       6.80462502      -0.00206196      -0.00145373      -0.00000028
Cl       4.84692405       1.47934248       5.21412963      -0.00103220       0.00145514       0.00178328
Cl       3.01037845       4.07660969       8.39511914       0.00102332      -0.00145513      -0.00178480
Cl       3.01037916       4.07661020       5.21412997       0.00103003      -0.00145173       0.00178440
Cl       4.84692382       1.47934167       8.39511919      -0.00103679       0.00145459      -0.00178738
