9
Lattice="6.538200773418044 5.8461116146974815e-08 3.774832049016945 2.1794003003034144 6.164275059548346 3.7748320708758594 -1.3058531470877861e-09 2.584822233692862e-08 7.54966410029568" Properties=species:S:1:pos:R:3:forces:R:3 energy=-27.304519653320312 free_energy=-27.304519653320312 stress="0.0002621574676595628 4.0873078255287965e-09 7.99184807220854e-09 4.0873078255287965e-09 0.00026217979029752314 1.8650019306676313e-09 7.99184807220854e-09 1.8650019306676313e-09 0.00026217152480967343" pbc="T T T"
Nb       2.17940065       1.54106800       3.77483234       0.00000140      -0.00000342       0.00000048
Nb       6.53819986       4.62320605      11.32449504      -0.00000530      -0.00000002      -0.00000393
P       -0.00000024       0.00000014      -0.00000018       0.00000295      -0.00000008       0.00000110
I        2.24138402       1.58489762       7.54966408      -0.00585811      -0.00414252       0.00000004
I        6.47621717       4.57937772       7.54966450       0.00585753       0.00414298       0.00000117
I        5.41750866       1.58489756       5.71592725       0.00292816      -0.00414232      -0.00507410
I        3.30009265       4.57937776       9.38340119      -0.00292745       0.00414377       0.00507528
I        3.30009236       4.57937768       5.71592745      -0.00292862       0.00414378      -0.00507427
I        5.41750920       1.58489804       9.38340122       0.00292932      -0.00414219       0.00507426
