9
Lattice="6.474761457119433 -1.5288407061739608e-08 3.7382052889500876 2.158253796734295 6.104463685111716 3.7382053026185145 -2.2267177815216504e-08 9.95103418865974e-10 7.476410616468042" Properties=species:S:1:pos:R:3:forces:R:3 energy=-29.583858489990234 free_energy=-29.583858489990234 stress="0.00016984822286758572 -7.560015391483432e-10 -9.300647363374992e-09 -7.560015391483432e-10 0.00016983883688226342 1.3962082601182146e-09 -9.300647363374992e-09 1.3962082601182146e-09 0.00016984764079097658" pbc="T T T"
Nb       2.15825390       1.52611585       3.73820527       0.00000100       0.00000023      -0.00000140
Nb       6.47476127       4.57834741      11.21461637      -0.00000017      -0.00000168       0.00000322
Pt      -0.00000009      -0.00000007      -0.00000020      -0.00000030       0.00000066       0.00000085
I        2.17992642       1.54144103       7.47641070      -0.00095870      -0.00067650       0.00000054
I        6.45308888       4.56302297       7.47641042       0.00095809       0.00067719      -0.00000212
I        5.38479815       1.54144097       5.62607704       0.00047964      -0.00067670      -0.00083113
I        3.24821709       4.56302277       9.32674398      -0.00047978       0.00067719       0.00082989
I        3.24821728       4.56302293       5.62607717      -0.00047859       0.00067731      -0.00082971
I        5.38479804       1.54144080       9.32674409       0.00047888      -0.00067765       0.00082985
