9
Lattice="5.789288007643041 1.998708743053175e-07 3.3424474331789304 1.929762965323096 5.458193619136042 3.3424472466912465 3.165365109731118e-08 -2.0601732764628834e-07 6.684894811532116" Properties=species:S:1:pos:R:3:forces:R:3 energy=-32.2054557800293 free_energy=-32.2054557800293 stress="9.536805737297982e-05 1.7221767123487552e-08 5.0792749561878736e-08 1.7221767123487552e-08 9.544205386191607e-05 4.6909791606708495e-09 5.0792749561878736e-08 4.6909791606708495e-09 9.525155473966151e-05" pbc="T T T"
Nb       1.92976102       1.36454899       3.34243973      -0.00001112       0.00001206      -0.00005887
Nb       5.78928766       4.09364237      10.02733068      -0.00000486      -0.00002289      -0.00009816
P        0.00000087       0.00000196       0.00000478       0.00000823      -0.00000005       0.00004954
Cl       1.94237133       1.37346566       6.68489714       0.00237209       0.00168654       0.00002765
Cl       5.77667907       4.08472824       6.68490057      -0.00238304      -0.00169280       0.00004397
Cl       4.81810441       1.37346285       5.02459265      -0.00117287       0.00167091       0.00207026
Cl       2.90095171       4.08472684       8.34520130       0.00121170      -0.00170298      -0.00205645
Cl       2.90094698       4.08473076       5.02459114       0.00117657      -0.00166462       0.00207420
Cl       4.81810098       1.37346678       8.34519995      -0.00119665       0.00171387      -0.00205192
