9
Lattice="4.858641211894741 1.5784995021326616e-06 2.8051383960082314 1.6195485583534506 4.580771188291551 2.805138396877193 1.3347322221938855e-06 9.448624774286156e-07 5.6102744801926185" Properties=species:S:1:pos:R:3:forces:R:3 energy=-46.00634765625 free_energy=-46.00634765625 stress="0.0002281142515130341 -1.5033032241262845e-07 -1.8726117900769168e-07 -1.5033032241262845e-07 0.00022818746219854802 -1.3023573330883664e-07 -1.8726117900769168e-07 -1.3023573330883664e-07 0.00022799207363277674" pbc="T T T"
Nb       1.61954182       1.14523457       2.80514792      -0.00007060       0.00034299       0.00007028
Nb       4.85861376       3.43558470       8.41539689      -0.00024296       0.00006274      -0.00012456
P        0.00000932      -0.00001053       0.00000334       0.00004283      -0.00005962       0.00000556
F        1.69406662       1.19787933       5.61027414       0.00089835       0.00055386      -0.00001959
F        4.78413334       3.38288350       5.61027943      -0.00079648      -0.00068736       0.00004407
F        4.01161564       1.19788059       4.27223873      -0.00040324       0.00057461       0.00074186
F        2.46658356       3.38288341       6.94831674       0.00049028      -0.00067951      -0.00068509
F        2.46658327       3.38287675       4.27223178       0.00046177      -0.00071679       0.00068445
F        4.01161715       1.19788191       6.94831597      -0.00037982       0.00060919      -0.00071704
