9
Lattice="5.807963167491548 1.208389261453027e-07 3.3532290812371053 1.9359878306489593 5.475799726058747 3.353229091241905 4.377363349515482e-08 4.3205952227875495e-08 6.706458086656078" Properties=species:S:1:pos:R:3:forces:R:3 energy=-31.0906982421875 free_energy=-31.0906982421875 stress="5.9039699408458546e-05 5.1854833316156146e-08 4.059950953205771e-08 5.1854833316156146e-08 5.913843051530421e-05 2.9433392612077114e-08 4.059950953205771e-08 2.9433392612077114e-08 5.914049324928783e-05" pbc="T T T"
Nb       1.93598844       1.36895052       3.35322897       0.00000496       0.00000307      -0.00000121
Nb       5.80796364       4.10684951      10.05968709       0.00000757      -0.00000318      -0.00000076
P       -0.00000024      -0.00000012      -0.00000007      -0.00000197      -0.00000106      -0.00000123
Br       2.01850261       1.42729660       6.70645804      -0.00005366      -0.00003675      -0.00000089
Br       5.72544848       4.04850294       6.70645816       0.00004859       0.00003578       0.00000039
Br       4.79871197       1.42729667       5.10130359       0.00002237      -0.00003602      -0.00004192
Br       2.94523885       4.04850328       8.31161256      -0.00002658       0.00003716       0.00004551
Br       2.94523888       4.04850315       5.10130366      -0.00002578       0.00003509      -0.00004569
Br       4.79871160       1.42729702       8.31161308       0.00002431      -0.00003432       0.00004579
