9
Lattice="4.987461592534446 6.07223432823443e-08 2.879512307318382 1.662487131755634 4.70222597144776 2.8795125203700684 -1.7959639286605758e-07 1.3394009341030674e-07 5.759024925706864" Properties=species:S:1:pos:R:3:forces:R:3 energy=-46.07335662841797 free_energy=-46.07335662841797 stress="-5.092126684758114e-06 8.458738420813461e-08 1.3629652073632315e-07 8.458738420813461e-08 -5.73153602090315e-06 8.549621099973592e-08 1.3629652073632315e-07 8.549621099973592e-08 -4.81384313388844e-06" pbc="T T T"
Nb       1.66248728       1.17556004       2.87951830      -0.00000063       0.00003083       0.00004909
Nb       4.98745830       3.52666563       8.63854026      -0.00002383      -0.00003558       0.00002451
Pb      -0.00000006       0.00000005       0.00000028      -0.00000621      -0.00000105      -0.00000249
F        1.79108255       1.26648789       5.75902147      -0.00232771      -0.00163933      -0.00002741
F        4.85886688       3.43573748       5.75902342       0.00233577       0.00163676      -0.00001166
F        4.09192066       1.26648976       4.43063370       0.00116191      -0.00162335      -0.00202955
F        2.55802879       3.43573846       7.08741398      -0.00116054       0.00164438       0.00201491
F        2.55802917       3.43573656       4.43063342      -0.00115526       0.00162589      -0.00203405
F        4.09192085       1.26648879       7.08741384       0.00117663      -0.00163877       0.00201679
