9
Lattice="4.75225550681766 5.089660718997084e-07 2.743716118759858 1.584085514470828 4.480470847072717 2.7437163514196747 -4.0803061562221695e-07 -3.5723335712261705e-09 5.487432944249414" Properties=species:S:1:pos:R:3:forces:R:3 energy=-46.752403259277344 free_energy=-46.752403259277344 stress="0.0002089820773107931 -4.243469220455154e-07 5.768197297584265e-07 -4.243469220455154e-07 0.0002083330909954384 4.0365756603932823e-07 5.768197297584265e-07 4.0365756603932823e-07 0.0002077547978842631" pbc="T T T"
Nb       1.58407979       1.12011640       2.74372282      -0.00006641      -0.00001898       0.00007772
Nb       4.75227319       3.36035169       8.23113294       0.00022387      -0.00001983      -0.00020416
Pd      -0.00000093       0.00000024       0.00000078      -0.00000561       0.00000133       0.00000582
F        1.68962858       1.19475275       5.48743149       0.00114465       0.00087422      -0.00002437
F        4.64670962       3.28572141       5.48743858      -0.00118580      -0.00084071       0.00008095
F        3.90743913       1.19474726       4.20698281      -0.00060431       0.00079484       0.00106300
F        2.42889768       3.28572345       6.76788336       0.00055929      -0.00080723      -0.00105073
F        2.42889280       3.28572033       4.20698386       0.00048700      -0.00084039       0.00107947
F        3.90744278       1.19475197       6.76788504      -0.00055252       0.00085678      -0.00102806
