9
Lattice="5.670880632335898 -9.900027011798151e-09 3.2740845966864334 1.8902935397468952 5.34655756955659 3.2740845880802802 2.5351951050421967e-08 7.386192216154034e-09 6.54816914946202" Properties=species:S:1:pos:R:3:forces:R:3 energy=-38.45986557006836 free_energy=-38.45986557006836 stress="4.364332926343195e-05 1.434204310868381e-09 -2.45763809303412e-09 1.434204310868381e-09 4.35936963185668e-05 -3.052757335808565e-08 -2.45763809303412e-09 -3.052757335808565e-08 4.3536561861401424e-05" pbc="T T T"
Nb       1.89029405       1.33664000       3.27408480       0.00000410       0.00000364       0.00000245
Nb       5.67088020       4.00991760       9.82225199      -0.00000349      -0.00000554      -0.00001351
Ru       0.00000010      -0.00000016       0.00000028      -0.00000091       0.00000048      -0.00000378
Cl       1.93392237       1.36748947       6.54816905       0.00120661       0.00085381      -0.00000049
Cl       5.62725195       3.97906789       6.54816997      -0.00120583      -0.00085345       0.00000363
Cl       4.70391931       1.36748977       4.94891017      -0.00060606       0.00085533       0.00104868
Cl       2.85725501       3.97906780       8.14742838       0.00060409      -0.00085500      -0.00104183
Cl       2.85725427       3.97906801       4.94891065       0.00060445      -0.00085571       0.00104725
Cl       4.70391953       1.36748977       8.14742805      -0.00060318       0.00085634      -0.00104237
