9
Lattice="5.835400738529019 3.5044727759060624e-08 3.3690703400316337 1.9451335926011073 5.50166851190812 3.3690703745844264 1.6479963529127554e-07 1.5884929721534874e-07 6.738140394621885" Properties=species:S:1:pos:R:3:forces:R:3 energy=-35.20034408569336 free_energy=-35.20034408569336 stress="0.00014627414930146188 -1.5840601719219194e-08 2.158718714895258e-08 -1.5840601719219194e-08 0.00014624622417613864 3.921407198959059e-08 2.158718714895258e-08 3.921407198959059e-08 0.00014629178622271866" pbc="T T T"
Nb       1.94513257       1.37541728       3.36907101      -0.00000674      -0.00000159       0.00000344
Nb       5.83540069       4.12625037      10.10720996       0.00000041      -0.00000691      -0.00000253
Rh       0.00000018       0.00000013       0.00000012       0.00000044      -0.00000387      -0.00000064
Br       1.97228865       1.39461892       6.73814037      -0.00221604      -0.00156710      -0.00000186
Br       5.80824571       4.10705002       6.73814100       0.00222187       0.00157027       0.00000123
Br       4.84925699       1.39461914       5.07712218       0.00111104      -0.00156558      -0.00192219
Br       2.93127833       4.10704999       8.39915878      -0.00111111       0.00157125       0.00192630
Br       2.93127799       4.10705017       5.07712250      -0.00110995       0.00157057      -0.00192368
Br       4.84925680       1.39461879       8.39915854       0.00111011      -0.00156684       0.00192009
