9
Lattice="5.835515604932843 1.4270715246469358e-07 3.3691365570256875 1.945172002102305 5.501776993045593 3.3691365583320305 6.105910680079849e-08 4.477525988615846e-08 6.73827300829389" Properties=species:S:1:pos:R:3:forces:R:3 energy=-35.200347900390625 free_energy=-35.200347900390625 stress="0.00016693657380528748 7.543671465271018e-09 -2.643763652443454e-09 7.543671465271018e-09 0.00016698279068805277 -5.434693406414226e-08 -2.643763652443454e-09 -5.434693406414226e-08 0.00016697534010745585" pbc="T T T"
Nb       1.94517142       1.37544432       3.36913663      -0.00000627      -0.00000042       0.00000095
Nb       5.83551664       4.12633264      10.10740898       0.00000445      -0.00000192      -0.00000771
Rh       0.00000014      -0.00000009       0.00000003       0.00000125       0.00000039       0.00000321
Br       1.97230847       1.39463301       6.73827308      -0.00220734      -0.00156167       0.00000058
Br       5.80837898       4.10714429       6.73827303       0.00220656       0.00156203       0.00000144
Br       4.84936140       1.39463277       5.07720577       0.00110463      -0.00156201      -0.00191034
Br       2.93132621       4.10714441       8.39934057      -0.00110248       0.00156081       0.00191191
Br       2.93132570       4.10714433       5.07720594      -0.00110622       0.00156328      -0.00191082
Br       4.84936177       1.39463307       8.39934047       0.00110530      -0.00156042       0.00191054
