9
Lattice="5.8517259847538465 2.078074026187714e-08 3.3784954613807985 1.9505753431215087 5.517060118544391 3.3784954695596054 -3.124536718279098e-08 -1.2076819241702269e-08 6.756990976880152" Properties=species:S:1:pos:R:3:forces:R:3 energy=-36.281551361083984 free_energy=-36.281551361083984 stress="0.00020286062499508262 5.459538243712814e-08 2.5020800986652603e-09 5.459538243712814e-08 0.0002027713053394109 -9.992735527930563e-09 2.5020800986652603e-09 -9.992735527930563e-09 0.00020281755132600665" pbc="T T T"
Nb       1.95057522       1.37926513       3.37849640      -0.00000006       0.00000062       0.00000845
Nb       5.85172640       4.13779532      10.13548628       0.00000265       0.00000289       0.00000130
Ru      -0.00000002      -0.00000024      -0.00000062      -0.00000113       0.00000869       0.00000808
Br       1.99454912       1.41035885       6.75699048      -0.00316927      -0.00223957      -0.00000076
Br       5.80775256       4.10670120       6.75699107       0.00316179       0.00223680      -0.00000041
Br       4.85445121       1.41035907       5.10582531       0.00158453      -0.00224003      -0.00274438
Br       2.94784953       4.10670147       8.40815704      -0.00157724       0.00222854       0.00272951
Br       2.94784959       4.10670101       5.10582492      -0.00158234       0.00223634      -0.00273833
Br       4.85445156       1.41035869       8.40815675       0.00158136      -0.00223406       0.00273669
