9
Lattice="6.515647761661531 -2.4390711284574864e-08 3.761811011132118 2.1718825744728703 6.1430116067303695 3.7618109933818107 -1.2714086603701941e-08 -3.07298089751292e-08 7.523622044285681" Properties=species:S:1:pos:R:3:forces:R:3 energy=-34.172752380371094 free_energy=-34.172752380371094 stress="0.0001966990967048332 -7.088804210297894e-09 5.267105418482743e-09 -7.088804210297894e-09 0.00019668687309604138 -1.3239135121523304e-08 5.267105418482743e-09 -1.3239135121523304e-08 0.00019668405002448708" pbc="T T T"
Nb       2.17188227       1.53575310       3.76181118      -0.00000099       0.00000088       0.00000005
Nb       6.51564815       4.60725871      11.28543309       0.00000128       0.00000086       0.00000002
Re      -0.00000001       0.00000022      -0.00000021      -0.00000114      -0.00000403       0.00000002
I        2.18380580       1.54418420       7.52362193      -0.00179981      -0.00127359      -0.00000074
I        6.50372398       4.59882731       7.52362214       0.00180497       0.00127515       0.00000021
I        5.42374497       1.54418405       5.65304248       0.00089984      -0.00127401      -0.00155832
I        3.26378557       4.59882750       9.39420137      -0.00090236       0.00127508       0.00156162
I        3.26378576       4.59882717       5.65304283      -0.00090300       0.00127535      -0.00156292
I        5.42374481       1.54418396       9.39420141       0.00090124      -0.00127560       0.00156013
