9
Lattice="6.444436744132403 2.976142575084512e-08 3.7206972544787056 2.148145588274313 6.075873266674855 3.7206972911332024 -6.452086164706185e-08 -7.307428292100729e-10 7.441394620710793" Properties=species:S:1:pos:R:3:forces:R:3 energy=-31.259746551513672 free_energy=-31.259746551513672 stress="7.406206714222208e-05 -9.981286908100628e-09 -4.3193493226567625e-09 -9.981286908100628e-09 7.408292731270194e-05 3.1399638444895572e-09 -4.3193493226567625e-09 3.1399638444895572e-09 7.410494436044246e-05" pbc="T T T"
Nb       2.14814530       1.51896830       3.72069770      -0.00000152      -0.00000039       0.00000165
Nb       6.44443685       4.55690498      11.16209124       0.00000190      -0.00000076      -0.00000290
Rh       0.00000001      -0.00000001      -0.00000007      -0.00000065      -0.00000037      -0.00000111
I        2.15583906       1.52440846       7.44139464      -0.00007347      -0.00005072      -0.00000017
I        6.43674323       4.55146488       7.44139471       0.00007402       0.00005260       0.00000080
I        5.36651709       1.52440826       5.58770872       0.00003695      -0.00005296      -0.00006454
I        3.22606518       4.55146495       9.29508049      -0.00003767       0.00005304       0.00006504
I        3.22606490       4.55146482       5.58770873      -0.00003779       0.00005171      -0.00006389
I        5.36651743       1.52440853       9.29508051       0.00003826      -0.00005217       0.00006513
