9
Lattice="4.786071314709447 1.0837588717804577e-07 2.763239451710384 1.5953570257168928 4.512352239811594 2.7632397658422327 -2.5051738788960078e-08 3.6701702336603524e-07 5.526478946811757" Properties=species:S:1:pos:R:3:forces:R:3 energy=-50.344444274902344 free_energy=-50.344444274902344 stress="-0.0004040101484861225 3.244117863232532e-07 -2.867255659566581e-07 3.244117863232532e-07 -0.00040389224886894226 -1.7810010888297256e-07 -2.867255659566581e-07 -1.7810010888297256e-07 -0.0004031202115584165" pbc="T T T"
Nb       1.59536522       1.12809104       2.76322941       0.00009201       0.00003381      -0.00011159
Nb       4.78605113       3.38426341       8.28972469      -0.00021709      -0.00001672       0.00006602
Ru       0.00000130      -0.00000018       0.00000023       0.00000925      -0.00000098       0.00000946
F        1.69431068       1.19805553       5.52648278       0.00036570       0.00020868       0.00004171
F        4.68712012       3.31429526       5.52647721      -0.00033675      -0.00023158      -0.00002319
F        3.93891812       1.19806022       4.23055223      -0.00015922       0.00026894       0.00026910
F        2.44251483       3.31429277       6.82240797       0.00021011      -0.00027281      -0.00024526
F        2.44251789       3.31429401       4.23055073       0.00024308      -0.00024097       0.00025043
F        3.93891388       1.19805885       6.82240762      -0.00020725       0.00025167      -0.00025637
