9
Lattice="5.670200954592717 7.400334184619261e-08 3.2736921931626157 1.8900670628940655 5.3459165483432285 3.2736921788579485 6.54508463384081e-08 2.8761161058062815e-08 6.5473842729610565" Properties=species:S:1:pos:R:3:forces:R:3 energy=-41.579315185546875 free_energy=-41.579315185546875 stress="0.00043495878344401717 -1.0500396996349082e-08 4.055603497477023e-08 -1.0500396996349082e-08 0.0004350195231381804 7.60284102341302e-09 4.055603497477023e-08 7.60284102341302e-09 0.00043493558769114316" pbc="T T T"
Nb       1.89006785       1.33648010       3.27369356       0.00000427       0.00000865       0.00000758
Nb       5.67020070       4.00943698       9.82108074      -0.00000262      -0.00000350       0.00003715
Re      -0.00000005       0.00000003       0.00000005      -0.00000159      -0.00000193      -0.00000713
Cl       1.93164864       1.36588212       6.54738394      -0.00232840      -0.00164370      -0.00000433
Cl       5.62861940       3.98003461       6.54738300       0.00233132       0.00164574      -0.00001689
Cl       4.70437644       1.36588260       4.94654757       0.00116014      -0.00163551      -0.00202382
Cl       2.85589090       3.98003472       8.14821928      -0.00117096       0.00164479       0.00201391
Cl       2.85589184       3.98003434       4.94654805      -0.00115502       0.00163926      -0.00202063
Cl       4.70437662       1.36588115       8.14821850       0.00116283      -0.00165372       0.00201409
