9
Lattice="6.444505065706951 2.174447625370858e-08 3.720736805905539 2.1481683801395315 6.075937719593531 3.7207367982792694 4.374065789346076e-08 2.1589112373245288e-08 7.441473536050017" Properties=species:S:1:pos:R:3:forces:R:3 energy=-31.25974464416504 free_energy=-31.25974464416504 stress="8.246076322393492e-05 -1.5480669190992558e-08 -1.016861972402694e-08 -1.5480669190992558e-08 8.246699144365266e-05 1.978710706396214e-08 -1.016861972402694e-08 1.978710706396214e-08 8.247659570770338e-05" pbc="T T T"
Nb       2.14816817       1.51898403       3.72073666      -0.00000001      -0.00000188      -0.00000028
Nb       6.44450534       4.55695294      11.16221039       0.00000082      -0.00000299       0.00000050
Rh      -0.00000000       0.00000007       0.00000020       0.00000075      -0.00000018      -0.00000145
I        2.15584861       1.52441566       7.44147368      -0.00000700      -0.00000362      -0.00000108
I        6.43682474       4.55152263       7.44147342       0.00000579       0.00000420      -0.00000077
I        5.36658088       1.52441540       5.58775664       0.00000428      -0.00000419      -0.00000563
I        3.22609272       4.55152245       9.29519029      -0.00000550       0.00000807       0.00000814
I        3.22609280       4.55152252       5.58775679      -0.00000284       0.00000528      -0.00000582
I        5.36658067       1.52441539       9.29519050       0.00000368      -0.00000473       0.00000635
