9
Lattice="5.85164219299062 -3.205444790383132e-08 3.378447243612925 1.9505473463474745 5.516981121128384 3.3784472801502816 -3.2720681687856094e-08 2.1611920297985247e-08 6.756894543899727" Properties=species:S:1:pos:R:3:forces:R:3 energy=-36.28154754638672 free_energy=-36.28154754638672 stress="0.00018864923913497478 -5.528885083094792e-08 5.500581679029892e-08 -5.528885083094792e-08 0.0001886827958514914 7.163758652950492e-08 5.500581679029892e-08 7.163758652950492e-08 0.00018880901916418225" pbc="T T T"
Nb       1.95054741       1.37924579       3.37844764       0.00000000       0.00000417       0.00000060
Nb       5.85164214       4.13773566      10.13534200       0.00000121       0.00000048      -0.00000212
Ru      -0.00000020       0.00000003       0.00000087       0.00000328      -0.00000030      -0.00001216
Br       1.99453655       1.41035034       6.75689457      -0.00320920      -0.00227043      -0.00000184
Br       5.80765313       4.10663059       6.75689436       0.00320753       0.00226697       0.00000095
Br       4.85437392       1.41035049       5.10576654       0.00160220      -0.00226828      -0.00277779
Br       2.94781576       4.10663031       8.40802176      -0.00160860       0.00227469       0.00278667
Br       2.94781592       4.10663085       5.10576689      -0.00160420       0.00226715      -0.00277907
Br       4.85437330       1.41035040       8.40802156       0.00160767      -0.00227460       0.00278473
