9
Lattice="4.876741742212788 9.468154756920824e-08 2.8155884071065307 1.6255807219390899 4.597836126460532 2.8155883171526823 4.2017465899994234e-07 1.869378447692597e-07 5.631176086449228" Properties=species:S:1:pos:R:3:forces:R:3 energy=-53.91991424560547 free_energy=-53.91991424560547 stress="-5.1051683840341866e-05 2.0365868991234493e-08 -9.535700939977687e-08 2.0365868991234493e-08 -5.114150189911015e-05 -2.4330425674179423e-08 -9.535700939977687e-08 -2.4330425674179423e-08 -5.117360706208274e-05" pbc="T T T"
Nb       1.62557471       1.14946909       2.81557301      -0.00004517       0.00008109      -0.00011918
Nb       4.87674004       3.44838791       8.44675806      -0.00001978       0.00008088      -0.00005067
Re       0.00000079      -0.00000207       0.00000213       0.00000475      -0.00001606       0.00003654
F        1.65856121       1.17277457       5.63118515       0.00062050       0.00040188       0.00005567
F        4.84376572       3.42505424       5.63117493      -0.00059015      -0.00045475       0.00000330
F        4.04746297       1.17277350       4.25194682      -0.00028560       0.00039393       0.00055516
F        2.45486128       3.42505535       7.01041345       0.00031107      -0.00045960      -0.00050689
F        2.45485932       3.42505484       4.25194398       0.00030325      -0.00044680       0.00054224
F        4.04746522       1.17277819       7.01041342      -0.00029879       0.00041957      -0.00051613
