9
Lattice="6.472769236632883 2.0180190522528174e-08 3.7370550526232975 2.157589766309939 6.1025853970572586 3.737055049610299 1.7765580087011122e-08 8.871995858541074e-09 7.474110074475715" Properties=species:S:1:pos:R:3:forces:R:3 energy=-31.970230102539062 free_energy=-31.970230102539062 stress="0.000175032444531098 -2.332243198566175e-08 -1.668251536912635e-09 -2.332243198566175e-08 0.0001750485535012558 -2.6237720884836335e-09 -1.668251536912635e-09 -2.6237720884836335e-09 0.0001750568626448512" pbc="T T T"
Nb       2.15758978       1.52564645       3.73705487       0.00000038      -0.00000020      -0.00000069
Nb       6.47276925       4.57693931      11.21116500      -0.00000034       0.00000061       0.00000034
Ru      -0.00000016      -0.00000015      -0.00000026       0.00000363       0.00000265       0.00000091
I        2.17414851       1.53735508       7.47411012      -0.00065500      -0.00046299       0.00000048
I        6.45621094       4.56523059       7.47411021       0.00064947       0.00045957       0.00000002
I        5.38569501       1.53735490       5.61992284       0.00032811      -0.00046345      -0.00056708
I        3.24466366       4.56523042       9.32829760      -0.00032673       0.00046251       0.00056571
I        3.24466406       4.56523028       5.61992286      -0.00032662       0.00046413      -0.00056626
I        5.38569505       1.53735483       9.32829747       0.00032709      -0.00046293       0.00056666
