9
Lattice="4.786160788529843 2.3305547728077583e-07 2.763291445746727 1.5953870996114268 4.512436818633991 2.7632915317003373 -1.1931371321962775e-07 2.090370041022221e-08 5.526583098150884" Properties=species:S:1:pos:R:3:forces:R:3 energy=-50.34444808959961 free_energy=-50.34444808959961 stress="-0.0003691238525789231 -1.4971680784015007e-08 8.848781263282035e-09 -1.4971680784015007e-08 -0.00036960100987926126 1.4272242054857998e-08 8.848781263282035e-09 1.4272242054857998e-08 -0.00036920447018928826" pbc="T T T"
Nb       1.59538806       1.12811600       2.76328861       0.00001110       0.00007494      -0.00003171
Nb       4.78616250       3.38432500       8.28987252       0.00001878      -0.00003478      -0.00002608
Ru      -0.00000025      -0.00000055       0.00000037      -0.00000212      -0.00000444      -0.00000263
F        1.69430762       1.19805764       5.52658440       0.00037038       0.00027505       0.00001359
F        4.68724023       3.31437810       5.52658437      -0.00036883      -0.00028428       0.00001054
F        3.93900755       1.19805765       4.23060536      -0.00018612       0.00027305       0.00033067
F        2.44253968       3.31437723       6.82256126       0.00017448      -0.00028977      -0.00030990
F        2.44253927       3.31437798       4.23060556       0.00017235      -0.00028719       0.00032675
F        3.93900629       1.19805927       6.82256183      -0.00019008       0.00027724      -0.00031058
