9
Lattice="5.670902638978613 2.9186525953009613e-08 3.2740971354322963 1.8903008809167845 5.34657825406563 3.2740971809161366 -5.149832981742837e-08 1.9291281950076567e-08 6.548194360062329" Properties=species:S:1:pos:R:3:forces:R:3 energy=-38.45987319946289 free_energy=-38.45987319946289 stress="4.650234041037038e-05 5.142295478322012e-08 5.808008740615378e-09 5.142295478322012e-08 4.652260395232588e-05 -1.443257180433477e-09 5.808008740615378e-09 -1.443257180433477e-09 4.645757871912792e-05" pbc="T T T"
Nb       1.89030179       1.33664355       3.27409756       0.00000730      -0.00000868       0.00000775
Nb       5.67090208       4.00993484       9.82229197      -0.00000524       0.00001320       0.00000324
Ru      -0.00000012       0.00000007      -0.00000017      -0.00000104       0.00000061      -0.00000455
Cl       1.93392076       1.36748800       6.54819406       0.00128955       0.00090733      -0.00000353
Cl       5.62728268       3.97909017       6.54819470      -0.00128952      -0.00090641       0.00000004
Cl       4.70394192       1.36748815       4.94892137      -0.00064868       0.00091088       0.00111336
Cl       2.85726135       3.97909028       8.14746700       0.00064301      -0.00090855      -0.00111666
Cl       2.85726136       3.97909019       4.94892135       0.00064963      -0.00091106       0.00111502
Cl       4.70394209       1.36748794       8.14746694      -0.00064522       0.00090256      -0.00111476
