9
Lattice="4.793614649233482 -4.712454308805652e-08 2.7675950158430442 1.5978715582678586 4.519463215182461 2.7675949241260676 -4.461262573247576e-08 -1.4387574944158427e-07 5.535190108957408" Properties=species:S:1:pos:R:3:forces:R:3 energy=-48.5731315612793 free_energy=-48.5731315612793 stress="-1.1459720553830266e-05 4.464204295118179e-08 3.663340564230566e-08 4.464204295118179e-08 -1.1525296031322796e-05 -3.919079816228077e-08 3.663340564230566e-08 -3.919079816228077e-08 -1.1566671673790552e-05" pbc="T T T"
Nb       1.59787639       1.12986847       2.76759513       0.00004578       0.00002829       0.00000023
Nb       4.79361818       3.38959779       8.30278731       0.00003581       0.00000462       0.00002363
Rh      -0.00000071      -0.00000024      -0.00000022      -0.00000805      -0.00000629      -0.00000254
F        1.64516055       1.16330503       5.53518967      -0.00182542      -0.00128344      -0.00000147
F        4.74632467       3.35615808       5.53518943       0.00181571       0.00128619      -0.00000806
F        3.97103274       1.16330407       4.19234624       0.00089404      -0.00128438      -0.00157608
F        2.42044943       3.35615745       6.87803296      -0.00092827       0.00127107       0.00156769
F        2.42045084       3.35615719       4.19234586      -0.00091952       0.00127496      -0.00158057
F        3.97103238       1.16330426       6.87803408       0.00089011      -0.00129113       0.00157708
