9
Lattice="5.882631082534972 -8.543381512023273e-08 3.3963384591846326 1.9608769623565445 5.546197415882518 3.3963384325237578 -2.430840052161211e-07 -2.045391210958959e-07 6.792677339403094" Properties=species:S:1:pos:R:3:forces:R:3 energy=-38.79488754272461 free_energy=-38.79488754272461 stress="0.0002468015591148287 -2.9398407264125126e-08 3.3727598491850586e-08 -2.9398407264125126e-08 0.0002467250742483884 2.386142616828124e-09 3.3727598491850586e-08 2.386142616828124e-09 0.00024683144874870777" pbc="T T T"
Nb       1.96087717       1.38654881       3.39633924       0.00000143      -0.00000680       0.00000280
Nb       5.88263170       4.15964788      10.18901653       0.00000706       0.00000266       0.00000519
Re      -0.00000004       0.00000009      -0.00000027      -0.00000069       0.00000260      -0.00000005
Br       2.00456483       1.41744139       6.79267690      -0.00325596      -0.00229884      -0.00000018
Br       5.83894280       4.12875583       6.79267698       0.00325107       0.00229808       0.00000033
Br       4.88034820       1.41744120       5.13234263       0.00162750      -0.00230328      -0.00282146
Br       2.96315904       4.12875610       8.45301129      -0.00162843       0.00230316       0.00281502
Br       2.96315945       4.12875612       5.13234235      -0.00162861       0.00230321      -0.00281809
Br       4.88034810       1.41744105       8.45301122       0.00162678      -0.00230061       0.00281638
