9
Lattice="4.794227311640284 -3.720213818381557e-07 2.7679483579367585 1.5980755582858341 4.520039408668764 2.7679481180750973 -7.316236586033703e-08 -3.4550292427924266e-07 5.535896842594461" Properties=species:S:1:pos:R:3:forces:R:3 energy=-48.5731315612793 free_energy=-48.5731315612793 stress="8.342116052517667e-05 2.9859538841492395e-08 7.085393605166246e-08 2.9859538841492395e-08 8.365086978301406e-05 3.7631977534147154e-08 7.085393605166246e-08 3.7631977534147154e-08 8.349641575478017e-05" pbc="T T T"
Nb       1.59807909       1.13000606       2.76795280       0.00003483      -0.00004113       0.00004553
Nb       4.79422958       3.39003146       8.30384644       0.00002397       0.00003043       0.00001090
Rh      -0.00000040       0.00000028      -0.00000078      -0.00000630      -0.00000114       0.00000043
F        1.64505898       1.16323132       5.53589553       0.00170809       0.00120468      -0.00001809
F        4.74724238       3.35680877       5.53589612      -0.00172031      -0.00119361      -0.00000560
F        3.97169488       1.16322976       4.19261074      -0.00087662       0.00119737       0.00147384
F        2.42060530       3.35680899       6.87918004       0.00085086      -0.00119121      -0.00149545
F        2.42060469       3.35680790       4.19261071       0.00084853      -0.00120531       0.00147744
F        3.97169655       1.16323019       6.87918174      -0.00086355       0.00119980      -0.00148933
