9
Lattice="6.472673507347384 -5.363279030056692e-08 3.7369998306115018 2.157557804284253 6.102495116386276 3.7369997975860065 8.466129840883373e-09 -3.446135223472276e-08 7.47399964655925" Properties=species:S:1:pos:R:3:forces:R:3 energy=-31.970233917236328 free_energy=-31.970233917236328 stress="0.00016290433995891362 -2.4082542182668476e-08 1.907783042653932e-09 -2.4082542182668476e-08 0.00016294140368700027 -1.3413496979808315e-09 1.907783042653932e-09 -1.3413496979808315e-09 0.00016293289081659168" pbc="T T T"
Nb       2.15755758       1.52562292       3.73699926      -0.00000246      -0.00000414      -0.00000222
Nb       6.47267376       4.57687080      11.21099897       0.00000224      -0.00000211      -0.00000239
Ru       0.00000006      -0.00000002       0.00000021       0.00000092       0.00000178      -0.00000132
I        2.17413565       1.53734636       7.47399997      -0.00074433      -0.00052404       0.00000139
I        6.45609561       4.56514894       7.47399968       0.00074302       0.00052579       0.00000092
I        5.38560554       1.53734627       5.61985700       0.00037267      -0.00052775      -0.00064611
I        3.24462573       4.56514915       9.32814249      -0.00037224       0.00052880       0.00064547
I        3.24462574       4.56514914       5.61985691      -0.00037352       0.00052828      -0.00064345
I        5.38560558       1.53734654       9.32814261       0.00037363      -0.00052657       0.00064774
