9
Lattice="6.511994747364278 4.891403476819356e-08 3.7597018312956716 2.1706649744024147 6.139567666327297 3.759701809648968 -3.2464818969790694e-08 -4.946776154970318e-08 7.519403718822002" Properties=species:S:1:pos:R:3:forces:R:3 energy=-28.307273864746094 free_energy=-28.307273864746094 stress="0.00021306170674506575 -1.919396863669931e-09 2.4560848910226696e-09 -1.919396863669931e-09 0.00021305684640537947 3.20067350401132e-09 2.4560848910226696e-09 3.20067350401132e-09 0.00021307870338205248" pbc="T T T"
Nb       2.17066505       1.53489294       3.75970163       0.00000100       0.00000470      -0.00000065
Nb       6.51199457       4.60467566      11.27910599      -0.00000108      -0.00000105       0.00000269
Si      -0.00000000       0.00000004      -0.00000006      -0.00000004      -0.00000050      -0.00000031
I        2.19293976       1.55064262       7.51940379      -0.00033790      -0.00024025       0.00000010
I        6.48971964       4.58892485       7.51940347       0.00034091       0.00023913      -0.00000228
I        5.41552512       1.55064254       5.65884326       0.00016831      -0.00023794      -0.00029349
I        3.26713474       4.58892468       9.37996401      -0.00017075       0.00023845       0.00029606
I        3.26713494       4.58892482       5.65884328      -0.00016971       0.00023766      -0.00029589
I        5.41552491       1.55064250       9.37996406       0.00016938      -0.00024033       0.00029369
