9
Lattice="5.045708300544927 7.870890430138234e-07 2.9131430121625406 1.6819036005098245 4.757144063055598 2.9131428535293393 1.5335891185398799e-06 8.901262497127177e-07 5.826283368070472" Properties=species:S:1:pos:R:3:forces:R:3 energy=-46.42689514160156 free_energy=-46.42689514160156 stress="0.00017143049626611173 -1.4941032588922099e-07 -9.183500537801592e-07 -1.4941032588922099e-07 0.00016846151265781373 -6.053555807739031e-07 -9.183500537801592e-07 -6.053555807739031e-07 0.0001709758653305471" pbc="T T T"
Nb       1.68190217       1.18930253       2.91311920      -0.00001394       0.00011077      -0.00014696
Nb       5.04571388       3.56783322       8.73943481       0.00002818      -0.00016996       0.00005338
Sb       0.00000004       0.00000094       0.00000062      -0.00000062      -0.00000376      -0.00000255
F        1.76573369       1.24857445       5.82629278       0.00204796       0.00152688       0.00006438
F        4.96187793       3.50857420       5.82628323      -0.00205769      -0.00150324      -0.00001996
F        4.16284824       1.24857604       4.44231611      -0.00098608       0.00153257       0.00179172
F        2.56476516       3.50857045       7.21025625       0.00099224      -0.00152737      -0.00177485
F        2.56477204       3.50857699       4.44231599       0.00104047      -0.00147858       0.00179878
F        4.16284039       1.24857417       7.21025834      -0.00105022       0.00151248      -0.00176415
