9
Lattice="5.7514283609480366 6.482014426176342e-09 3.3205886932045257 1.9171428159312294 5.422499022589528 3.320588653649247 1.2985201495622758e-07 4.3374109531513155e-08 6.641177161498742" Properties=species:S:1:pos:R:3:forces:R:3 energy=-38.05847930908203 free_energy=-38.05847930908203 stress="-1.5197875654848758e-05 -1.1399228583286458e-07 -7.111214017641032e-08 -1.1399228583286458e-07 -1.532276837679092e-05 -1.8460227124705852e-08 -7.111214017641032e-08 -1.8460227124705852e-08 -1.519016132078832e-05" pbc="T T T"
Nb       1.91714040       1.35562802       3.32058658      -0.00002897       0.00002990      -0.00002045
Nb       5.75143146       4.06687432       9.96176824       0.00003200      -0.00000486       0.00002317
Sb      -0.00000030      -0.00000005      -0.00000029       0.00000197      -0.00000077       0.00000373
Se       2.13360200       1.50868492       6.64117817      -0.00041679      -0.00028524       0.00000903
Se       5.53496931       3.91381288       6.64117663       0.00042382       0.00027774      -0.00000893
Se       4.68462813       1.50868561       5.16834294       0.00022277      -0.00028984      -0.00035495
Se       2.98394308       3.91381288       8.11401195      -0.00022587       0.00028342       0.00036004
Se       2.98394338       3.91381338       5.16834307      -0.00021882       0.00029220      -0.00036201
Se       4.68462775       1.50868433       8.11401085       0.00021030      -0.00030218       0.00035048
