9
Lattice="6.778174515099249 4.64789511766332e-09 3.9133806830217432 2.259391507965887 6.390524242665012 3.913380685531962 -2.362628123819515e-08 -1.3631947975711935e-08 7.826761406965384" Properties=species:S:1:pos:R:3:forces:R:3 energy=-26.438997268676758 free_energy=-26.438997268676758 stress="0.00018849162734113634 4.962203981051516e-09 -5.9289533282935736e-09 4.962203981051516e-09 0.00018847783212549984 1.0007418893565045e-08 -5.9289533282935736e-09 1.0007418893565045e-08 0.00018848686886485666" pbc="T T T"
Nb       2.25939218       1.59763085       3.91338084       0.00000286       0.00000049      -0.00000086
Nb       6.77817398       4.79289297      11.74014200      -0.00000146      -0.00000109       0.00000008
Sb       0.00000026       0.00000012      -0.00000025      -0.00000173      -0.00000130       0.00000144
I        2.38473655       1.68626336       7.82676149      -0.00163369      -0.00115567       0.00000044
I        6.65282924       4.70426134       7.82676146       0.00163446       0.00115704      -0.00000002
I        5.58580622       1.68626367       5.97862336       0.00081721      -0.00115599      -0.00141675
I        3.45175962       4.70426083       9.67489958      -0.00081681       0.00115662       0.00141601
I        3.45175984       4.70426026       5.97862267      -0.00081689       0.00115415      -0.00141656
I        5.58580612       1.68626355       9.67489997       0.00081601      -0.00115426       0.00141621
