9
Lattice="5.761333923985204 -7.299811068135543e-08 3.326307735286622 1.9204445925819649 5.431837985559355 3.3263077005125616 -1.470048907079029e-07 -1.4653753898076812e-07 6.652615725193169" Properties=species:S:1:pos:R:3:forces:R:3 energy=-35.442203521728516 free_energy=-35.442203521728516 stress="-0.00011283439380349591 -3.3494714557491534e-08 5.0795829764638256e-08 -3.3494714557491534e-08 -0.0001127712384914048 5.68112952237243e-08 5.0795829764638256e-08 5.68112952237243e-08 -0.00011282201739959419" pbc="T T T"
Nb       1.92044153       1.35795935       3.32630565      -0.00001721       0.00000156      -0.00001659
Nb       5.76133148       4.07387927       9.97892157      -0.00001402       0.00000693      -0.00000650
Si       0.00000046      -0.00000059       0.00000030       0.00000244       0.00000195      -0.00000059
Cl       1.89720522       1.34152641       6.65261684      -0.00062913      -0.00044915       0.00000667
Cl       5.78457415       4.09031040       6.65261604       0.00063193       0.00044033       0.00000358
Cl       4.81273245       1.34152641       4.96933604       0.00031984      -0.00044787      -0.00054103
Cl       2.86904854       4.09031096       8.33589617      -0.00030744       0.00044572       0.00055021
Cl       2.86904788       4.09031187       4.96933640      -0.00030887       0.00044847      -0.00054261
Cl       4.81273181       1.34152690       8.33589560       0.00032195      -0.00044784       0.00054651
