9
Lattice="5.736939274811692 1.393532875437393e-07 3.3122235217261617 1.9123131804780724 5.408838128792269 3.3122235953545722 -6.030177361164428e-08 4.7536218391070784e-08 6.624447147898056" Properties=species:S:1:pos:R:3:forces:R:3 energy=-30.50493621826172 free_energy=-30.50493621826172 stress="4.800067836185917e-05 -4.585444557392293e-08 1.975614949412119e-10 -4.585444557392293e-08 4.7960456868167967e-05 1.1696754675938337e-08 1.975614949412119e-10 1.1696754675938337e-08 4.80183407489676e-05" pbc="T T T"
Nb       1.91231245       1.35220968       3.31222250      -0.00000836      -0.00000267      -0.00001123
Nb       5.73693983       4.05662858       9.93667069       0.00000645      -0.00000057      -0.00000098
Se       0.00000010      -0.00000017      -0.00000037      -0.00000273       0.00000081       0.00000587
Cl       1.95057269       1.37926228       6.62444795       0.00242832       0.00171451       0.00000343
Cl       5.69867980       4.02957540       6.62444694      -0.00242499      -0.00171360       0.00000190
Cl       4.76165322       1.37926370       5.00146915      -0.00120617       0.00171131       0.00209622
Cl       2.88759904       4.02957534       8.24742542       0.00120865      -0.00171521      -0.00209963
Cl       2.88759901       4.02957536       5.00146942       0.00120755      -0.00170988       0.00210352
Cl       4.76165344       1.37926314       8.24742534      -0.00120890       0.00171520      -0.00209919
