9
Lattice="4.973306249541158 6.698764801209514e-06 2.871336417317845 1.6577766812009698 4.688912625219788 2.8713336188510294 -3.662326168211777e-06 -6.017063861770508e-06 5.742679177969737" Properties=species:S:1:pos:R:3:forces:R:3 energy=-42.305259704589844 free_energy=-42.305259704589844 stress="4.4529075239552185e-05 -4.395705218485091e-06 2.8203651254443685e-06 -4.395705218485091e-06 1.3001484148844611e-05 2.936995315394597e-06 2.8203651254443685e-06 2.936995315394597e-06 4.0537001041229814e-05" pbc="T T T"
Nb       1.65729379       1.17238103       2.87090180      -0.00404309       0.00128545      -0.00367195
Nb       4.97296479       3.51633803       8.61347535      -0.00296301      -0.00294873      -0.00458055
Se       0.00014791       0.00003462       0.00017723       0.00111502       0.00026225       0.00134383
F        1.73947093       1.23007902       5.74280447       0.00108990       0.00137575       0.00125365
F        4.89171087       3.45873505       5.74289912       0.00000039      -0.00188789       0.00182859
F        4.10381579       1.23008779       4.37786350       0.00133592       0.00134563       0.00185254
F        2.52767173       3.45883403       7.10775178       0.00182988      -0.00136690       0.00043267
F        2.52753567       3.45894009       4.37782127       0.00088248      -0.00052074       0.00147927
F        4.10370475       1.23022368       7.10770214       0.00075252       0.00245477       0.00006145
