9
Lattice="5.8214061762551506 2.071140339546475e-08 3.360990417204647 1.9404687723264624 5.488474233211457 3.3609903697791172 -8.051817168032248e-09 -6.37777176658067e-08 6.721980848355449" Properties=species:S:1:pos:R:3:forces:R:3 energy=-28.20645523071289 free_energy=-28.20645523071289 stress="0.00010963391832774505 -2.4304733781121968e-09 -5.982018880246187e-09 -2.4304733781121968e-09 0.00010957916674669832 -2.9196113970897386e-08 -5.982018880246187e-09 -2.9196113970897386e-08 0.00010951493459288031" pbc="T T T"
Nb       1.94046771       1.37211793       3.36099135      -0.00000525      -0.00000122       0.00000729
Nb       5.82140816       4.11635513      10.08297217       0.00001299      -0.00000303       0.00000905
Se       0.00000023       0.00000022      -0.00000050      -0.00000082       0.00000154       0.00000700
Br       2.01738101       1.42650384       6.72198018      -0.00167608      -0.00118200      -0.00000144
Br       5.74449373       4.06197113       6.72197965       0.00166911       0.00118314      -0.00000341
Br       4.81271591       1.42650387       5.10809328       0.00083937      -0.00118054      -0.00144988
Br       2.94915812       4.06197089       8.33586842      -0.00083520       0.00117658       0.00143620
Br       2.94915830       4.06197044       5.10809388      -0.00084260       0.00118542      -0.00144699
Br       4.81271657       1.42650330       8.33586809       0.00083843      -0.00117996       0.00144234
