9
Lattice="5.908548482922781 9.97350152947847e-08 3.41130230624256 1.9695162726617317 5.570633315982776 3.4113022756608196 1.598893084112988e-07 7.560399339280972e-08 6.822604335548696" Properties=species:S:1:pos:R:3:forces:R:3 energy=-33.10688400268555 free_energy=-33.10688400268555 stress="4.567185533232987e-05 -1.0356702162539477e-08 -1.2347856070960006e-08 -1.0356702162539477e-08 4.566425923258066e-05 -2.294781964451431e-08 -1.2347856070960006e-08 -2.294781964451431e-08 4.566284769680351e-05" pbc="T T T"
Nb       1.96951785       1.39265764       3.41129956       0.00000958      -0.00000256      -0.00002180
Nb       5.90854694       4.17797584      10.23391007      -0.00001368       0.00000487       0.00002594
Sb       0.00000018       0.00000019      -0.00000005      -0.00000036      -0.00000172       0.00000033
Cl       2.04005254       1.44253518       6.82260563       0.00273111       0.00192706       0.00000820
Cl       5.83801154       4.12809899       6.82260344      -0.00272948      -0.00192496      -0.00001028
Cl       4.88852240       1.44253559       5.17803932      -0.00136283       0.00193338       0.00236087
Cl       2.98954280       4.12809768       8.46716987       0.00136502      -0.00193426      -0.00235976
Cl       2.98954383       4.12809885       5.17803911       0.00137269      -0.00192609       0.00235952
Cl       4.88852154       1.44253398       8.46716883      -0.00137205       0.00192419      -0.00236286
