9
Lattice="6.669358910424197 -2.5550561848276194e-08 3.8505561506585417 2.2231196071849646 6.287931843568113 3.850556160243371 -3.585217368177461e-08 -1.3612349181735763e-08 7.701112363414877" Properties=species:S:1:pos:R:3:forces:R:3 energy=-24.62204933166504 free_energy=-24.62204933166504 stress="0.00011701696348609403 8.544442486879689e-09 3.4867286835549294e-09 8.544442486879689e-09 0.00011701061157509685 1.5232535233167255e-09 3.4867286835549294e-09 1.5232535233167255e-09 0.00011701991752488539" pbc="T T T"
Nb       2.22311986       1.57198300       3.85055613       0.00000046       0.00000053       0.00000010
Nb       6.66935885       4.71594809      11.55166846      -0.00000033      -0.00000347      -0.00000052
Se       0.00000010       0.00000026       0.00000041       0.00000047      -0.00000024      -0.00000080
I        2.34993601       1.66165624       7.70111232      -0.00396165      -0.00279935       0.00000034
I        6.54254234       4.62627574       7.70111223       0.00396109       0.00280029      -0.00000035
I        5.49439066       1.66165594       5.88566045       0.00197958      -0.00280061      -0.00342977
I        3.39808774       4.62627581       9.51656387      -0.00197990       0.00280128       0.00343081
I        3.39808781       4.62627587       5.88566075      -0.00197946       0.00280096      -0.00343074
I        5.49439057       1.66165621       9.51656409       0.00197969      -0.00279943       0.00343090
