9
Lattice="5.886113796136341 1.2441397379028505e-07 3.398349368820825 1.9620380341477677 5.549481396262277 3.398349395141612 1.3283793648006046e-08 4.162931173919496e-08 6.7966987146334095" Properties=species:S:1:pos:R:3:forces:R:3 energy=-33.1898307800293 free_energy=-33.1898307800293 stress="4.805348362424411e-05 6.382878581234763e-08 2.3480555277899384e-09 6.382878581234763e-08 4.805651769856922e-05 -2.1016557383291e-08 2.3480555277899384e-09 -2.1016557383291e-08 4.8007641453295946e-05" pbc="T T T"
Nb       1.96203769       1.38737069       3.39834877      -0.00000253       0.00000336      -0.00000238
Nb       5.88611356       4.16211133      10.19504741       0.00000040      -0.00000079      -0.00000228
Si       0.00000024      -0.00000007       0.00000024      -0.00000190      -0.00000049       0.00000886
Br       1.99249782       1.40890858       6.79669900       0.00061136       0.00043210       0.00000008
Br       5.85565397       4.14057268       6.79669898      -0.00060815      -0.00043096       0.00000045
Br       4.88986511       1.40890856       5.12390326      -0.00030635       0.00043195       0.00053036
Br       2.95828687       4.14057264       8.46949447       0.00030993      -0.00043695      -0.00053301
Br       2.95828693       4.14057307       5.12390319       0.00030524      -0.00043307       0.00053045
Br       4.88986513       1.40890875       8.46949461      -0.00030805       0.00043480      -0.00053248
