9
Lattice="6.674097509683887 -1.5191254484892572e-08 3.8532921202431054 2.224699132386667 6.292399602434496 3.8532921604015584 -9.513470099646789e-09 4.2456853375579237e-08 7.70658425696397" Properties=species:S:1:pos:R:3:forces:R:3 energy=-26.850975036621094 free_energy=-26.850975036621094 stress="5.3620584367308766e-05 -7.810611712955051e-09 9.271194478799316e-09 -7.810611712955051e-09 5.3648680477635935e-05 5.722560203480498e-10 9.271194478799316e-09 5.722560203480498e-10 5.365680772229098e-05" pbc="T T T"
Nb       2.22469992       1.57309996       3.85329134       0.00000263       0.00000039      -0.00000314
Nb       6.67409755       4.71929981      11.55987575       0.00000107       0.00000078      -0.00000437
Sn       0.00000004       0.00000002       0.00000014       0.00000228       0.00000108      -0.00000234
I        2.32826088       1.64632942       7.70658467       0.00120086       0.00085028       0.00000064
I        6.57053549       4.64607038       7.70658445      -0.00120375      -0.00085152       0.00000160
I        5.50996659       1.64632888       5.86962567      -0.00060242       0.00084882       0.00104133
I        3.38882989       4.64607015       9.54354330       0.00059967      -0.00084796      -0.00103772
I        3.38882974       4.64607047       5.86962561       0.00060042      -0.00084971       0.00104162
I        5.50996640       1.64632938       9.54354327      -0.00060078       0.00084785      -0.00103749
