9
Lattice="6.069948064405302 2.879824282466854e-08 3.5044861360402373 2.0233160793326475 5.722801860186902 3.5044860828437607 1.4435738665764125e-07 3.6923997418900914e-08 7.008972022046168" Properties=species:S:1:pos:R:3:forces:R:3 energy=-30.517375946044922 free_energy=-30.517375946044922 stress="0.00022597469796892256 3.8572891547516974e-09 2.6315415624367233e-08 3.8572891547516974e-09 0.00022587511921301484 -3.2417553086361295e-08 2.6315415624367233e-08 -3.2417553086361295e-08 0.00022593370522372425" pbc="T T T"
Nb       2.02331524       1.43070172       3.50448522      -0.00000483       0.00000525      -0.00000458
Nb       6.06994900       4.29210043      10.51345854       0.00000533      -0.00000626      -0.00000082
Sb       0.00000012      -0.00000023       0.00000012      -0.00000205       0.00000084      -0.00000029
Br       2.12817735       1.50484937       7.00897235      -0.00065090      -0.00045720       0.00000138
Br       5.96508693       4.21795268       7.00897221       0.00065275       0.00045761       0.00000000
Br       5.00585973       1.50484877       5.34754201       0.00032614      -0.00045678      -0.00055933
Br       3.08740475       4.21795283       8.67040213      -0.00032646       0.00045663       0.00056231
Br       3.08740451       4.21795301       5.34754210      -0.00032581       0.00046003      -0.00056210
Br       5.00585961       1.50484906       8.67040224       0.00032574      -0.00046022       0.00056352
