9
Lattice="5.775323174400442 -4.6922443381365143e-08 3.334384427302022 1.925107739297049 5.445026581356065 3.334384325568568 1.082161433046265e-07 -4.8077145524880494e-08 6.668768667168142" Properties=species:S:1:pos:R:3:forces:R:3 energy=-30.15030288696289 free_energy=-30.15030288696289 stress="2.7683250891641364e-07 3.254906744132313e-08 9.634898390231683e-08 3.254906744132313e-08 6.172952815575172e-09 9.132691758395595e-08 9.634898390231683e-08 9.132691758395595e-08 2.341725178212073e-07" pbc="T T T"
Nb       1.92510922       1.36125609       3.33438508       0.00001739      -0.00000907       0.00000628
Nb       5.77532407       4.08376927      10.00315154       0.00000428      -0.00000742      -0.00001405
S       -0.00000024      -0.00000005       0.00000009       0.00000063       0.00000249       0.00000147
Cl       1.95058101       1.37926951       6.66876861       0.00164247       0.00117174      -0.00000217
Cl       5.74984947       4.06575763       6.66876926      -0.00164980      -0.00116199       0.00000202
Cl       4.80003175       1.37926905       5.02363710      -0.00082806       0.00116375       0.00142407
Cl       2.90039887       4.06575759       8.31390004       0.00082397      -0.00115907      -0.00142220
Cl       2.90039780       4.06575753       5.02363766       0.00081646      -0.00116947       0.00142848
Cl       4.80003215       1.37926934       8.31390043      -0.00082728       0.00116920      -0.00142404
