9
Lattice="6.524814386787765 6.735123844330358e-08 3.767103390409301 2.1749382122688368 6.151654201359534 3.7671033560450455 6.818082230987827e-08 6.1237065400526724e-09 7.534206662725953" Properties=species:S:1:pos:R:3:forces:R:3 energy=-25.343826293945312 free_energy=-25.343826293945312 stress="8.662221080157906e-05 -3.09756748029244e-10 1.2378044145222589e-09 -3.09756748029244e-10 8.662978507345542e-05 -1.8157840786514612e-09 1.2378044145222589e-09 -1.8157840786514612e-09 8.662383334012702e-05" pbc="T T T"
Nb       2.17493819       1.53791371       3.76710304      -0.00000010       0.00000169      -0.00000218
Nb       6.52481454       4.61374071      11.30131079      -0.00000062      -0.00000021       0.00000290
S       -0.00000021      -0.00000024      -0.00000034       0.00000037       0.00000053      -0.00000048
I        2.29652274       1.62388662       7.53420700      -0.00353655      -0.00250260       0.00000110
I        6.40323024       4.52776757       7.53420621       0.00353637       0.00250062      -0.00000063
I        5.37655352       1.62388695       5.75595041       0.00177024      -0.00250120      -0.00306219
I        3.32319917       4.52776738       9.31246325      -0.00176980       0.00250092       0.00306274
I        3.32319939       4.52776725       5.75594999      -0.00176825       0.00250073      -0.00306471
I        5.37655307       1.62388717       9.31246330       0.00176834      -0.00250043       0.00306352
