9
Lattice="4.408492560457761 1.1416135213961175e-08 2.5452443666336637 1.469497487947245 4.156366891323684 2.5452444410574144 -4.6348410112197624e-08 5.83768468105566e-08 5.090488813545139" Properties=species:S:1:pos:R:3:forces:R:3 energy=-61.791900634765625 free_energy=-61.791900634765625 stress="-4.371088289190084e-05 6.372691530032171e-08 1.213574574165932e-08 6.372691530032171e-08 -4.381739199743606e-05 -9.82721246600704e-08 1.213574574165932e-08 -9.82721246600704e-08 -4.36848022218328e-05" pbc="T T T"
Nb       1.46949793       1.03909235       2.54524436       0.00000602       0.00000271       0.00000389
Nb       4.40849258       3.11727420       7.63573443       0.00000011      -0.00000995       0.00001540
Sb      -0.00000009      -0.00000001      -0.00000002       0.00000760       0.00000214      -0.00001501
O        1.56481971       1.10649575       5.09048860      -0.00299138      -0.00210804      -0.00000146
O        4.31317009       3.04987161       5.09048853       0.00298536       0.00210631      -0.00000398
O        3.62608221       1.10649508       3.90041782       0.00148684      -0.00210625      -0.00258356
O        2.25190749       3.04987212       6.28055924      -0.00149545       0.00211334       0.00258762
O        2.25190788       3.04987199       3.90041821      -0.00149015       0.00211442      -0.00258958
O        3.62608216       1.10649484       6.28055919       0.00149098      -0.00211453       0.00258726
