9
Lattice="5.863496827111664 1.1348400355570978e-07 3.385291488880273 1.954498979172099 5.528157786231512 3.3852916104567448 -9.611806533222469e-08 8.093443176782803e-08 6.770583144241912" Properties=species:S:1:pos:R:3:forces:R:3 energy=-34.09247970581055 free_energy=-34.09247970581055 stress="-1.4464137166214641e-05 -2.852990199642136e-08 2.2665426868684335e-08 -2.852990199642136e-08 -1.4473787814495154e-05 3.0748619650466935e-08 2.2665426868684335e-08 3.0748619650466935e-08 -1.4554414519807324e-05" pbc="T T T"
Nb       1.95449964       1.38204028       3.38528974       0.00000626       0.00000489      -0.00001777
Nb       5.86349549       4.14611744      10.15587624      -0.00001288      -0.00000827       0.00000977
Sn      -0.00000001       0.00000010       0.00000003      -0.00000324      -0.00000337       0.00000600
Cl       2.00304029       1.41636365       6.77058345      -0.00080305      -0.00056806       0.00000720
Cl       5.81495542       4.11179438       6.77058271       0.00080672       0.00056833      -0.00000404
Cl       4.86197705       1.41636407       5.11997536       0.00040661      -0.00056456      -0.00069854
Cl       2.95601904       4.11179398       8.42119121      -0.00040169       0.00056325       0.00069931
Cl       2.95601995       4.11179468       5.11997549      -0.00039652       0.00057212      -0.00069988
Cl       4.86197599       1.41636328       8.42119074       0.00039783      -0.00056417       0.00069785
