9
Lattice="4.981423330704209 -7.393275624952725e-07 2.87602482959161 1.6604735620670232 4.696534576754623 2.876025149078441 -1.1776396889167174e-06 -4.414271757003354e-07 5.752051698914469" Properties=species:S:1:pos:R:3:forces:R:3 energy=-49.595848083496094 free_energy=-49.595848083496094 stress="0.0003357644018251449 -1.0212843193357912e-07 8.698298188392073e-07 -1.0212843193357912e-07 0.00033188628731295466 6.545128030666092e-07 8.698298188392073e-07 6.545128030666092e-07 0.0003354574728291482" pbc="T T T"
Nb       1.66043510       1.17409913       2.87597927      -0.00022287      -0.00020796      -0.00027291
Nb       4.98137729       3.52243589       8.62806653      -0.00025762       0.00021802      -0.00005458
Si       0.00001062      -0.00000048       0.00000970       0.00012123       0.00000130       0.00006271
F        1.45619171       1.02966602       5.75206391      -0.00335282      -0.00245220       0.00006307
F        5.18572840       3.66686501       5.75205428       0.00346632       0.00244161       0.00002665
F        4.25334578       1.02966889       4.13712068       0.00177436      -0.00243773      -0.00290968
F        2.38857289       3.66686354       7.36699767      -0.00165168       0.00243665       0.00299947
F        2.38857768       3.66686782       4.13711993      -0.00163240       0.00244883      -0.00290807
F        4.25334524       1.02966630       7.36699627       0.00175553      -0.00244855       0.00299309
