9
Lattice="4.956265091668546 2.6683638985388836e-07 2.8615010982652698 1.6520885300523815 4.672811981389688 2.861501246204767 8.347982728432986e-09 1.8709107460060906e-07 5.723002182071435" Properties=species:S:1:pos:R:3:forces:R:3 energy=-47.46059036254883 free_energy=-47.46059036254883 stress="6.0123606090201065e-05 -5.942508352063669e-08 2.5560495942045236e-08 -5.942508352063669e-08 5.9575148043222725e-05 5.554997173362608e-08 2.5560495942045236e-08 5.554997173362608e-08 5.973366569378413e-05" pbc="T T T"
Nb       1.65208426       1.16820697       2.86150656      -0.00002502       0.00002386       0.00003404
Nb       4.95626747       3.50460478       8.58450508       0.00001291      -0.00003007       0.00001572
Sn       0.00000006      -0.00000007       0.00000046       0.00000163      -0.00000327       0.00000103
F        1.73035568       1.22354926       5.72299957       0.00163987       0.00117874      -0.00001639
F        4.87799854       3.44926310       5.72300035      -0.00163781      -0.00117968      -0.00000839
F        4.09108669       1.22354826       4.36003320      -0.00082220       0.00117689       0.00142507
F        2.51726637       3.44926582       7.08596952       0.00082044      -0.00116480      -0.00143617
F        2.51726720       3.44926427       4.36003349       0.00082220      -0.00117451       0.00142284
F        4.09108837       1.22354758       7.08596971      -0.00081181       0.00117265      -0.00143775
