9
Lattice="4.848382882748672 6.852462876357551e-06 2.79921779868609 1.616132732091907 4.571101691915031 2.7992201474373912 1.7554057275161815e-06 4.117884122493041e-06 5.5984325569204" Properties=species:S:1:pos:R:3:forces:R:3 energy=-42.97879409790039 free_energy=-42.97879409790039 stress="-0.00014202813326846808 -1.6200656318687834e-06 -9.632274213799974e-07 -1.6200656318687834e-06 -0.0001413253485225141 -7.159945880630403e-07 -9.632274213799974e-07 -7.159945880630403e-07 -0.00014622649177908897" pbc="T T T"
Nb       1.61610206       1.14279563       2.79921537      -0.00025190       0.00012435      -0.00001310
Nb       4.84838886       3.42837674       8.39767411       0.00004060       0.00034017       0.00015883
S        0.00000234      -0.00000649      -0.00000312       0.00003439      -0.00007603      -0.00000154
F        1.65944320       1.17339866       5.59843846       0.00679505       0.00470251       0.00002244
F        4.80508459       3.39769562       5.59842752      -0.00668913      -0.00485623      -0.00008359
F        4.01868712       1.17338922       4.23635717      -0.00327155       0.00467032       0.00595742
F        2.44584021       3.39771301       6.96052248       0.00329825      -0.00476605      -0.00591815
F        2.44584985       3.39771138       4.23634097       0.00339210      -0.00474060       0.00586712
F        4.01867037       1.17337840       6.96050921      -0.00334814       0.00460118      -0.00598913
