9
Lattice="5.045947431387218 -3.871234126201381e-07 2.913279043388288 1.681982297347667 4.7573630053565354 2.9132787226089443 3.8925840139249887e-07 -1.1762564351610909e-07 5.826557412561215" Properties=species:S:1:pos:R:3:forces:R:3 energy=-46.42688751220703 free_energy=-46.42688751220703 stress="0.0002655710559338331 2.2009625411101297e-07 -1.678668724025556e-07 2.2009625411101297e-07 0.0002662849146872759 -1.4709392814893363e-07 -1.678668724025556e-07 -1.4709392814893363e-07 0.00026610918575897813" pbc="T T T"
Nb       1.68198802       1.18933940       2.91327927       0.00003682      -0.00001222       0.00000306
Nb       5.04594413       3.56802583       8.73984184      -0.00002507       0.00002911       0.00003320
Sb       0.00000004      -0.00000006       0.00000087      -0.00000122       0.00000092      -0.00001285
F        1.76577832       1.24858841       5.82655772       0.00168310       0.00116584      -0.00000171
F        4.96215225       3.50877303       5.82655562      -0.00168072      -0.00117029      -0.00001450
F        4.16305806       1.24859140       4.44248365      -0.00085136       0.00118878       0.00144583
F        2.56487071       3.50877176       7.21062946       0.00083630      -0.00118183      -0.00144967
F        2.56487203       3.50877119       4.44248346       0.00085209      -0.00118916       0.00144464
F        4.16305730       1.24858938       7.21062961      -0.00084998       0.00116880      -0.00144804
