9
Lattice="6.778055951879469 1.0795515921084674e-08 3.9133123941815704 2.2593520040421398 6.390412422271065 3.9133123770269833 7.111160324972735e-08 2.9273508069423098e-08 7.826624665194262" Properties=species:S:1:pos:R:3:forces:R:3 energy=-26.43899917602539 free_energy=-26.43899917602539 stress="0.00017874852346722037 1.0400621697215229e-08 7.331116602671273e-09 1.0400621697215229e-08 0.00017875042976811528 -1.5162698874249259e-09 7.331116602671273e-09 -1.5162698874249259e-09 0.00017874901823233813" pbc="T T T"
Nb       2.25935238       1.59760347       3.91331217       0.00000229       0.00000122      -0.00000016
Nb       6.77805551       4.79280904      11.73993703      -0.00000231      -0.00000154      -0.00000180
Sb      -0.00000013       0.00000032       0.00000018      -0.00000044      -0.00000107      -0.00000046
I        2.38469457       1.68623360       7.82662480      -0.00156819      -0.00110835       0.00000005
I        6.65271353       4.70417863       7.82662477       0.00156884       0.00110886       0.00000094
I        5.58570876       1.68623357       5.97851810       0.00078290      -0.00110747      -0.00135744
I        3.45169942       4.70417875       9.67473112      -0.00078333       0.00110813       0.00135847
I        3.45169949       4.70417863       5.97851823      -0.00078347       0.00110788      -0.00135837
I        5.58570861       1.68623385       9.67473133       0.00078367      -0.00110772       0.00135877
