9
Lattice="6.271143801058238 -1.0634318392625877e-07 3.6206465463641146 2.090381168394648 5.912490976550918 3.6206465435295043 -6.641024311139946e-08 -5.043078350319743e-08 7.241293207754119" Properties=species:S:1:pos:R:3:forces:R:3 energy=-35.193695068359375 free_energy=-35.193695068359375 stress="-6.139995093690231e-05 -2.834641676940919e-08 -1.462164256338383e-08 -2.834641676940919e-08 -6.134853174444288e-05 3.9248426730864594e-08 -1.462164256338383e-08 3.9248426730864594e-08 -6.135654984973371e-05" pbc="T T T"
Nb       2.09038136       1.47812287       3.62064688       0.00000214      -0.00000095       0.00000221
Nb       6.27114403       4.43436878      10.86193923       0.00000264       0.00000452      -0.00000304
Sb      -0.00000009       0.00000014       0.00000034       0.00000151      -0.00000073      -0.00000515
Te       2.26624540       1.60247713       7.24129280      -0.00572731      -0.00405176      -0.00000211
Te       6.09527981       4.31001361       7.24129342       0.00572383       0.00404884       0.00000146
Te       5.13802095       1.60247712       5.58327295       0.00286449      -0.00405107      -0.00495980
Te       3.22350379       4.31001292       8.89931342      -0.00286809       0.00405352       0.00496523
Te       3.22350354       4.31001350       5.58327265      -0.00286354       0.00404825      -0.00495946
Te       5.13802078       1.60247719       8.89931346       0.00286455      -0.00405054       0.00496053
