9
Lattice="5.637479894139576 -5.560020697425473e-08 3.254800490031351 1.8791598688417839 5.315066962850534 3.2548005652907515 -1.0015306034410846e-07 2.135464918290839e-08 6.5096011535329055" Properties=species:S:1:pos:R:3:forces:R:3 energy=-41.411537170410156 free_energy=-41.411537170410156 stress="5.844099632668076e-06 1.8069174601009763e-08 -5.2938069927677134e-08 1.8069174601009763e-08 5.878328920516651e-06 -5.5333771342702676e-08 -5.2938069927677134e-08 -5.5333771342702676e-08 5.936442448728485e-06" pbc="T T T"
Nb       1.87915846       1.32876559       3.25480207      -0.00001809      -0.00001605       0.00002175
Nb       5.63747995       3.98630032       9.76440012       0.00000429       0.00000296      -0.00001994
Sb      -0.00000011       0.00000001       0.00000002       0.00000413      -0.00000158      -0.00000014
S        1.99127117       1.40804095       6.50960086       0.00074732       0.00052691      -0.00000625
S        5.52536861       3.90702616       6.50960232      -0.00075120      -0.00052822       0.00001387
S        4.64184443       1.40804108       4.97929205      -0.00037253       0.00052851       0.00065088
S        2.87479565       3.90702663       8.03990975       0.00037810      -0.00051731      -0.00065446
S        2.87479513       3.90702563       4.97929171       0.00037310      -0.00052810       0.00064862
S        4.64184541       1.40804139       8.03990994      -0.00036517       0.00053298      -0.00065368
