9
Lattice="6.004427459379275 1.2253200387104966e-08 3.46665782179693 2.0014758470627587 5.661028366593655 3.4666577945738895 -6.934951334009542e-09 -3.8245035398350136e-08 6.933315655605537" Properties=species:S:1:pos:R:3:forces:R:3 energy=-31.49171257019043 free_energy=-31.49171257019043 stress="0.00015551043907180429 8.420652619633984e-09 1.8260204015518866e-08 8.420652619633984e-09 0.00015550621901638806 2.1947741402073007e-08 1.8260204015518866e-08 2.1947741402073007e-08 0.0001554933114675805" pbc="T T T"
Nb       2.00147517       1.41525704       3.46665776      -0.00000226       0.00000039       0.00000115
Nb       6.00442788       4.24577222      10.39997309       0.00000137       0.00000495      -0.00000314
Sn       0.00000012       0.00000019       0.00000022      -0.00000161      -0.00000486      -0.00000061
Br       2.09367772       1.48045305       6.93331504       0.00028907       0.00020146      -0.00000080
Br       5.91222591       4.18057485       6.93331583      -0.00028558      -0.00020167       0.00000217
Br       4.95758901       1.48045351       5.27983594      -0.00014128       0.00020023       0.00025064
Br       3.04831428       4.18057453       8.58679583       0.00014199      -0.00020264      -0.00024882
Br       3.04831450       4.18057454       5.27983590       0.00014159      -0.00020050       0.00024900
Br       4.95758860       1.48045338       8.58679548      -0.00014354       0.00020272      -0.00024986
