9
Lattice="4.959917774752507 -6.215163695135215e-06 2.863594476599058 1.6532998727611246 4.6762453855330355 2.8635948099171955 -8.002379981830335e-06 -5.2503078947232615e-06 5.727202813718308" Properties=species:S:1:pos:R:3:forces:R:3 energy=-44.21234893798828 free_energy=-44.21234893798828 stress="-4.7096087655518204e-05 4.222356892569223e-06 5.820213573315414e-06 4.222356892569223e-06 -3.961617039749399e-05 4.064748281962238e-06 5.820213573315414e-06 4.064748281962238e-06 -3.522798215271905e-05" pbc="T T T"
Nb       1.65354197       1.16830146       2.86349163       0.00175420      -0.00549865      -0.00076110
Nb       4.95998000       3.50644258       8.59051786       0.00050223      -0.00532674      -0.00200786
Te      -0.00002642       0.00011339       0.00003347      -0.00017301       0.00084183       0.00021955
F        1.79459245       1.26926947       5.72722795       0.00021498       0.00235575       0.00025008
F        4.81835164       3.40745974       5.72730788      -0.00206269       0.00124434       0.00083201
F        4.06252289       1.26924507       4.41778786      -0.00077625       0.00211852       0.00041861
F        2.55070514       3.40738577       7.03650741       0.00086912       0.00076139      -0.00103626
F        2.55064382       3.40741372       4.41799393       0.00037197       0.00090099       0.00179388
F        4.06252862       1.26930651       7.03670096      -0.00070094       0.00260244       0.00029103
