9
Lattice="5.827913006237418 -6.241579996197581e-08 3.3647471500195767 1.9426375949324906 5.49460891460484 3.3647471759434016 -9.59277497547262e-09 2.4966944700398488e-08 6.729494316654324" Properties=species:S:1:pos:R:3:forces:R:3 energy=-38.11979293823242 free_energy=-38.11979293823242 stress="0.00017276954895351082 4.0234446885278885e-08 -3.355721389652899e-08 4.0234446885278885e-08 0.00017280572501476854 1.297050911119868e-08 -3.355721389652899e-08 1.297050911119868e-08 0.00017283597844652832" pbc="T T T"
Nb       1.94263723       1.37365147       3.36474650      -0.00000388      -0.00000350      -0.00000105
Nb       5.82791346       4.12095653      10.09424285       0.00000274      -0.00000314       0.00000814
Ti       0.00000022       0.00000049       0.00000027      -0.00000065      -0.00000790      -0.00000770
Br       2.00497359       1.41773055       6.72949463      -0.00395100      -0.00279576      -0.00000110
Br       5.76557658       4.07687874       6.72949398       0.00396021       0.00280011      -0.00000424
Br       4.82542634       1.41773024       5.10110531       0.00197515      -0.00279157      -0.00342058
Br       2.94512437       4.07687831       8.35788272      -0.00198216       0.00280273       0.00343129
Br       2.94512447       4.07687880       5.10110523      -0.00197577       0.00279454      -0.00342421
Br       4.82542606       1.41773034       8.35788305       0.00197540      -0.00279554       0.00341941
