9
Lattice="6.82992657692819 6.173768249452112e-08 3.943259960997109 2.2766422570432425 6.439316281928768 3.9432599496920235 1.2477105373501609e-08 -5.0232103095327195e-09 7.886519900383291" Properties=species:S:1:pos:R:3:forces:R:3 energy=-24.550411224365234 free_energy=-24.550411224365234 stress="5.2709128794958815e-05 1.055113685310971e-08 -5.390108359648593e-09 1.055113685310971e-08 5.271008194540627e-05 6.309376576751902e-09 -5.390108359648593e-09 6.309376576751902e-09 5.2692616009153426e-05" pbc="T T T"
Nb       2.27664204       1.60982834       3.94325998      -0.00000160      -0.00000324       0.00000017
Nb       6.82992647       4.82948783      11.82977982      -0.00000018       0.00000259      -0.00000120
Te       0.00000018       0.00000019      -0.00000010      -0.00000217      -0.00000167      -0.00000036
I        2.41473849       1.70747745       7.88651984       0.00019860       0.00013927      -0.00000022
I        6.69183025       4.73183844       7.88651984      -0.00019595      -0.00013711       0.00000071
I        5.62255741       1.70747763       6.03448473      -0.00009918       0.00013953       0.00017174
I        3.48401154       4.73183889       9.73855524       0.00009989      -0.00013909      -0.00017142
I        3.48401144       4.73183897       6.03448469       0.00009933      -0.00013933       0.00017239
I        5.62255751       1.70747761       9.73855524      -0.00009879       0.00013903      -0.00017180
