9
Lattice="5.948289773768738 3.643361957191501e-08 3.4342467974553545 1.9827632609408616 5.608101592751116 3.4342468517239544 -7.000735340844428e-09 6.151490360828133e-08 6.868493607036357" Properties=species:S:1:pos:R:3:forces:R:3 energy=-40.540428161621094 free_energy=-40.540428161621094 stress="0.00011093990178778768 -1.618409584125402e-08 2.506722163175823e-09 -1.618409584125402e-08 0.00011091716442024335 -1.3471115778429521e-08 2.506722163175823e-09 -1.3471115778429521e-08 0.00011099487892352045" pbc="T T T"
Nb       1.98276331       1.40202567       3.43424682      -0.00000014       0.00000105      -0.00000050
Nb       5.94828959       4.20607635      10.30274076      -0.00000292      -0.00000134       0.00000391
Ta      -0.00000002      -0.00000011       0.00000016      -0.00000053       0.00000180       0.00000192
Br       2.05562786       1.45354812       6.86849357      -0.00068209      -0.00048181       0.00000087
Br       5.87542522       4.15455338       6.86849337       0.00068197       0.00048286      -0.00000076
Br       4.92047592       1.45354857       5.21447266       0.00034346      -0.00048310      -0.00059381
Br       3.01057711       4.15455327       8.52251453      -0.00034058       0.00048032       0.00058812
Br       3.01057726       4.15455304       5.21447277      -0.00034143       0.00048244      -0.00059208
Br       4.92047584       1.45354849       8.52251439       0.00034232      -0.00048232       0.00059196
