9
Lattice="5.774979849058133 -4.1046861829115476e-08 3.334186151340031 1.9249932308825781 5.444702822357618 3.3341861746144024 -1.596369209231925e-07 -8.437522079067172e-08 6.668372579179379" Properties=species:S:1:pos:R:3:forces:R:3 energy=-43.310733795166016 free_energy=-43.310733795166016 stress="6.392117211362347e-05 -6.296508558989444e-08 5.379266809768524e-08 -6.296508558989444e-08 6.403352017514408e-05 2.174795010745356e-09 5.379266809768524e-08 2.174795010745356e-09 6.403151201084256e-05" pbc="T T T"
Nb       1.92499350       1.36117677       3.33418514       0.00000185       0.00000774      -0.00000897
Nb       5.77498005       4.08352676      10.00256088       0.00000413       0.00000145       0.00001408
Ta      -0.00000030      -0.00000035      -0.00000046       0.00000001       0.00000359       0.00000009
Cl       1.98858741       1.40614383       6.66837309       0.00092357       0.00065511       0.00000299
Cl       5.71138520       4.03855846       6.66837178      -0.00092614      -0.00066006      -0.00000390
Cl       4.78068597       1.40614358       5.05635381      -0.00046206       0.00065362       0.00079757
Cl       2.91928717       4.03855893       8.28039067       0.00045890      -0.00065684      -0.00080317
Cl       2.91928731       4.03855914       5.05635382       0.00046247      -0.00065446       0.00080085
Cl       4.78068537       1.40614366       8.28039094      -0.00046262       0.00064975      -0.00079983
