9
Lattice="5.027669074381019 -1.027387813067095e-07 2.902726222074612 1.6758896349109444 4.74013201389339 2.902726152249388 9.373251256931289e-08 -1.9239188949552913e-08 5.805452281799732" Properties=species:S:1:pos:R:3:forces:R:3 energy=-56.260406494140625 free_energy=-56.260406494140625 stress="0.00030819542007520795 1.7628540405212334e-08 4.876198556047484e-09 1.7628540405212334e-08 0.0003082040057051927 1.4294941896864088e-09 4.876198556047484e-09 1.4294941896864088e-09 0.00030830519972369075" pbc="T T T"
Nb       1.67588440       1.18503929       2.90272161      -0.00002770       0.00002885      -0.00002009
Nb       5.02766901       3.55510562       8.70817871      -0.00000278       0.00003167      -0.00000052
Ta       0.00000505      -0.00000169       0.00000039       0.00001214      -0.00001372       0.00000215
F        1.66541145       1.17761986       5.80545426       0.00354517       0.00249654       0.00000509
F        5.03815162       3.56250895       5.80545275      -0.00352907      -0.00250506       0.00000186
F        4.19496487       1.17761939       4.34501307      -0.00176451       0.00249058       0.00306463
F        2.50859235       3.56250737       7.26589122       0.00176594      -0.00251031      -0.00306231
F        2.50859354       3.56250812       4.34501377       0.00176853      -0.00250918       0.00306726
F        4.19496322       1.17762035       7.26589314      -0.00176761       0.00249070      -0.00305814
