9
Lattice="5.948308038804914 4.370484868152515e-08 3.4342572683995103 1.982769414859309 5.6081186864125385 3.4342572209661304 1.7356867085747976e-08 -4.5820651436632245e-08 6.868514506736043" Properties=species:S:1:pos:R:3:forces:R:3 energy=-40.54043197631836 free_energy=-40.54043197631836 stress="0.00011516839731484652 1.713271124970106e-08 -2.5760668265206732e-08 1.713271124970106e-08 0.00011515832011355087 3.117880353897817e-08 -2.5760668265206732e-08 3.117880353897817e-08 0.00011513725621625781" pbc="T T T"
Nb       1.98276944       1.40202958       3.43425732       0.00000029      -0.00000006       0.00000066
Nb       5.94830790       4.20608918      10.30277193      -0.00000018       0.00000002       0.00000022
Ta       0.00000008      -0.00000011       0.00000014      -0.00000299       0.00000134       0.00000297
Br       2.05563141       1.45355068       6.86851441      -0.00070488      -0.00049797       0.00000005
Br       5.87544603       4.15456788       6.86851444       0.00070691       0.00050005       0.00000046
Br       4.92049238       1.45355105       5.21448619       0.00035325      -0.00049993      -0.00061208
Br       3.01058495       4.15456779       8.52254297      -0.00035083       0.00049603       0.00060746
Br       3.01058510       4.15456779       5.21448612      -0.00035188       0.00049680      -0.00060827
Br       4.92049256       1.45355087       8.52254255       0.00035053      -0.00049612       0.00060797
