9
Lattice="6.633134811770699 4.0503597491354605e-08 3.8296422532924983 2.2110449840497624 6.253779574373267 3.829642238386985 2.676177608494791e-08 6.679775953829722e-10 7.659284460232232" Properties=species:S:1:pos:R:3:forces:R:3 energy=-35.09474563598633 free_energy=-35.09474563598633 stress="0.00019855130813084543 1.999940435482017e-09 3.051331853853867e-09 1.999940435482017e-09 0.00019854441052302718 -3.1184517190752103e-09 3.051331853853867e-09 -3.1184517190752103e-09 0.000198561858269386" pbc="T T T"
Nb       2.21104494       1.56344460       3.82964199      -0.00000020      -0.00000055      -0.00000046
Nb       6.63313467       4.69033547      11.48892722      -0.00000021       0.00000238       0.00000045
Ta      -0.00000011      -0.00000006       0.00000000      -0.00000122      -0.00000129      -0.00000159
I        2.24950474       1.59063991       7.65928436      -0.00073469      -0.00052074       0.00000078
I        6.59467503       4.66313940       7.65928448       0.00073609       0.00052088       0.00000008
I        5.50838233       1.59064004       5.77777035       0.00036731      -0.00052091      -0.00063694
I        3.33579749       4.66313958       9.54079861      -0.00036828       0.00052124       0.00063750
I        3.33579763       4.66313951       5.77777034      -0.00036708       0.00052072      -0.00063691
I        5.50838255       1.59064003       9.54079839       0.00036818      -0.00052166       0.00063711
