9
Lattice="5.946497444760534 1.6943721120187338e-08 3.4332117000424907 1.9821657343135646 5.606411545928921 3.4332118673262384 -1.8314669326679472e-07 7.537559795237971e-08 6.866423717304366" Properties=species:S:1:pos:R:3:forces:R:3 energy=-30.45209503173828 free_energy=-30.45209503173828 stress="0.0001071836450137198 5.297601290976672e-08 1.1116688902745864e-08 5.297601290976672e-08 0.00010718161502154544 1.7893887260811425e-08 1.1116688902745864e-08 1.7893887260811425e-08 0.00010718449630076066" pbc="T T T"
Nb       1.98216738       1.40160351       3.43321400       0.00001286       0.00000452       0.00002089
Nb       5.94649555       4.20480739      10.29963269      -0.00001506      -0.00001366      -0.00002067
Te      -0.00000004       0.00000038       0.00000020      -0.00000072      -0.00000323       0.00000083
Cl       2.04865296       1.44861681       6.86642262       0.00497630       0.00351705      -0.00000643
Cl       5.88000982       4.15779478       6.86642476      -0.00497386      -0.00351351       0.00000808
Cl       4.92217025       1.44861665       5.20739665      -0.00249667       0.00352401       0.00430897
Cl       3.00649293       4.15779508       8.52545054       0.00249647      -0.00351851      -0.00431108
Cl       3.00649206       4.15779445       5.20739656       0.00248876      -0.00352518       0.00430912
Cl       4.92217117       1.44861759       8.52545112      -0.00248814       0.00352855      -0.00430980
