9
Lattice="4.889338657389831 -1.9059255503292816e-07 2.822860788721714 1.6297794029052648 4.609711818084095 2.822860736527427 -2.3511561176842587e-08 -8.054992463459849e-08 5.645721618166748" Properties=species:S:1:pos:R:3:forces:R:3 energy=-55.03431701660156 free_energy=-55.03431701660156 stress="0.0003307542356196791 3.981136487141157e-08 4.0223248731763306e-08 3.981136487141157e-08 0.0003310978354420513 -2.442687607739913e-09 4.0223248731763306e-08 -2.442687607739913e-09 0.00033092821831814945" pbc="T T T"
Nb       1.62978726       1.15242377       2.82285708       0.00005168      -0.00002851      -0.00002581
Nb       4.88933833       3.45729589       8.46857577      -0.00000041       0.00008505      -0.00004673
Ti      -0.00000122      -0.00000035       0.00000085      -0.00000118      -0.00000307       0.00000561
F        1.62862281       1.15160497       5.64572328       0.00189203       0.00131180       0.00001263
F        4.89049473       3.45810495       5.64572362      -0.00189874      -0.00132328       0.00001677
F        4.07502506       1.15160462       4.23329044      -0.00096072       0.00130525       0.00164419
F        2.44409151       3.45810360       7.05815671       0.00094753      -0.00133481      -0.00162290
F        2.44408894       3.45810285       4.23328972       0.00093278      -0.00132901       0.00164074
F        4.07502468       1.15160599       7.05815519      -0.00096304       0.00131673      -0.00162463
