9
Lattice="6.203035640799469 -3.4953318671228345e-08 3.5813243865084092 2.0676785804029767 5.848277632707143 3.58132427145844 3.6605342448952745e-07 1.1793205560228283e-07 7.1626481389936805" Properties=species:S:1:pos:R:3:forces:R:3 energy=-27.85967254638672 free_energy=-27.85967254638672 stress="3.0360248274519108e-05 6.630340010360669e-08 -2.1774038572175414e-08 6.630340010360669e-08 3.035175359400455e-05 -2.831119338964072e-08 -2.1774038572175414e-08 -2.831119338964072e-08 3.0389173844014294e-05" pbc="T T T"
Nb       2.06768215       1.46207127       3.58132336       0.00002283       0.00001120      -0.00000338
Nb       6.20303635       4.38620856      10.74397456       0.00000143       0.00000214       0.00001403
Te       0.00000002       0.00000028       0.00000072      -0.00000734      -0.00000296      -0.00001005
Br       2.17631173       1.53888416       7.16264868      -0.00417054      -0.00294970       0.00000366
Br       6.09440200       4.30939348       7.16264711       0.00417295       0.00295304      -0.00000611
Br       5.11487932       1.53888436       5.46606466       0.00207888      -0.00294632      -0.00361234
Br       3.15583347       4.30939295       8.85923214      -0.00209045       0.00294352       0.00361174
Br       3.15583413       4.30939180       5.46606385      -0.00208497       0.00294161      -0.00361377
Br       5.11487936       1.53888402       8.85923233       0.00207707      -0.00295258       0.00361609
