9
Lattice="5.0272146601871155 -1.1775250868156474e-07 2.90246364280188 1.6757381706667396 4.739702065825224 2.9024635360684754 -3.3082267689711876e-07 -3.646480482755707e-07 5.80492785860533" Properties=species:S:1:pos:R:3:forces:R:3 energy=-56.26042556762695 free_energy=-56.26042556762695 stress="0.00021669911802746356 -6.584706113699212e-08 4.7172299844078225e-08 -6.584706113699212e-08 0.00021688734705094248 8.069307710911744e-08 4.7172299844078225e-08 8.069307710911744e-08 0.00021665521489921957" pbc="T T T"
Nb       1.67573610       1.18490964       2.90246759      -0.00001204      -0.00007275       0.00001746
Nb       5.02721630       3.55477400       8.70738805       0.00000817      -0.00001269      -0.00001440
Ta       0.00000496       0.00000590       0.00000011       0.00000843       0.00002606      -0.00000415
F        1.66550667       1.17769101       5.80492519       0.00287390       0.00203651      -0.00000613
F        5.03744720       3.56201815       5.80492860      -0.00286388      -0.00200558       0.00000449
F        4.19446015       1.17768659       4.34483526      -0.00143883       0.00202495       0.00248659
F        2.50848852       3.56201651       7.26501819       0.00142920      -0.00200999      -0.00248867
F        2.50848793       3.56201532       4.34483582       0.00142711      -0.00201559       0.00248808
F        4.19446195       1.17768919       7.26502100      -0.00143218       0.00202918      -0.00248367
