9
Lattice="6.633217977146259 4.830459061701373e-08 3.829690188977364 2.2110727073910046 6.253857742508343 3.8296901841271977 5.804219242845884e-08 3.5101820632916446e-08 7.659380277422689" Properties=species:S:1:pos:R:3:forces:R:3 energy=-35.09474563598633 free_energy=-35.09474563598633 stress="0.00020414787286426872 1.0247539705687814e-08 -4.478740045499308e-09 1.0247539705687814e-08 0.00020413537276908755 -1.7215860959041152e-09 -4.478740045499308e-09 -1.7215860959041152e-09 0.00020415823382791132" pbc="T T T"
Nb       2.21107272       1.56346439       3.82969061      -0.00000077      -0.00000027       0.00000362
Nb       6.63321810       4.69039416      11.48907106       0.00000248       0.00000316       0.00000176
Ta      -0.00000010      -0.00000025      -0.00000024      -0.00000204       0.00000125      -0.00000181
I        2.24951365       1.59064631       7.65938019      -0.00069577      -0.00049287      -0.00000097
I        6.59477706       4.66321140       7.65938002       0.00069541       0.00049189      -0.00000030
I        5.50846109       1.59064610       5.77782603       0.00034820      -0.00049388      -0.00060335
I        3.33582936       4.66321146       9.54093458      -0.00034824       0.00049271       0.00060156
I        3.33582976       4.66321131       5.77782601      -0.00034828       0.00049168      -0.00060222
I        5.50846131       1.59064643       9.54093432       0.00034884      -0.00049356       0.00060165
