9
Lattice="6.563197876643394 -1.0455343763999274e-08 3.7892640381118814 2.187732618422118 6.187842155186952 3.7892640333803977 5.405399045361867e-10 -5.412593770254514e-09 7.578528075287473" Properties=species:S:1:pos:R:3:forces:R:3 energy=-32.692447662353516 free_energy=-32.692447662353516 stress="8.267158409580588e-05 7.240112065431958e-09 -7.934763068817574e-09 7.240112065431958e-09 8.266201621154323e-05 -2.913046248664841e-09 -7.934763068817574e-09 -2.913046248664841e-09 8.26507166493684e-05" pbc="T T T"
Nb       2.18773250       1.54696071       3.78926401      -0.00000108       0.00000155      -0.00000017
Nb       6.56319768       4.64088154      11.36779282      -0.00000191       0.00000045       0.00000443
Ti       0.00000024      -0.00000007      -0.00000025      -0.00000040       0.00000044       0.00000126
I        2.21757724       1.56806393       7.57852805       0.00059263       0.00041901       0.00000206
I        6.53335330       4.61977826       7.57852775      -0.00059009      -0.00041737      -0.00000057
I        5.45440923       1.56806402       5.70974236      -0.00029414       0.00041634       0.00051101
I        3.29652096       4.61977846       9.44731381       0.00029759      -0.00042143      -0.00051606
I        3.29652134       4.61977812       5.70974212       0.00029599      -0.00041821       0.00051209
I        5.45440946       1.56806360       9.44731398      -0.00029859       0.00041926      -0.00051396
