9
Lattice="5.67217086963522 -4.505558377191745e-08 3.2748292627207887 1.8907236016219204 5.347773864648445 3.2748292265400014 -6.168160010014599e-08 -8.792775616237884e-08 6.549658632277263" Properties=species:S:1:pos:R:3:forces:R:3 energy=-40.712425231933594 free_energy=-40.712425231933594 stress="-0.0002954070223495364 -5.0467274803622786e-08 9.376382337222822e-09 -5.0467274803622786e-08 -0.00029523565899580717 -1.841228502996728e-08 9.376382337222822e-09 -1.841228502996728e-08 -0.00029530786559917033" pbc="T T T"
Nb       1.89072417       1.33694543       3.27482808       0.00000408       0.00001761      -0.00001489
Nb       5.67217082       4.01082773       9.82449169       0.00000170      -0.00002548       0.00002972
Ti      -0.00000006      -0.00000002      -0.00000018      -0.00000148      -0.00000162      -0.00000302
Cl       1.94830620       1.37766151       6.54965921       0.00137909       0.00098205       0.00000325
Cl       5.61458761       3.97011252       6.54965728      -0.00138111      -0.00097746      -0.00001185
Cl       4.69801778       1.37766213       4.96211188      -0.00068917       0.00098895       0.00119238
Cl       2.86487651       3.97011182       8.13720425       0.00068368      -0.00097989      -0.00119157
Cl       2.86487765       3.97011235       4.96211232       0.00069331      -0.00097874       0.00118789
Cl       4.69801702       1.37766145       8.13720382      -0.00069024       0.00097451      -0.00119202
