9
Lattice="5.613415856584596 9.253076595812652e-08 3.240907232305733 1.8711386410990536 5.292379302367222 3.2409073448913315 -2.3084128169613975e-08 1.2156571136384586e-07 6.481814504594319" Properties=species:S:1:pos:R:3:forces:R:3 energy=-41.250244140625 free_energy=-41.250244140625 stress="0.00043512051342986524 -9.597418859641493e-09 -4.6280668186682306e-08 -9.597418859641493e-09 0.00043514673598110676 -9.903068587391317e-09 -4.6280668186682306e-08 -9.903068587391317e-09 0.0004352325922809541" pbc="T T T"
Nb       1.87113932       1.32309400       3.24090810       0.00000146      -0.00000619       0.00000953
Nb       5.61341739       3.96928584       9.72271874       0.00001514       0.00000885      -0.00002725
V       -0.00000003       0.00000005      -0.00000015       0.00000086       0.00000034      -0.00000172
Cl       1.90293686       1.34557970       6.48181454      -0.00214423      -0.00151523      -0.00000407
Cl       5.58161731       3.94680015       6.48181576       0.00214032       0.00151965       0.00000951
Cl       4.66194677       1.34557852       4.88889896       0.00106405      -0.00152142      -0.00185199
Cl       2.82260717       3.94679984       8.07473052      -0.00106955       0.00151617       0.00185650
Cl       2.82260575       3.94680022       4.88889957      -0.00108099       0.00151584      -0.00184778
Cl       4.66194737       1.34557980       8.07473036       0.00107304      -0.00151799       0.00185728
