9
Lattice="4.936664458339537 6.543262109411173e-06 2.850190831703588 1.6455604241567128 4.654339577308447 2.850191809156011 3.6852891027473462e-06 3.803026315367886e-06 5.700375280298314" Properties=species:S:1:pos:R:3:forces:R:3 energy=-53.17062759399414 free_energy=-53.17062759399414 stress="-5.942714778939262e-05 -1.4264254559748224e-06 -1.34980018628994e-06 -1.4264254559748224e-06 -5.966020398773253e-05 -1.0099711289512925e-06 -1.34980018628994e-06 -1.0099711289512925e-06 -6.316933286143467e-05" pbc="T T T"
Nb       1.64528513       1.16360846       2.85010691      -0.00183151       0.00011941      -0.00058433
Nb       4.93662108       3.49086267       8.55064780      -0.00026159       0.00065015       0.00056584
V        0.00002210      -0.00000241      -0.00000409       0.00025189      -0.00015680       0.00003843
F        1.60180560       1.13258610       5.70040189       0.00475779       0.00297484       0.00019051
F        4.98050158       3.52167095       5.70035491      -0.00423488      -0.00353941      -0.00019087
F        4.13588374       1.13262337       4.23740978      -0.00164317       0.00316092       0.00428617
F        2.44645668       3.52171206       7.16339407       0.00231048      -0.00319722      -0.00393680
F        2.44648795       3.52174789       4.23737634       0.00253579      -0.00298601       0.00395441
F        4.13585150       1.13259093       7.16334160      -0.00188461       0.00297412      -0.00432333
