9
Lattice="6.454351702141274 -3.6973966290142705e-08 3.726421785466268 2.151450540222005 6.085221246522101 3.7264217721277757 -3.059453304749117e-08 -3.796984091483807e-08 7.45284362392382" Properties=species:S:1:pos:R:3:forces:R:3 energy=-33.201026916503906 free_energy=-33.201026916503906 stress="0.00020017800852656364 -4.374211659552429e-09 -3.951861948792157e-09 -4.374211659552429e-09 0.0002001977409236133 -8.575500309859763e-09 -3.951861948792157e-09 -8.575500309859763e-09 0.00020018864597659558" pbc="T T T"
Nb       2.15145049       1.52130508       3.72642186      -0.00000023      -0.00000241       0.00000077
Nb       6.45435171       4.56391604      11.17926670       0.00000008       0.00000160       0.00000711
V       -0.00000025       0.00000024       0.00000030       0.00000198      -0.00000311      -0.00000561
I        2.17499740       1.53795523       7.45284350      -0.00261935      -0.00185334      -0.00000072
I        6.43080465       4.54726578       7.45284314       0.00261981       0.00185409      -0.00000352
I        5.36685326       1.53795540       5.61002455       0.00130865      -0.00185010      -0.00226776
I        3.23894913       4.54726554       9.29566197      -0.00131375       0.00185608       0.00227062
I        3.23894943       4.54726590       5.61002469      -0.00130855       0.00185280      -0.00226986
I        5.36685302       1.53795547       9.29566206       0.00131141      -0.00185562       0.00226900
