9
Lattice="5.620210093680181 -1.724802300746941e-08 3.2448298233444404 1.8734033568157022 5.2987848738227745 3.2448298085921037 2.8241111288710704e-08 1.901661551367156e-09 6.489659597773816" Properties=species:S:1:pos:R:3:forces:R:3 energy=-42.33929443359375 free_energy=-42.33929443359375 stress="6.085536733735353e-05 -1.7054352374756832e-09 -2.5289489613555816e-08 -1.7054352374756832e-09 6.08343725616578e-05 1.8781580735094394e-08 -2.5289489613555816e-08 1.8781580735094394e-08 6.0884554841322824e-05" pbc="T T T"
Nb       1.87340186       1.32469699       3.24483009      -0.00001316       0.00000856       0.00000441
Nb       5.62021118       3.97408859       9.73448775       0.00001047      -0.00000431      -0.00001596
W        0.00000008       0.00000002       0.00000033       0.00000054      -0.00000314       0.00000117
Cl       1.94422505       1.37477561       6.48965909       0.00042619       0.00030584      -0.00000320
Cl       5.54938852       3.92400898       6.48965975      -0.00042338      -0.00030843       0.00000688
Cl       4.64809782       1.37477485       4.92857896      -0.00021348       0.00030156       0.00037787
Cl       2.84551626       3.92400949       8.05074127       0.00021575      -0.00030335      -0.00037126
Cl       2.84551537       3.92400967       4.92857876       0.00020766      -0.00030463       0.00037459
Cl       4.64809780       1.37477515       8.05074090      -0.00021075       0.00030800      -0.00037448
