9
Lattice="4.968703228061064 -3.5571371494940804e-08 2.8686812237209294 1.6562344013196337 4.684537278865331 2.868681179548463 3.637677038744937e-07 2.0312261124636734e-07 5.737361817377699" Properties=species:S:1:pos:R:3:forces:R:3 energy=-51.40971755981445 free_energy=-51.40971755981445 stress="2.2292564608505927e-05 1.2465966392483097e-07 -4.628924354932451e-09 1.2465966392483097e-07 2.2889380488777533e-05 1.829215001691864e-09 -4.628924354932451e-09 1.829215001691864e-09 2.2690859623253345e-05" pbc="T T T"
Nb       1.65623365       1.17112888       2.86870577      -0.00000034      -0.00003723       0.00015239
Nb       4.96868640       3.51341368       8.60606707      -0.00010817       0.00006508       0.00015038
W        0.00000176      -0.00000094      -0.00000375       0.00001230      -0.00000363      -0.00002934
F        1.67351071       1.18334305       5.73735119      -0.00127971      -0.00095356      -0.00006085
F        4.95143064       3.50119222       5.73735340       0.00130683       0.00093243      -0.00005192
F        4.13194967       1.18335012       4.31797283       0.00064880      -0.00091645      -0.00117052
F        2.49299126       3.50119242       7.15673897      -0.00063357       0.00094301       0.00110376
F        2.49299605       3.50118837       4.31797222      -0.00061086       0.00091767      -0.00118202
F        4.13195196       1.18334248       7.15673803       0.00066498      -0.00094712       0.00108820
