9
Lattice="6.597974252766466 5.471604476409657e-08 3.8093421807268486 2.1993248359444157 6.220629804837814 3.809342122814895 4.313097945456353e-09 -6.787754073647259e-08 7.618684353983186" Properties=species:S:1:pos:R:3:forces:R:3 energy=-34.36882400512695 free_energy=-34.36882400512695 stress="9.138951281784102e-05 2.887767358572546e-08 3.298742612400929e-09 2.887767358572546e-08 9.136135486187413e-05 3.76647246724815e-09 3.298742612400929e-09 3.76647246724815e-09 9.134341962635517e-05" pbc="T T T"
Nb       2.19932490       1.55515751       3.80934188       0.00000030       0.00000020      -0.00000067
Nb       6.59797429       4.66547267      11.42802644      -0.00000065       0.00000170      -0.00000096
W        0.00000022       0.00000023       0.00000007      -0.00000187      -0.00000228       0.00000332
I        2.22816347       1.57554918       7.61868433      -0.00202835      -0.00143441       0.00000012
I        6.56913558       4.64508037       7.61868424       0.00203007       0.00143567       0.00000045
I        5.48389249       1.57554910       5.73898813       0.00101385      -0.00143405      -0.00175466
I        3.31340605       4.64508055       9.49838077      -0.00101173       0.00143088       0.00175387
I        3.31340664       4.64508056       5.73898802      -0.00101385       0.00143329      -0.00175526
I        5.48389273       1.57554897       9.49838074       0.00101225      -0.00143103       0.00175382
