9
Lattice="5.849440851891974 -1.128058061482996e-08 3.3771762961289875 1.9498135741461524 5.514905957628234 3.377176352447854 7.596238229463378e-08 1.2268978314346414e-07 6.754352460687256" Properties=species:S:1:pos:R:3:forces:R:3 energy=-39.13987350463867 free_energy=-39.13987350463867 stress="0.0001431365089956671 -4.043012324927986e-08 -5.99380243215819e-08 -4.043012324927986e-08 0.00014326098607853055 6.675946195855431e-08 -5.99380243215819e-08 6.675946195855431e-08 0.00014314921281766146" pbc="T T T"
Nb       1.94981414       1.37872585       3.37717607       0.00000066      -0.00000191      -0.00000006
Nb       5.84944112       4.13617979      10.13152887       0.00000059      -0.00000036      -0.00000065
W       -0.00000027       0.00000020       0.00000005       0.00000751      -0.00000353      -0.00000351
Br       2.03243862       1.43715150       6.75435274      -0.00304881      -0.00215843       0.00000045
Br       5.76681576       4.07775504       6.75435268       0.00304747       0.00215481      -0.00000087
Br       4.83322127       1.43715153       5.13731976       0.00152385      -0.00215507      -0.00263939
Br       2.96603315       4.07775426       8.37138497      -0.00152944       0.00216317       0.00265045
Br       2.96603234       4.07775512       5.13731995      -0.00152435       0.00215573      -0.00264099
Br       4.83322180       1.43715101       8.37138527       0.00152223      -0.00215440       0.00263467
