9
Lattice="6.755386626925899 1.957546622546899e-08 3.9002244455828516 2.2517955980328552 6.369039604473274 3.9002243810322397 4.4839554971288684e-08 -4.735169681799935e-08 7.800448813501349" Properties=species:S:1:pos:R:3:forces:R:3 energy=-32.91709899902344 free_energy=-32.91709899902344 stress="5.433852129499428e-05 -2.553782962877449e-08 -3.8808867230955e-09 -2.553782962877449e-08 5.4361644288292155e-05 -1.9478034740672e-09 -3.8808867230955e-09 -1.9478034740672e-09 5.436841456685215e-05" pbc="T T T"
Nb       2.25179495       1.59225934       3.90022489      -0.00000217      -0.00000187       0.00000267
Nb       6.75538664       4.77677846      11.70067395       0.00000096      -0.00000372       0.00000354
Y       -0.00000012       0.00000007      -0.00000027       0.00000367       0.00000216       0.00000243
I        2.36312431       1.67098138       7.80044867       0.00120296       0.00085247      -0.00000062
I        6.64405805       4.69805891       7.80044853      -0.00120882      -0.00085390      -0.00000024
I        5.57382491       1.67098170       5.94675001      -0.00060038       0.00085174       0.00104047
I        3.43335759       4.69805875       9.65414732       0.00060259      -0.00085007      -0.00104468
I        3.43335793       4.69805826       5.94674995       0.00060129      -0.00084952       0.00104008
I        5.57382481       1.67098143       9.65414752      -0.00060004       0.00085264      -0.00104357
