9
Lattice="5.900466145509013 -1.357273595430364e-07 3.406635708826026 1.9668218534094422 5.563013060346519 3.4066358250961684 -7.806546335732599e-08 8.720062599276e-08 6.8132715528654275" Properties=species:S:1:pos:R:3:forces:R:3 energy=-40.673336029052734 free_energy=-40.673336029052734 stress="0.00020535787916742265 -4.7992909202321243e-08 5.3753388407074e-09 -4.7992909202321243e-08 0.0002054346987279132 1.2635342550026962e-08 5.3753388407074e-09 1.2635342550026962e-08 0.00020545331062749028" pbc="T T T"
Nb       1.96682123       1.39075248       3.40663565      -0.00000731      -0.00000549       0.00000319
Nb       5.90046633       4.17225928      10.21990612       0.00000460      -0.00000383      -0.00001028
Y       -0.00000029       0.00000009       0.00000034       0.00000134      -0.00000084      -0.00000317
Cl       2.07749992       1.46901484       6.81327114       0.00017926       0.00013033      -0.00000023
Cl       5.78978796       4.09399827       6.81327182      -0.00018248      -0.00012854       0.00000427
Cl       4.86171572       1.46901506       5.20580396      -0.00008716       0.00012572       0.00015607
Cl       3.00557252       4.09399869       8.42073955       0.00009054      -0.00012290      -0.00015342
Cl       3.00557194       4.09399855       5.20580451       0.00008635      -0.00012210       0.00015837
Cl       4.86171626       1.46901484       8.42073933      -0.00008519       0.00012769      -0.00015453
