9
Lattice="6.720498532136035 -3.573548170166239e-08 3.8800816567928376 2.2401661814467544 6.336146772646966 3.88008159139093 -6.920282660801389e-09 -8.499407419983376e-08 7.760163325571975" Properties=species:S:1:pos:R:3:forces:R:3 energy=-33.903343200683594 free_energy=-33.903343200683594 stress="0.00023323688947129995 -7.19034787266537e-09 4.475640302814554e-09 -7.19034787266537e-09 0.00023325695656239986 -3.572860007849954e-09 4.475640302814554e-09 -3.572860007849954e-09 0.00023327053349930793" pbc="T T T"
Nb       2.24016618       1.58403692       3.88008128      -0.00000035      -0.00000001      -0.00000175
Nb       6.72049851       4.75210934      11.64024491       0.00000059      -0.00000139      -0.00000119
Zr       0.00000020      -0.00000006      -0.00000007      -0.00000006       0.00000046       0.00000064
I        2.30151639       1.62741788       7.76016344      -0.00090484      -0.00063863       0.00000066
I        6.65914861       4.70872898       7.76016330       0.00090314       0.00063898       0.00000139
I        5.56974016       1.62741790       5.87325314       0.00045335      -0.00064073      -0.00078356
I        3.39092427       4.70872897       9.64707352      -0.00045175       0.00063959       0.00078353
I        3.39092412       4.70872893       5.87325326      -0.00045285       0.00064088      -0.00078350
I        5.56974036       1.62741774       9.64707348       0.00045277      -0.00063919       0.00078368
