9
Lattice="5.839965264396188 -6.57307511334145e-08 3.3717054684260925 1.9466550417608262 5.505971896213473 3.3717054414056014 -2.5019726694175384e-08 -5.0784876388306116e-08 6.743410980187692" Properties=species:S:1:pos:R:3:forces:R:3 energy=-41.90643310546875 free_energy=-41.90643310546875 stress="8.528566104359925e-05 -7.359443543464295e-08 2.1064298749706722e-08 -7.359443543464295e-08 8.535558299627155e-05 2.4488665317790037e-08 2.1064298749706722e-08 2.4488665317790037e-08 8.53047167765908e-05" pbc="T T T"
Nb       1.94665563       1.37649266       3.37170580       0.00000616      -0.00000069       0.00000610
Nb       5.83996495       4.12947846      10.11511538      -0.00000299      -0.00000421      -0.00000838
Zr       0.00000015       0.00000007      -0.00000011       0.00000005       0.00000292       0.00000477
Cl       2.02721060       1.43345443       6.74341078       0.00709158       0.00501445      -0.00000163
Cl       5.75940976       4.07251779       6.74341131      -0.00709638      -0.00501627       0.00000497
Cl       4.82635965       1.43345448       5.12732127      -0.00354454       0.00501204       0.00613624
Cl       2.96026051       4.07251762       8.35950056       0.00354955      -0.00501227      -0.00614285
Cl       2.96026003       4.07251744       5.12732147       0.00354278      -0.00501397       0.00614199
Cl       4.82635987       1.43345425       8.35950112      -0.00354607       0.00501809      -0.00614101
