9
Lattice="5.995023412136675 7.252572696626015e-08 3.4612285767519855 1.998341176196786 5.652162642789883 3.461228627951409 -2.876231322766114e-08 4.236821530113966e-08 6.922457203321754" Properties=species:S:1:pos:R:3:forces:R:3 energy=-38.86442565917969 free_energy=-38.86442565917969 stress="0.00016780807345639914 -1.2215210176691471e-08 -5.276371339846264e-09 -1.2215210176691471e-08 0.00016781430167611688 -1.3320577529896127e-08 -5.276371339846264e-09 -1.3320577529896127e-08 0.00016782034072093666" pbc="T T T"
Nb       1.99834119       1.41304046       3.46122876      -0.00000006      -0.00000121       0.00000079
Nb       5.99502313       4.23912209      10.38368606      -0.00000113       0.00000010       0.00000023
Zr       0.00000003      -0.00000004      -0.00000032       0.00000344       0.00000309       0.00000150
Br       2.08393326       1.47356353       6.92245713      -0.00163215      -0.00115466       0.00000047
Br       5.90943141       4.17859913       6.92245710       0.00162736       0.00115123       0.00000059
Br       4.95305685       1.47356340       5.26596791       0.00081630      -0.00115453      -0.00141212
Br       3.04030767       4.17859943       8.57894664      -0.00081354       0.00115275       0.00141022
Br       3.04030793       4.17859938       5.26596772      -0.00081582       0.00115563      -0.00141355
Br       4.95305684       1.47356366       8.57894664       0.00081573      -0.00115220       0.00141165
