9
Lattice="5.020778648647864 -6.40103809404399e-07 2.8987480751900816 1.6735924449176702 4.733634790939303 2.898747788482529 -3.294051630881886e-07 -5.840682188981063e-07 5.797496720926766" Properties=species:S:1:pos:R:3:forces:R:3 energy=-55.60742950439453 free_energy=-55.60742950439453 stress="-2.804852556437254e-05 -8.986611277350676e-08 1.4168881534715183e-07 -8.986611277350676e-08 -2.8339034543023445e-05 5.666713676077961e-08 1.4168881534715183e-07 5.666713676077961e-08 -2.7903730369871482e-05" pbc="T T T"
Nb       1.67358530       1.18341941       2.89875939      -0.00004171       0.00006026       0.00006153
Nb       5.02077703       3.55022815       8.69624746      -0.00000295       0.00001608       0.00001465
Zr       0.00000043      -0.00000044      -0.00000009       0.00000006      -0.00000636      -0.00000229
F        1.72969418       1.22307635       5.79749176       0.00632966       0.00446373      -0.00002371
F        4.96468030       3.51055194       5.79749304      -0.00630614      -0.00449249      -0.00001149
F        4.15593243       1.22307613       4.39670737      -0.00315791       0.00446260       0.00547317
F        2.53844063       3.51055533       7.19828477       0.00316356      -0.00447389      -0.00547695
F        2.53843916       3.51055189       4.39670446       0.00315745      -0.00448748       0.00545311
F        4.15593362       1.22307548       7.19828261      -0.00314257       0.00445756      -0.00548795
