9
Lattice="5.715060211414951 4.984369766302114e-08 3.299591404679847 1.9050200749309572 5.388210606183819 3.299591478350496 -4.866965568042953e-08 5.581314129769193e-08 6.599182893657994" Properties=species:S:1:pos:R:3:forces:R:3 energy=-25.20842742919922 free_energy=-25.20842742919922 stress="0.00011188400094397366 3.1926070676036034e-08 -1.6043244954744296e-08 3.1926070676036034e-08 0.00011182453454239294 3.6129314651134337e-08 -1.6043244954744296e-08 3.6129314651134337e-08 0.00011185004404978827" pbc="T T T"
Ni       1.90502015       1.34705172       3.29959132       0.00000077      -0.00000546       0.00000073
Ni       5.71505975       4.04115678       9.89877367      -0.00000187      -0.00000620      -0.00000595
As       0.00000011       0.00000036       0.00000003      -0.00000069      -0.00000514       0.00000043
Cl       1.91448148       1.35374329       6.59918276       0.00233882       0.00165680      -0.00000051
Cl       5.70559885       4.03446790       6.59918324      -0.00233908      -0.00165232       0.00000227
Cl       4.75781958       1.35374319       4.95758084      -0.00116881       0.00165694       0.00202748
Cl       2.86226099       4.03446829       8.24078485       0.00117127      -0.00165171      -0.00202563
Cl       2.86226076       4.03446816       4.95758112       0.00117262      -0.00165491       0.00202982
Cl       4.75781927       1.35374314       8.24078524      -0.00117301       0.00166192      -0.00202878
