9
Lattice="6.121376636858229 1.0192945925566803e-08 3.5341784654107267 2.0404589147364254 5.771289088399117 3.534178420076559 3.874485853289857e-08 -2.8126022856316233e-08 7.068356863713381" Properties=species:S:1:pos:R:3:forces:R:3 energy=-22.17369842529297 free_energy=-22.17369842529297 stress="0.0001212243951158598 2.5634814271313644e-09 3.7125678087335245e-09 2.5634814271313644e-09 0.00012123383930884302 3.939085058135561e-09 3.7125678087335245e-09 3.939085058135561e-09 0.00012122806947445497" pbc="T T T"
Ni       2.04045952       1.44282297       3.53417820       0.00000130       0.00000226      -0.00000068
Ni       6.12137634       4.32846704      10.60253544      -0.00000083       0.00000074      -0.00000064
As      -0.00000007      -0.00000000      -0.00000011      -0.00000049      -0.00000108       0.00000103
Br       2.07718392       1.46879055       7.06835695      -0.00041030      -0.00029121       0.00000013
Br       6.08465147       4.30249807       7.06835693       0.00041285       0.00029144       0.00000015
Br       5.08278477       1.46879072       5.33307266       0.00020508      -0.00029193      -0.00035694
Br       3.07905096       4.30249797       8.80364120      -0.00020601       0.00029029       0.00035743
Br       3.07905092       4.30249806       5.33307266      -0.00020650       0.00029046      -0.00035743
Br       5.08278451       1.46879091       8.80364107       0.00020489      -0.00029106       0.00035693
