9
Lattice="4.542288573018172 -1.522904847791189e-07 2.6224914212565644 1.5140961079721027 4.282510344137976 2.6224913163862964 -9.362594195808774e-09 -1.3505968923065065e-07 5.244982858729589" Properties=species:S:1:pos:R:3:forces:R:3 energy=-33.85474395751953 free_energy=-33.85474395751953 stress="-0.00012073510879417881 -5.553853554829402e-08 -4.1010030926713625e-09 -5.553853554829402e-08 -0.00012069364311173558 6.982480371675592e-09 -4.1010030926713625e-09 6.982480371675592e-09 -0.00012062134919688106" pbc="T T T"
Ni       1.51409648       1.07062724       2.62249152       0.00000306      -0.00000140       0.00000147
Ni       4.54228793       3.21188289       7.86747387      -0.00000480       0.00000232      -0.00000109
As       0.00000003       0.00000009       0.00000009      -0.00000300      -0.00000248       0.00000128
F        1.54118960       1.08978528       5.24498268       0.00173585       0.00122547      -0.00000025
F        4.51519516       3.19272459       5.24498276      -0.00173399      -0.00122502       0.00000027
F        3.77169359       1.08978541       3.95720067      -0.00086629       0.00122248       0.00149935
F        2.28469122       3.19272494       6.53276502       0.00086817      -0.00122330      -0.00149979
F        2.28469111       3.19272456       3.95720062       0.00086789      -0.00122450       0.00149977
F        3.77169350       1.08978522       6.53276504      -0.00086712       0.00122640      -0.00150101
