9
Lattice="6.59546530961996 -3.696781539416959e-08 3.8078937316189636 2.198488420131191 6.218264238213191 3.8078936996716797 5.545303726089034e-08 8.394409121860953e-11 7.615787367190478" Properties=species:S:1:pos:R:3:forces:R:3 energy=-19.629459381103516 free_energy=-19.629459381103516 stress="7.156666106311604e-05 -9.919225441024082e-10 5.927433655017467e-09 -9.919225441024082e-10 7.156416540965438e-05 -7.919952693669075e-09 5.927433655017467e-09 -7.919952693669075e-09 7.156420906540006e-05" pbc="T T T"
Ni       2.19848880       1.55456627       3.80789353       0.00000089       0.00000111      -0.00000071
Ni       6.59546502       4.66369785      11.42368189      -0.00000055      -0.00000102       0.00000303
As      -0.00000009      -0.00000003       0.00000018      -0.00000073      -0.00000040      -0.00000040
I        2.28329908       1.61453598       7.61578735      -0.00031201      -0.00022025       0.00000005
I        6.51065464       4.60372816       7.61578705       0.00031247       0.00022076      -0.00000152
I        5.45381596       1.61453639       5.78528854       0.00015649      -0.00021980      -0.00027063
I        3.34013804       4.60372792       9.44628606      -0.00015696       0.00022037       0.00027055
I        3.34013822       4.60372801       5.78528847      -0.00015629       0.00022066      -0.00027143
I        5.45381548       1.61453623       9.44628613       0.00015670      -0.00022136       0.00027109
