9
Lattice="5.973046200255103 -4.198961049419464e-09 3.448539679082411 1.9910153950632963 5.631441813776803 3.4485396809234508 -4.231820882696315e-08 -2.7668647890773104e-08 6.8970794314620765" Properties=species:S:1:pos:R:3:forces:R:3 energy=-22.974048614501953 free_energy=-22.974048614501953 stress="7.654448563698679e-05 -7.221808040469568e-09 1.4385952873396946e-08 -7.221808040469568e-09 7.653547072550282e-05 1.1842028690978168e-08 1.4385952873396946e-08 1.1842028690978168e-08 7.656076923012733e-05" pbc="T T T"
Ni       1.99101541       1.40786100       3.44853951      -0.00000085       0.00000107      -0.00000033
Ni       5.97304631       4.22358124      10.34561986       0.00000005       0.00000099       0.00000343
B        0.00000021       0.00000010      -0.00000006       0.00000120       0.00000011       0.00000072
Br       1.84409441       1.30397188       6.89707946       0.00374538       0.00264903      -0.00000009
Br       6.11996694       4.32746957       6.89707912      -0.00374492      -0.00264882      -0.00000111
Br       5.05099881       1.30397194       5.04557242      -0.00187348       0.00264789       0.00324255
Br       2.91306255       4.32746991       8.74858625       0.00187300      -0.00264849      -0.00324566
Br       2.91306279       4.32746987       5.04557242       0.00187192      -0.00264893       0.00324370
Br       5.05099870       1.30397163       8.74858613      -0.00187223       0.00264701      -0.00324292
