9
Lattice="5.56593213178262 9.808941561644174e-08 3.213492496078218 1.855310834212902 5.247611243694667 3.2134924421437274 6.657679663820631e-08 -1.8979085230547126e-08 6.426984876842019" Properties=species:S:1:pos:R:3:forces:R:3 energy=-26.09705352783203 free_energy=-26.09705352783203 stress="1.229215399689565e-06 -9.067364636905495e-09 -1.75845720207235e-08 -9.067364636905495e-09 1.2340476587269222e-06 -1.19316769797706e-08 -1.75845720207235e-08 -1.19316769797706e-08 1.2947836012244807e-06" pbc="T T T"
Ni       1.85531055       1.31190274       3.21349221      -0.00000256      -0.00000133      -0.00000111
Ni       5.56593203       3.93570859       9.64047700      -0.00000123       0.00000060      -0.00000093
B       -0.00000019       0.00000083       0.00000045       0.00000001       0.00000730      -0.00000110
Cl       1.69191501       1.19636480       6.42698484      -0.00358218      -0.00253341       0.00000135
Cl       5.72932786       4.05124663       6.42698510       0.00358066       0.00253004       0.00000053
Cl       4.71997522       1.19636436       4.67873362       0.00179270      -0.00253221      -0.00310332
Cl       2.70126850       4.05124655       8.17523584      -0.00178929       0.00253111       0.00310282
Cl       2.70126848       4.05124653       4.67873416      -0.00178984       0.00253181      -0.00310144
Cl       4.71997478       1.19636437       8.17523603       0.00179186      -0.00253391       0.00310321
