9
Lattice="6.267253683297166 -5.474419529337318e-08 3.6184006688438664 2.0890845501866258 5.908823334164505 3.6184005983478205 6.544898663191179e-08 -4.006023086817137e-08 7.236801224326725" Properties=species:S:1:pos:R:3:forces:R:3 energy=-20.09496307373047 free_energy=-20.09496307373047 stress="-1.2054659237037413e-05 1.694911055949433e-08 -2.1301616026647707e-09 1.694911055949433e-08 -1.20802505989559e-05 -5.291093341242004e-09 -2.1301616026647707e-09 -5.291093341242004e-09 -1.2065522241755389e-05" pbc="T T T"
Ni       2.08908470       1.47720593       3.61840056       0.00000103       0.00000162      -0.00000060
Ni       6.26725378       4.43161747      10.85520165      -0.00000061      -0.00000070      -0.00000077
B       -0.00000006      -0.00000021       0.00000007       0.00000116       0.00000094       0.00000010
I        2.00384975       1.41693541       7.23680126       0.00378875       0.00267804       0.00000068
I        6.35248860       4.49188770       7.23680120      -0.00378894      -0.00267878       0.00000099
I        5.26532884       1.41693570       5.35378528      -0.00189359       0.00267790       0.00328121
I        3.09100926       4.49188763       9.11981754       0.00189349      -0.00267877      -0.00328100
I        3.09100947       4.49188767       5.35378514       0.00189234      -0.00267832       0.00328029
I        5.26532886       1.41693560       9.11981726      -0.00189375       0.00267810      -0.00328078
