9
Lattice="4.16518581111671 -2.1333780913020186e-08 2.4047712096175493 1.3883952559437847 3.9269749033787766 2.404771199770445 9.802058030537129e-09 -5.129101373411649e-09 4.809542402257442" Properties=species:S:1:pos:R:3:forces:R:3 energy=-40.00338363647461 free_energy=-40.00338363647461 stress="-0.0002310046402271837 1.941829363971692e-09 1.5256594210200092e-08 1.941829363971692e-09 -0.0002305991220055148 -5.713858719502696e-09 1.5256594210200092e-08 -5.713858719502696e-09 -0.00023096971563063562" pbc="T T T"
Ni       1.38839524       0.98174375       2.40477117       0.00000020      -0.00000094      -0.00000035
Ni       4.16518580       2.94523116       7.21431367       0.00000139       0.00000065      -0.00000081
B       -0.00000013      -0.00000006      -0.00000034      -0.00000206      -0.00000265       0.00000656
F        1.27073206       0.89854341       4.80954219       0.00682731       0.00482526       0.00000171
F        4.28284946       3.02843136       4.80954232      -0.00683342      -0.00482391       0.00000143
F        3.52981976       0.89854348       3.50525766      -0.00341280       0.00482476       0.00591181
F        2.02376100       3.02843153       6.11382766       0.00342033      -0.00482766      -0.00592321
F        2.02376106       3.02843148       3.50525744       0.00341543      -0.00482285       0.00591849
F        3.52982000       0.89854335       6.11382743      -0.00341626       0.00482690      -0.00591537
