9
Lattice="4.42009935698907 2.8266391040155352e-08 2.5519455035704537 1.4733665029172545 4.167309573845841 2.5519454621090465 2.0656856349133324e-09 -4.931900134218809e-08 5.103891003563028" Properties=species:S:1:pos:R:3:forces:R:3 energy=-35.423709869384766 free_energy=-35.423709869384766 stress="0.0008962561842054129 1.1110006425951724e-07 -5.98992286882094e-08 1.1110006425951724e-07 0.0008960987906903028 1.991357834185692e-08 -5.98992286882094e-08 1.991357834185692e-08 0.0008961264393292367" pbc="T T T"
Ni       1.47336623       1.04182760       2.55194525      -0.00000100      -0.00000078       0.00000375
Ni       4.42009954       3.12548132       7.65583656       0.00000132      -0.00000316       0.00000019
Ga       0.00000005       0.00000006       0.00000006       0.00000177      -0.00000531       0.00000380
F        1.49255749       1.05539740       5.10389108      -0.00710269      -0.00502055       0.00000064
F        4.40090840       3.11191208       5.10389094       0.00710395       0.00502322      -0.00000167
F        3.67382076       1.05539775       3.84453804       0.00355135      -0.00501981      -0.00614901
F        2.21964508       3.11191201       6.36324371      -0.00355346       0.00502208       0.00615114
F        2.21964511       3.11191216       3.84453838      -0.00355135       0.00502360      -0.00615421
F        3.67382063       1.05539778       6.36324387       0.00354998      -0.00501913       0.00614535
