9
Lattice="6.492762779321515 -4.080842580110352e-08 3.7485983687604096 2.164254242814085 6.121435422842595 3.748598331495639 1.5456085876941393e-08 -3.471073106111131e-08 7.4971967107501225" Properties=species:S:1:pos:R:3:forces:R:3 energy=-18.75363540649414 free_energy=-18.75363540649414 stress="6.490199302788824e-05 -4.936077324657617e-09 2.0212920226470033e-09 -4.936077324657617e-09 6.490406667580828e-05 -9.492700847602009e-09 2.0212920226470033e-09 -9.492700847602009e-09 6.489846418844536e-05" pbc="T T T"
Ni       2.16425443       1.53035872       3.74859836       0.00000023       0.00000003       0.00000044
Ni       6.49276286       4.59107661      11.24579490       0.00000136      -0.00000050       0.00000063
Ga      -0.00000003       0.00000011      -0.00000007       0.00000085      -0.00000162       0.00000013
I        2.23167277       1.57803095       7.49719665      -0.00008926      -0.00006282       0.00000019
I        6.42534422       4.54340454       7.49719681       0.00008923       0.00006288      -0.00000026
I        5.37692628       1.57803081       5.68128357       0.00004442      -0.00006237      -0.00007701
I        3.28009061       4.54340450       9.31310983      -0.00004531       0.00006324       0.00007805
I        3.28009057       4.54340432       5.68128380      -0.00004552       0.00006378      -0.00007863
I        5.37692646       1.57803082       9.31310980       0.00004397      -0.00006255       0.00007662
