9
Lattice="6.00555469409747 -2.5223529201315737e-08 3.467308661565326 2.001851529205626 5.662091423957539 3.467308681852075 -1.1299521695757586e-08 1.6856108185908227e-08 6.934617342701969" Properties=species:S:1:pos:R:3:forces:R:3 energy=-21.660987854003906 free_energy=-21.660987854003906 stress="0.00018015957903116941 3.3307145930194793e-09 8.933060541282956e-11 3.3307145930194793e-09 0.00018015246314462274 -3.4188609721041985e-09 8.933060541282956e-11 -3.4188609721041985e-09 0.00018012731743510813" pbc="T T T"
Ni       2.00185137       1.41552311       3.46730863      -0.00000159      -0.00000032       0.00000073
Ni       6.00555482       4.24656841      10.40192596       0.00000192      -0.00000143      -0.00000085
Ga       0.00000009       0.00000005       0.00000041      -0.00000039      -0.00000137      -0.00000143
Br       2.03856754       1.44148535       6.93461728      -0.00093982      -0.00066423      -0.00000057
Br       5.96883845       4.22060598       6.93461751       0.00094256       0.00066575      -0.00000062
Br       4.98627091       1.44148498       5.23276042       0.00046951      -0.00066371      -0.00081313
Br       3.02113536       4.22060623       8.63647406      -0.00047241       0.00066628       0.00081679
Br       3.02113538       4.22060624       5.23276030      -0.00046937       0.00066395      -0.00081596
Br       4.98627091       1.44148533       8.63647417       0.00046960      -0.00066486       0.00081515
