9
Lattice="5.631930025248052 4.313777101217615e-08 3.2515963572906292 1.8773100249200236 5.309834690658242 3.2515963991485837 1.2876020478535626e-08 6.037001580071032e-08 6.503192692279373" Properties=species:S:1:pos:R:3:forces:R:3 energy=-24.774372100830078 free_energy=-24.774372100830078 stress="0.00021166933584026992 1.6356555221364033e-08 5.780750989003991e-09 1.6356555221364033e-08 0.0002116545510943979 -9.599456340936285e-09 5.780750989003991e-09 -9.599456340936285e-09 0.0002116566465701908" pbc="T T T"
Ni       1.87730984       1.32745852       3.25159629      -0.00000127      -0.00000243      -0.00000056
Ni       5.63193030       3.98237689       9.75478796       0.00000172       0.00000454      -0.00000531
Ga      -0.00000011      -0.00000007      -0.00000058       0.00000175      -0.00000075       0.00001092
Cl       1.89575387       1.34050027       6.50319245      -0.00182962      -0.00129570       0.00000184
Cl       5.61348644       3.96933455       6.50319317       0.00182974       0.00129350       0.00000253
Cl       4.68405293       1.34049993       4.89336746       0.00091667      -0.00129703      -0.00158393
Cl       2.82518661       3.96933481       8.11301857      -0.00091165       0.00128801       0.00158215
Cl       2.82518665       3.96933453       4.89336761      -0.00091738       0.00129853      -0.00158617
Cl       4.68405371       1.34049981       8.11301896       0.00091000      -0.00128852       0.00157869
