9
Lattice="6.072546738236344 -6.654417892391503e-09 3.505986605323014 2.024182262834017 5.725251882720742 3.5059865654354714 5.181658169116225e-08 -1.221223128893748e-08 7.011973120897046" Properties=species:S:1:pos:R:3:forces:R:3 energy=-26.38042449951172 free_energy=-26.38042449951172 stress="0.00028256760560907423 -2.403511523141333e-08 4.0568157722020715e-09 -2.403511523141333e-08 0.0002825701085384935 -1.5822955390376592e-08 4.0568157722020715e-09 -1.5822955390376592e-08 0.00028257674421183765" pbc="T T T"
Ni       2.02418280       1.43131350       3.50598657       0.00000146       0.00000101       0.00000003
Ni       6.07254615       4.29393857      10.51795951      -0.00000229      -0.00000067      -0.00000024
Ir       0.00000009      -0.00000007       0.00000025      -0.00000071       0.00000004      -0.00000640
Br       2.00885537       1.42047527       7.01197314      -0.00025365      -0.00017946       0.00000071
Br       6.08787358       4.30477653       7.01197323       0.00025555       0.00018017      -0.00000022
Br       5.06811892       1.42047540       5.24570651       0.00012724      -0.00017894      -0.00022087
Br       3.02861028       4.30477648       8.77823967      -0.00012879       0.00018030       0.00022402
Br       3.02861019       4.30477636       5.24570654      -0.00012741       0.00017991      -0.00022228
Br       5.06811883       1.42047541       8.77823969       0.00012863      -0.00018233       0.00022517
