9
Lattice="6.408019508451763 -1.1946364472663775e-08 3.6996717954987544 2.136006486982995 6.0415387236104054 3.699671803416203 -1.412280182880521e-08 -2.8951345904660085e-10 7.399343615458899" Properties=species:S:1:pos:R:3:forces:R:3 energy=-24.31735610961914 free_energy=-24.31735610961914 stress="7.572067261207849e-05 1.983348951739572e-08 -1.9275820051234405e-08 1.983348951739572e-08 7.57173474994488e-05 2.2539405009069924e-08 -1.9275820051234405e-08 2.2539405009069924e-08 7.570561865577474e-05" pbc="T T T"
Ni       2.13600641       1.51038476       3.69967196      -0.00000015       0.00000016       0.00000081
Ni       6.40801951       4.53115398      11.09901514       0.00000035       0.00000008      -0.00000041
Ir      -0.00000004       0.00000013       0.00000026       0.00000043      -0.00000093      -0.00000234
I        2.16123514       1.52822413       7.39934365      -0.00155672      -0.00110154       0.00000036
I        6.38279081       4.51331457       7.39934369       0.00155720       0.00110018      -0.00000007
I        5.32740185       1.52822402       5.57135636       0.00077844      -0.00110045      -0.00134660
I        3.21662424       4.51331456       9.22733063      -0.00077909       0.00110170       0.00134975
I        3.21662412       4.51331456       5.57135643      -0.00077745       0.00109917      -0.00134653
I        5.32740189       1.52822414       9.22733074       0.00077695      -0.00109832       0.00134505
