9
Lattice="4.744298616120592 -6.367171730655251e-08 2.739122156866587 1.5814328317339452 4.472967735202272 2.739122122703605 -5.6694795166160306e-08 -8.193021606866908e-08 5.478244411931459" Properties=species:S:1:pos:R:3:forces:R:3 energy=-35.07630920410156 free_energy=-35.07630920410156 stress="0.0001676197862252593 -3.248862157079202e-08 -6.842161059950058e-09 -3.248862157079202e-08 0.00016764494648668915 6.027867094360317e-10 -6.842161059950058e-09 6.027867094360317e-10 0.00016763016174081713" pbc="T T T"
Ni       1.58143190       1.11824264       2.73912298      -0.00001023       0.00000597       0.00000403
Ni       4.74429891       3.35472524       8.21736687       0.00000410      -0.00000438       0.00000412
Ir       0.00000006       0.00000008      -0.00000005      -0.00000019       0.00000077       0.00000275
F        1.61151093       1.13951012       5.47824408      -0.00492847      -0.00348252      -0.00000127
F        4.71422080       3.33345684       5.47824397       0.00492949       0.00348199      -0.00000329
F        3.93854363       1.13951027       4.13473164       0.00246748      -0.00348485      -0.00427043
F        2.38718813       3.33345746       6.82175682      -0.00246549       0.00348464       0.00426642
F        2.38718777       3.33345718       4.13473156      -0.00246588       0.00348374      -0.00427044
F        3.93854352       1.13951062       6.82175698       0.00246916      -0.00348546       0.00426825
