9
Lattice="5.748417482530877 1.3322098986802056e-08 3.318850398494685 1.916139166930834 5.419660017571335 3.318850409706223 2.5491060223381205e-09 1.5533766317203337e-08 6.6377007925741935" Properties=species:S:1:pos:R:3:forces:R:3 energy=-28.889062881469727 free_energy=-28.889062881469727 stress="8.157771662808955e-05 -7.624846309894906e-10 -1.489107859242722e-08 -7.624846309894906e-10 8.156397234415635e-05 3.6675121606322136e-08 -1.489107859242722e-08 3.6675121606322136e-08 8.158242417266592e-05" pbc="T T T"
Ni       1.91613910       1.35491490       3.31885047      -0.00000049      -0.00000022       0.00000061
Ni       5.74841747       4.06474565       9.95655104      -0.00000048       0.00000221      -0.00000250
Ir      -0.00000007       0.00000002      -0.00000001       0.00000244      -0.00000023      -0.00000027
Cl       1.88729838       1.33452122       6.63770103       0.00180233       0.00127272      -0.00000122
Cl       5.77725835       4.08513859       6.63770093      -0.00180396      -0.00127488       0.00000012
Cl       4.80476820       1.33452126       4.95329879      -0.00090159       0.00127345       0.00156090
Cl       2.85978853       4.08513844       8.32210279       0.00090028      -0.00127186      -0.00155836
Cl       2.85978820       4.08513857       4.95329867       0.00090209      -0.00127554       0.00156224
Cl       4.80476848       1.33452155       8.32210269      -0.00090070       0.00127432      -0.00156137
