9
Lattice="6.555400420888901 7.439029100722931e-08 3.784762168669968 2.1851335301701855 6.180490677419909 3.784762192217709 2.1055550357255583e-08 4.372852862075149e-08 7.569524300870638" Properties=species:S:1:pos:R:3:forces:R:3 energy=-25.994314193725586 free_energy=-25.994314193725586 stress="0.00016055084415711462 1.1877538952376199e-08 -6.909450789294169e-09 1.1877538952376199e-08 0.00016053812578320503 -1.3553319355708027e-08 -6.909450789294169e-09 -1.3553319355708027e-08 0.0001605072757229209" pbc="T T T"
Ni       2.18513347       1.54512263       3.78476222      -0.00000022       0.00000009       0.00000001
Ni       6.55540070       4.63536823      11.35428643       0.00000073       0.00000129      -0.00000059
Mo       0.00000026       0.00000057      -0.00000020      -0.00000384      -0.00000292       0.00000583
I        2.23516530       1.58050071       7.56952429      -0.00148904      -0.00105187       0.00000003
I        6.50536834       4.59998987       7.56952428       0.00149229       0.00105578       0.00000043
I        5.43781777       1.58050046       5.72047210       0.00074390      -0.00105409      -0.00129046
I        3.30271601       4.59999036       9.41857674      -0.00074255       0.00105067       0.00128633
I        3.30271601       4.59999013       5.72047204      -0.00074483       0.00105277      -0.00128946
I        5.43781802       1.58050024       9.41857671       0.00074357      -0.00105162       0.00128800
