9
Lattice="6.136241082947283 1.6222614395314408e-08 3.542760543939946 2.0454136808262375 5.785303777872402 3.5427605937958946 8.842565356628833e-09 6.731347941271865e-08 7.085521072564102" Properties=species:S:1:pos:R:3:forces:R:3 energy=-29.208023071289062 free_energy=-29.208023071289062 stress="5.359697388485074e-05 -3.432937489833421e-08 -1.1155192325418284e-08 -3.432937489833421e-08 5.362298179534264e-05 1.1624884166394622e-08 -1.1155192325418284e-08 1.1624884166394622e-08 5.366267214412801e-05" pbc="T T T"
Ni       2.04541438       1.44632616       3.54276071       0.00000208       0.00000013       0.00000038
Ni       6.13624175       4.33897712      10.62828196       0.00000210      -0.00000088      -0.00000000
Mo      -0.00000027      -0.00000002      -0.00000030       0.00000304       0.00000346       0.00000473
Br       2.05128760       1.45047985       7.08552117      -0.00567545      -0.00401083       0.00000004
Br       6.13036704       4.33482446       7.08552112       0.00566862       0.00400884       0.00000047
Br       5.11059676       1.45047993       5.31922809       0.00283849      -0.00401496      -0.00491785
Br       3.07105747       4.33482439       8.85181410      -0.00283704       0.00401202       0.00491302
Br       3.07105749       4.33482392       5.31922771      -0.00283814       0.00401326      -0.00491471
Br       5.11059687       1.45047963       8.85181423       0.00283628      -0.00401095       0.00491402
