9
Lattice="4.913504591172699 2.3524819465910666e-09 2.836812979782445 1.6378348655725425 4.632496353498116 2.8368129804226823 -8.797310025199355e-08 -6.142223684862819e-08 5.673626111938744" Properties=species:S:1:pos:R:3:forces:R:3 energy=-38.082115173339844 free_energy=-38.082115173339844 stress="-1.1558355481611216e-06 1.2823641704073907e-08 -5.036458361473706e-08 1.2823641704073907e-08 -1.179514924842806e-06 6.926143214514013e-08 -5.036458361473706e-08 6.926143214514013e-08 -1.1527002925504348e-06" pbc="T T T"
Ni       1.63783592       1.15812470       2.83681223       0.00000485       0.00000325      -0.00000522
Ni       4.91350444       3.47437271       8.51043814       0.00000064       0.00000208      -0.00000518
Mo       0.00000024       0.00000002      -0.00000012      -0.00000642      -0.00000585       0.00000001
F        1.64465545       1.16294697       5.67362699      -0.00053273      -0.00037784       0.00000151
F        4.90668374       3.46954927       5.67362643       0.00053813       0.00038015       0.00000119
F        4.09117673       1.16294648       4.26112653       0.00026652      -0.00038068      -0.00046453
F        2.46016253       3.46954902       7.08612544      -0.00026965       0.00038037       0.00047015
F        2.46016212       3.46954913       4.26112668      -0.00026652       0.00037497      -0.00046108
F        4.09117630       1.16294676       7.08612569       0.00026521      -0.00037647       0.00046311
