9
Lattice="5.814665494898767 7.458421499268987e-09 3.3570987324959933 1.9382218385709395 5.482119498329831 3.3570987326584962 1.2660016231458402e-08 9.151035447760087e-09 6.714197443064164" Properties=species:S:1:pos:R:3:forces:R:3 energy=-32.404815673828125 free_energy=-32.404815673828125 stress="5.985880488879047e-05 1.3741485282992016e-08 -2.149907274429097e-08 1.3741485282992016e-08 5.989300552755594e-05 1.636933433246668e-08 -2.149907274429097e-08 1.636933433246668e-08 5.986562973703258e-05" pbc="T T T"
Ni       1.93822203       1.37052984       3.35709790       0.00000015       0.00000053      -0.00000199
Ni       5.81466600       4.11158921      10.07129658       0.00000113      -0.00000136       0.00000109
Mo      -0.00000012      -0.00000007       0.00000011       0.00000104      -0.00000066      -0.00000198
Cl       1.92550020       1.36153460       6.71419787      -0.00019259      -0.00013667       0.00000103
Cl       5.82738698       4.12058518       6.71419737       0.00019278       0.00013682      -0.00000028
Cl       4.85191545       1.36153440       5.02463094       0.00009660      -0.00013718      -0.00016654
Cl       2.90097161       4.12058535       8.40376368      -0.00009730       0.00013741       0.00016876
Cl       2.90097199       4.12058496       5.02463076      -0.00009626       0.00013583      -0.00016649
Cl       4.85191524       1.36153453       8.40376433       0.00009448      -0.00013462       0.00016630
