9
Lattice="4.343557960060509 -0.37249008132051314 2.5970084122191612 0.8559477153629258 2.2826514867780037 0.6086019802838957 1.0831563913790612 -0.18656510725205405 2.363995818206461" Properties=species:S:1:pos:R:3:forces:R:3 energy=-639922304.0 free_energy=-639922304.0 stress="515293728.0 42655552.0 7382161.5 42655552.0 550725696.0 4466287.5 7382161.5 4466287.5 538244928.0" pbc="T T T"
Ni      -0.02006132       1.15107444       1.07280466 -266569088.00000000 33746416.00000000 -252141024.00000000
Ni       2.33530602       1.97998296       2.82488456 472858912.00000000 -63663648.00000000 963073472.00000000
N       -0.11923300       0.04464087      -0.55159782 -390579040.00000000 111269912.00000000 -464598560.00000000
O        1.71477485       1.06109966       2.32411898 -201778688.00000000 -57787880.00000000 127709680.00000000
O        4.60106922       0.55745135       3.28297892 1204234496.00000000 -335933024.00000000 62513536.00000000
O        2.89705838      -0.69049466       1.72086767 90670296.00000000 133970176.00000000 40874460.00000000
O        2.86132726       1.53770343       2.65720384 -46476592.00000000 -7059978.00000000 18443004.00000000
O        2.03326576       2.17583310       0.88023789 -24054766.00000000 94731008.00000000 -188980960.00000000
O        5.05798389       0.54804466       3.33689406 -838305472.00000000 90727128.00000000 -306894016.00000000
