9
Lattice="4.137306559287595 5.406007262861e-07 2.3886759476581703 1.379101744515725 3.900694108474538 2.388677595872386 -1.1212430900161142e-06 1.2258031606727108e-06 4.777353837366662" Properties=species:S:1:pos:R:3:forces:R:3 energy=-28.684167861938477 free_energy=-28.684167861938477 stress="-6.292536272667348e-05 3.117936486773942e-08 -2.465365867010405e-07 3.117936486773942e-08 -6.2168764998205e-05 2.735454245339497e-07 -2.465365867010405e-07 2.735454245339497e-07 -6.206456600921229e-05" pbc="T T T"
Ni       1.37910594       0.97517348       2.38869327      -0.00001900       0.00000898      -0.00003056
Ni       4.13730295       2.92552437       7.16604651       0.00000763      -0.00000172      -0.00002928
N        0.00001714      -0.00001263       0.00006960      -0.00002403       0.00001522      -0.00008687
F        1.33317569       0.94269744       4.77736150       0.00163442       0.00111729       0.00004431
F        4.18322441       2.95798728       4.77735962      -0.00162113      -0.00113875       0.00003460
F        3.47073491       0.94267888       3.54322808      -0.00080368       0.00112319       0.00142813
F        2.04570598       2.95797279       6.01144262       0.00083545      -0.00116003      -0.00137663
F        2.04566591       2.95802468       3.54320765       0.00081906      -0.00112772       0.00140411
F        3.47069301       0.94273950       6.01142502      -0.00082892       0.00116360      -0.00138825
