9
Lattice="5.578760073010831 -3.181185555854842e-08 3.220898558277743 1.8595866690601515 5.25970531085811 3.2208985443363867 9.95915059389748e-10 -1.6370371883786798e-08 6.441797114830465" Properties=species:S:1:pos:R:3:forces:R:3 energy=-22.51959800720215 free_energy=-22.51959800720215 stress="0.00020977872190997005 1.615403100174717e-08 -1.0506316705516383e-08 1.615403100174717e-08 0.00020983006106689572 -1.5887994919694393e-08 -1.0506316705516383e-08 -1.5887994919694393e-08 0.0002097701362799853" pbc="T T T"
Ni       1.85958675       1.31492641       3.22089837      -0.00000078       0.00000025      -0.00000043
Ni       5.57875961       3.94477884       9.66269564      -0.00000161      -0.00000091      -0.00000010
N       -0.00000019      -0.00000014      -0.00000076       0.00000047      -0.00000046      -0.00000097
Cl       1.79180350       1.26699645       6.44179712       0.00111182       0.00078529       0.00000045
Cl       5.64654343       3.99270878       6.44179712      -0.00111006      -0.00078435      -0.00000071
Cl       4.68285833       1.26699652       4.77264601      -0.00055622       0.00078593       0.00096311
Cl       2.75548858       3.99270915       8.11094869       0.00055578      -0.00078510      -0.00096184
Cl       2.75548854       3.99270881       4.77264607       0.00055620      -0.00078565       0.00096223
Cl       4.68285837       1.26699625       8.11094864      -0.00055553       0.00078513      -0.00096183
