9
Lattice="4.137142736237279 -5.131098076014413e-08 2.3885804588337933 1.3790475210286641 3.9005355642179063 2.388580475012261 -1.3350510087647339e-08 1.0374242699074038e-08 4.777160940791356" Properties=species:S:1:pos:R:3:forces:R:3 energy=-28.684165954589844 free_energy=-28.684165954589844 stress="-0.0003250313748139888 -1.1390675069833378e-07 -1.5514645568259766e-08 -1.1390675069833378e-07 -0.00032495943014509976 2.0642817233351707e-08 -1.5514645568259766e-08 2.0642817233351707e-08 -0.0003247038403060287" pbc="T T T"
Ni       1.37904764       0.97513401       2.38858058      -0.00000005      -0.00000081       0.00000044
Ni       4.13714279       2.92540148       7.16574131       0.00000085      -0.00000102       0.00000100
N        0.00000020      -0.00000037       0.00000006      -0.00000404       0.00000790       0.00000218
F        1.33335268       0.94282299       4.77716093      -0.00614977      -0.00435346      -0.00000166
F        4.18283737       2.95771278       4.77716096       0.00615555       0.00434971      -0.00000041
F        3.47046608       0.94282324       3.54329800       0.00308046      -0.00435990      -0.00533646
F        2.04572404       2.95771246       6.01102342      -0.00308198       0.00435829       0.00534278
F        2.04572395       2.95771256       3.54329816      -0.00308120       0.00435644      -0.00534058
F        3.47046623       0.94282297       6.01102405       0.00307986      -0.00435680       0.00533229
