9
Lattice="5.775318151090767 9.451484479109874e-08 3.334381574522034 1.925106122399762 5.445022291466147 3.334381604093814 7.724869228790099e-08 9.084094741447586e-08 6.668763015245432" Properties=species:S:1:pos:R:3:forces:R:3 energy=-25.100440979003906 free_energy=-25.100440979003906 stress="-2.0873547327937558e-05 1.0747464251892325e-08 -4.848404344670598e-08 1.0747464251892325e-08 -2.0884826881228946e-05 -2.237562490847722e-08 -4.848404344670598e-08 -2.237562490847722e-08 -2.089357076329179e-05" pbc="T T T"
Ni       1.92510541       1.36125546       3.33438183      -0.00000252      -0.00000139       0.00000172
Ni       5.77531802       4.08376669      10.00314370      -0.00000094      -0.00000141      -0.00000547
P        0.00000025       0.00000017       0.00000012      -0.00000244      -0.00000144      -0.00000124
Cl       1.85068699       1.30863306       6.66876324       0.00038897       0.00027494       0.00000039
Cl       5.84973781       4.13638916       6.66876353      -0.00038729      -0.00027362       0.00000057
Cl       4.84997495       1.30863310       4.93712338      -0.00019348       0.00027560       0.00033702
Cl       2.85044972       4.13638922       8.40040288       0.00019385      -0.00027283      -0.00033510
Cl       2.85044918       4.13638944       4.93712338       0.00019529      -0.00027526       0.00033725
Cl       4.84997512       1.30863364       8.40040270      -0.00019154       0.00027541      -0.00033513
