9
Lattice="4.543092916279403 -4.029976244907485e-07 2.6229558924609724 1.5143640467746171 4.28326838033696 2.622955682366755 -1.799058332842281e-07 -3.845244476304982e-07 5.2459120965280475" Properties=species:S:1:pos:R:3:forces:R:3 energy=-37.15387725830078 free_energy=-37.15387725830078 stress="0.00011057137453462929 9.070545559097809e-08 3.005064996841611e-08 9.070545559097809e-08 0.00011076776718255132 -1.5022386889995687e-08 3.005064996841611e-08 -1.5022386889995687e-08 0.00011078424722654745" pbc="T T T"
Ni       1.51436320       1.07081696       2.62295635      -0.00000281       0.00000120       0.00000005
Ni       4.54309565       3.21245090       7.86886633       0.00000832       0.00000016      -0.00000206
P       -0.00000037      -0.00000014       0.00000014       0.00000480       0.00000287       0.00000319
F        1.35016896       0.95471395       5.24591234       0.00379273       0.00268108      -0.00000217
F        4.70728714       3.32855352       5.24591180      -0.00379860      -0.00268285       0.00000064
F        3.86800764       0.95471360       3.79223729      -0.00190095       0.00268117       0.00328544
F        2.18944831       3.32855401       6.69958668       0.00189900      -0.00268383      -0.00328845
F        2.18944840       3.32855424       3.79223719       0.00189522      -0.00268222       0.00328733
F        3.86800780       0.95471322       6.69958661      -0.00189772       0.00268236      -0.00328444
