9
Lattice="6.06502126020897 7.212404074300959e-08 3.5016416371752532 2.021673791201444 5.718157041284154 3.501641689484477 -1.9744906054778953e-08 5.010368318608349e-08 7.003283308549688" Properties=species:S:1:pos:R:3:forces:R:3 energy=-22.04339027404785 free_energy=-22.04339027404785 stress="-6.0364855016814545e-05 -3.800892045546789e-09 -4.682024545843433e-09 -3.800892045546789e-09 -6.037418279447593e-05 -1.3022294353959296e-08 -4.682024545843433e-09 -1.3022294353959296e-08 -6.035941623849794e-05" pbc="T T T"
Ni       2.02167425       1.42953908       3.50164178       0.00000189      -0.00000085      -0.00000021
Ni       6.06502152       4.28861827      10.50492354       0.00000128       0.00000032      -0.00000491
P        0.00000006       0.00000019       0.00000032      -0.00000133       0.00000155       0.00000079
Br       2.01942088       1.42794643       7.00328332      -0.00159466      -0.00112788      -0.00000027
Br       6.06727373       4.29021074       7.00328362       0.00159551       0.00112799       0.00000118
Br       5.05531063       1.42794608       5.25051159       0.00079579      -0.00112882      -0.00137956
Br       3.03138439       4.29021068       8.75605527      -0.00079695       0.00112786       0.00138249
Br       3.03138390       4.29021066       5.25051166      -0.00079821       0.00112668      -0.00138105
Br       5.05531072       1.42794652       8.75605539       0.00079668      -0.00112688       0.00138144
