9
Lattice="6.088307774678204 1.806622278154906e-08 3.5150861548759935 2.0294359267188766 5.740111605075068 3.5150861812149916 -2.5148371010708267e-08 1.4475984471244224e-08 7.03017235331024" Properties=species:S:1:pos:R:3:forces:R:3 energy=-26.552085876464844 free_energy=-26.552085876464844 stress="0.00028670724714174867 -1.0689434226662797e-08 -4.556705235359004e-09 -1.0689434226662797e-08 0.00028671292238868773 1.9280645968677845e-09 -4.556705235359004e-09 1.9280645968677845e-09 0.00028671271866187453" pbc="T T T"
Ni       2.02943571       1.43502822       3.51508612      -0.00000032       0.00000039       0.00000035
Ni       6.08830765       4.30508347      10.54525810      -0.00000077      -0.00000122      -0.00000039
Ru      -0.00000020       0.00000003      -0.00000017       0.00000177      -0.00000093       0.00000283
Br       2.01238569       1.42297168       7.03017238       0.00006609       0.00004703       0.00000072
Br       6.10535795       4.31714013       7.03017230      -0.00006733      -0.00004793       0.00000010
Br       5.08211491       1.42297176       5.25786337      -0.00003224       0.00004598       0.00005707
Br       3.03562897       4.31713997       8.80248136       0.00003373      -0.00004708      -0.00005771
Br       3.03562893       4.31713979       5.25786360       0.00003258      -0.00004492       0.00005594
Br       5.08211507       1.42297149       8.80248166      -0.00003362       0.00004869      -0.00005883
