9
Lattice="4.586675885810335 8.781782300819779e-08 2.6481184298285116 1.5288920300246407 4.324359906515869 2.64811845530278 3.129505969387507e-08 5.332842253616554e-08 5.296236805452394" Properties=species:S:1:pos:R:3:forces:R:3 energy=-36.2698974609375 free_energy=-36.2698974609375 stress="0.0001725204783724621 -2.7693580761933845e-08 2.4989249780560385e-08 -2.7693580761933845e-08 0.00017250805103685707 1.0979757547602276e-08 2.4989249780560385e-08 1.0979757547602276e-08 0.00017260100867133588" pbc="T T T"
Ni       1.52889112       1.08108990       2.64811858      -0.00001044      -0.00000178       0.00000362
Ni       4.58667630       3.24326925       7.94435478      -0.00000078      -0.00001062      -0.00000480
Ru      -0.00000001      -0.00000016      -0.00000021      -0.00000249       0.00000429       0.00000165
F        1.57306789       1.11232733       5.29623672       0.00397708       0.00281538      -0.00000089
F        4.54250004       3.21203270       5.29623696      -0.00397657      -0.00281273       0.00000206
F        3.80014227       1.11232744       4.01043549      -0.00198231       0.00281072       0.00344318
F        2.31542610       3.21203308       6.58203824       0.00199004      -0.00281006      -0.00344816
F        2.31542603       3.21203270       4.01043531       0.00199087      -0.00281249       0.00344743
F        3.80014228       1.11232774       6.58203874      -0.00198546       0.00281732      -0.00344391
