9
Lattice="4.634351722762196 1.0054219693455052e-07 2.675644380531515 1.5447840001995232 4.369308979448258 2.6756443843073177 1.1337844166279293e-07 8.479504354136896e-08 5.351288564685933" Properties=species:S:1:pos:R:3:forces:R:3 energy=-34.357872009277344 free_energy=-34.357872009277344 stress="0.00029209742206148803 -1.4735589104475366e-07 5.974825967314246e-08 -1.4735589104475366e-07 0.0002923482679761946 -1.9282063590253529e-07 5.974825967314246e-08 -1.9282063590253529e-07 0.00029248386272229254" pbc="T T T"
Ni       1.54478423       1.09232676       2.67564389       0.00000063      -0.00000641      -0.00000784
Ni       4.63435090       3.27698277       8.02693520      -0.00001114       0.00001268       0.00002703
Rh       0.00000005       0.00000024       0.00000018      -0.00000469       0.00000059      -0.00001732
F        1.58719316       1.12231425       5.35128914      -0.00103059      -0.00073773       0.00000556
F        4.59194295       3.24699467       5.35128735       0.00103737       0.00073795      -0.00001287
F        3.84075546       1.12231517       4.05019376       0.00052276      -0.00073473      -0.00090508
F        2.33838049       3.24699417       6.65238360      -0.00052304       0.00073985       0.00090562
F        2.33838092       3.24699413       4.05019391      -0.00051774       0.00074331      -0.00091070
F        3.84075533       1.12231503       6.65238278       0.00052647      -0.00075564       0.00091586
