9
Lattice="6.433625314966935 4.6456972423212476e-08 3.7144552495154444 2.144541836137104 6.065680026830315 3.7144552136941873 2.313574671465725e-08 -2.7512447703736296e-08 7.428910458958585" Properties=species:S:1:pos:R:3:forces:R:3 energy=-24.04277801513672 free_energy=-24.04277801513672 stress="0.00015665854152757674 1.5882999804262e-08 3.1012274970265707e-09 1.5882999804262e-08 0.00015665309911128134 -1.8272112711770205e-09 3.1012274970265707e-09 -1.8272112711770205e-09 0.0001566270220791921" pbc="T T T"
Ni       2.14454169       1.51641980       3.71445518      -0.00000022      -0.00000034      -0.00000015
Ni       6.43362539       4.54925979      11.14336561      -0.00000042      -0.00000114      -0.00000034
Ru       0.00000014       0.00000021      -0.00000052      -0.00000351      -0.00000194       0.00000613
I        2.16545465       1.53120788       7.42891031      -0.00293121      -0.00207258       0.00000156
I        6.41271229       4.53447216       7.42891054       0.00293443       0.00207511      -0.00000010
I        5.35089799       1.53120791       5.58979400       0.00146738      -0.00207446      -0.00253969
I        3.22726909       4.53447260       9.26802718      -0.00146318       0.00207000       0.00253579
I        3.22726927       4.53447230       5.58979413      -0.00146664       0.00207521      -0.00253966
I        5.35089816       1.53120754       9.26802727       0.00146338      -0.00206986       0.00253654
