9
Lattice="5.699877407360173 2.547698666170789e-08 3.2908257525201217 1.8999591455014138 5.3738957986282045 3.290825777297555 -4.7749720103457e-08 -3.418103564742213e-09 6.58165158774524" Properties=species:S:1:pos:R:3:forces:R:3 energy=-27.757471084594727 free_energy=-27.757471084594727 stress="0.0004001605848316103 -3.091470690552711e-10 1.420980133559624e-08 -3.091470690552711e-10 0.0004001845372840762 -7.331160567503048e-09 1.420980133559624e-08 -7.331160567503048e-09 0.0004001770867034793" pbc="T T T"
Ni       1.89995928       1.34347347       3.29082612       0.00000080      -0.00000140       0.00000194
Ni       5.69987760       4.03042142       9.87247860       0.00000183      -0.00000176       0.00000528
Rh       0.00000004      -0.00000010      -0.00000036      -0.00000039       0.00000538       0.00000251
Cl       1.88370297       1.33197924       6.58165137      -0.00046304      -0.00032514      -0.00000111
Cl       5.71613346       4.04191698       6.58165119       0.00045806       0.00032663      -0.00000215
Cl       4.75802580       1.33197948       4.92216006       0.00023136      -0.00032631      -0.00040385
Cl       2.84181016       4.04191706       8.24114277      -0.00022937       0.00032334       0.00039589
Cl       2.84181048       4.04191689       4.92216023      -0.00023021       0.00032662      -0.00039789
Cl       4.75802617       1.33197881       8.24114249       0.00023106      -0.00032733       0.00039917
