9
Lattice="6.021350513157155 -8.68288728604569e-09 3.4764283984070157 2.0071168213667385 5.676983820502422 3.4764284125509577 -3.336969359555231e-08 -6.2732062936826965e-09 6.952856854612022" Properties=species:S:1:pos:R:3:forces:R:3 energy=-25.504812240600586 free_energy=-25.504812240600586 stress="0.00023848915589042008 -3.4541930205023164e-08 -3.73146402665725e-09 -3.4541930205023164e-08 0.00023850174329709262 9.491115449122844e-09 -3.73146402665725e-09 9.491115449122844e-09 0.000238533946685493" pbc="T T T"
Ni       2.00711670       1.41924605       3.47642863       0.00000019      -0.00000008       0.00000263
Ni       6.02135037       4.25773805      10.42928516      -0.00000006       0.00000215      -0.00000000
Rh      -0.00000006      -0.00000004       0.00000016      -0.00000056       0.00000057      -0.00000005
Br       1.99624697       1.41155968       6.95285676       0.00052670       0.00037232      -0.00000055
Br       6.03222046       4.26542408       6.95285673      -0.00052667      -0.00037277       0.00000040
Br       5.02322693       1.41155981       5.20522908      -0.00026187       0.00036879       0.00045241
Br       3.00524045       4.26542414       8.70048462       0.00026246      -0.00037042      -0.00045430
Br       3.00524042       4.26542375       5.20522902       0.00026174      -0.00037129       0.00045346
Br       5.02322693       1.41155970       8.70048449      -0.00026189       0.00037075      -0.00045419
