9
Lattice="6.127645164806163 -8.238536259854598e-07 3.537799027251296 2.0425480370458713 5.777198614681003 3.5377982902397456 5.971487697178627e-07 -4.804028901847022e-07 7.075597020210134" Properties=species:S:1:pos:R:3:forces:R:3 energy=-34.368186950683594 free_energy=-34.368186950683594 stress="-4.994862320018001e-05 -1.530384849957045e-07 1.4277341620072548e-07 -1.530384849957045e-07 -5.0430498959030956e-05 3.9992290368218164e-08 1.4277341620072548e-07 3.9992290368218164e-08 -5.054688881500624e-05" pbc="T T T"
Ni       2.04255284       1.44430511       3.53779875       0.00000225      -0.00000005      -0.00000143
Ni       6.12766506       4.33289090      10.61338380      -0.00000139       0.00000171      -0.00000008
Sb      -0.00000290       0.00000090       0.00000129      -0.00000523       0.00005578      -0.00004487
F        1.56884639       1.10933371       7.07560052       0.00162774       0.00117990      -0.00001105
F        6.60134425       4.66786442       7.07559941      -0.00166780      -0.00119305       0.00000504
F        5.34321938       1.10933902       4.89645815      -0.00081892       0.00117671       0.00144172
F        2.82696686       4.66785567       9.25474258       0.00082293      -0.00117320      -0.00146040
F        2.82696873       4.66785979       4.89645303       0.00082971      -0.00120041       0.00148118
F        5.34321433       1.10933975       9.25474008      -0.00078955       0.00115243      -0.00141042
