9
Lattice="6.75064894048812 1.1201161034250374e-07 3.8974890760465173 2.2502164181376156 6.364572965337424 3.897489077716177 2.6829605138970253e-08 2.1016297421149357e-08 7.794978105622774" Properties=species:S:1:pos:R:3:forces:R:3 energy=-19.158294677734375 free_energy=-19.158294677734375 stress="5.718817556044087e-05 1.9956379659902268e-08 5.249114920502507e-09 1.9956379659902268e-08 5.7176072004949674e-05 -2.688234523873234e-09 5.249114920502507e-09 -2.688234523873234e-09 5.714805956813507e-05" pbc="T T T"
Ni       2.25021633       1.59114325       3.89748890       0.00000013      -0.00000033      -0.00000166
Ni       6.75064880       4.77342966      11.69246677      -0.00000008       0.00000018      -0.00000030
Sb       0.00000015       0.00000007       0.00000035      -0.00000183      -0.00000117       0.00000037
I        2.38396818       1.68572010       7.79497807      -0.00023797      -0.00016828       0.00000113
I        6.61689711       4.67885303       7.79497811       0.00023998       0.00016977      -0.00000013
I        5.55866500       1.68572000       5.96206617       0.00011853      -0.00016727      -0.00020437
I        3.44220074       4.67885287       9.62789032      -0.00011846       0.00016689       0.00020459
I        3.44220036       4.67885288       5.96206603      -0.00011844       0.00016773      -0.00020449
I        5.55866488       1.68572056       9.62789032       0.00011814      -0.00016751       0.00020492
