9
Lattice="6.192344981119914 -1.8242980875867567e-08 3.5751520881425884 2.064114959037515 5.838198988356998 3.57515211840063 -1.0477898756432677e-08 2.964936834808484e-08 7.15030419443346" Properties=species:S:1:pos:R:3:forces:R:3 energy=-22.155345916748047 free_energy=-22.155345916748047 stress="0.0002757377806119621 -1.0576302500453494e-08 9.425028757448217e-09 -1.0576302500453494e-08 0.00027574560954235494 -1.2398013282677312e-08 9.425028757448217e-09 -1.2398013282677312e-08 0.00027574310661293566" pbc="T T T"
Ni       2.06411489       1.45954975       3.57515232      -0.00000097      -0.00000045       0.00000077
Ni       6.19234359       4.37864863      10.72545684      -0.00000405      -0.00000134       0.00000235
Sb       0.00000024       0.00000024       0.00000007      -0.00000251      -0.00000053      -0.00000155
Br       2.09737966       1.48307133       7.15030418       0.00477529       0.00337625      -0.00000021
Br       6.15908033       4.35512762       7.15030387      -0.00477201      -0.00337503      -0.00000063
Br       5.14365533       1.48307171       5.39153606      -0.00238584       0.00337609       0.00413290
Br       3.11280522       4.35512759       8.90907200       0.00238755      -0.00337482      -0.00413351
Br       3.11280527       4.35512738       5.39153613       0.00238716      -0.00337445       0.00413166
Br       5.14365523       1.48307177       8.90907216      -0.00238463       0.00337432      -0.00413176
