9
Lattice="5.852186834260478 1.3940921838160554e-08 3.378761646934397 1.9507289662280647 5.517494668906581 3.3787616325047525 5.0775346654592846e-08 1.8230971733464782e-08 6.757523205923309" Properties=species:S:1:pos:R:3:forces:R:3 energy=-25.211395263671875 free_energy=-25.211395263671875 stress="-1.1834124052256811e-05 -1.1387157883291366e-08 -3.5359426497905133e-09 -1.1387157883291366e-08 -1.1829840332211461e-05 1.3765653505970477e-08 -3.5359426497905133e-09 1.3765653505970477e-08 -1.1808324416051619e-05" pbc="T T T"
Ni       1.95072863       1.37937352       3.37876150      -0.00000072      -0.00000041      -0.00000020
Ni       5.85218707       4.13812102      10.13628490       0.00000065       0.00000171       0.00000107
Sb      -0.00000004       0.00000007      -0.00000016       0.00000099       0.00000212       0.00000024
Cl       1.96461249       1.38919083       6.75752317       0.00065768       0.00046501       0.00000007
Cl       5.83830341       4.12830391       6.75752316      -0.00066033      -0.00046586      -0.00000024
Cl       4.86988061       1.38919092       5.08016610      -0.00032674       0.00046301       0.00056636
Cl       2.93303520       4.12830379       8.43488061       0.00032824      -0.00046465      -0.00056893
Cl       2.93303525       4.12830394       5.08016608       0.00032893      -0.00046514       0.00056985
Cl       4.86988079       1.38919084       8.43488062      -0.00032875       0.00046439      -0.00056824
