9
Lattice="5.891136107844374 -2.6307805087179533e-08 3.401249010982514 1.9637120643844614 5.554216241250503 3.4012489187688097 6.896248935902659e-09 -1.0806189042180681e-07 6.8024980100203765" Properties=species:S:1:pos:R:3:forces:R:3 energy=-36.06449508666992 free_energy=-36.06449508666992 stress="4.440879638423212e-05 3.358618272386593e-08 2.1677006856180014e-09 3.358618272386593e-08 4.4382832129485905e-05 -2.6695090582506964e-09 2.1677006856180014e-09 -2.6695090582506964e-09 4.434832226252183e-05" pbc="T T T"
Ni       1.96371184       1.38855428       3.40124954      -0.00000033       0.00000133       0.00000181
Ni       5.89113598       4.16566186      10.20374712      -0.00000036      -0.00000083      -0.00000021
Ta      -0.00000001       0.00000010       0.00000001       0.00000028      -0.00000692       0.00000138
Cl       1.93002685       1.36473492       6.80249768      -0.00046828      -0.00033078      -0.00000107
Cl       5.92482140       4.18948117       6.80249791       0.00047171       0.00033209       0.00000060
Cl       4.92612258       1.36473496       5.07270067       0.00023261      -0.00032786      -0.00040111
Cl       2.92872554       4.18948100       8.53229499      -0.00023374       0.00032994       0.00040343
Cl       2.92872575       4.18948134       5.07270099      -0.00023533       0.00033131      -0.00040537
Cl       4.92612271       1.36473474       8.53229478       0.00023350      -0.00032824       0.00040048
