9
Lattice="4.239689960779978 1.3209401420609586e-07 2.4477863401158815 1.4132301302476469 3.9972183021764973 2.447786307585275 3.3599659926535117e-07 1.9774378255313616e-07 4.895572098268582" Properties=species:S:1:pos:R:3:forces:R:3 energy=-52.98908996582031 free_energy=-52.98908996582031 stress="0.00017283932538703084 -1.4040749363175564e-07 -1.5871580671955599e-06 -1.4040749363175564e-07 0.0001712814118945971 -1.2615654441106017e-06 -1.5871580671955599e-06 -1.2615654441106017e-06 0.00017263264453504235" pbc="T T T"
Os       1.41322833       0.99930661       2.44778684      -0.00004680       0.00002957       0.00007069
Os       4.23969104       2.99790284       7.34338893       0.00002146      -0.00027985       0.00076850
As       0.00000008       0.00000018      -0.00000148       0.00000750       0.00002410      -0.00005692
O        1.42936015       1.01071423       4.89557003      -0.00335926      -0.00227559      -0.00007215
O        4.22355937       2.98650726       4.89556246       0.00332779       0.00234610      -0.00026363
O        3.52501256       1.01071785       3.68564400       0.00172436      -0.00218266      -0.00301427
O        2.12790648       2.98650689       6.10549137      -0.00176305       0.00235063       0.00276369
O        2.12791485       2.98650821       3.68564500      -0.00156847       0.00236380      -0.00298834
O        3.52500889       1.01071038       6.10549174       0.00165716      -0.00237662       0.00279284
