9
Lattice="4.809414641196184 -3.2668978164130325e-06 2.77671157037331 1.6031350987218866 4.534359444156554 2.776711630907831 -2.686775062771715e-06 -1.825697725975603e-06 5.553427794377908" Properties=species:S:1:pos:R:3:forces:R:3 energy=-40.187225341796875 free_energy=-40.187225341796875 stress="-0.0006206164252944291 1.3804469745082315e-05 1.2992173651582561e-05 1.3804469745082315e-05 -0.000620549195446074 9.134711945080198e-06 1.2992173651582561e-05 9.134711945080198e-06 -0.0005819519283249974" pbc="T T T"
Os       1.60320484       1.13364716       2.77669946       0.00281764       0.00225340      -0.00018927
Os       4.80932638       3.40075239       8.33002481      -0.00339154      -0.00065576      -0.00429392
As       0.00000041      -0.00000203       0.00000501       0.00003284      -0.00008637       0.00024238
S        1.76107581       1.24524099       5.55342704      -0.00172424      -0.00207546      -0.00004736
S        4.65148303       3.28909537       5.55348044       0.00210088       0.00146225       0.00198950
S        3.92884892       1.24525364       4.30182606      -0.00012544      -0.00160119      -0.00229019
S        2.48370992       3.28906560       6.80506576       0.00061312       0.00047749       0.00371873
S        2.48366904       3.28906678       4.30181849      -0.00097057       0.00032893      -0.00256342
S        3.92886980       1.24529752       6.80505679       0.00064701      -0.00010315       0.00343347
