9
Lattice="5.375493068732902 7.327365670717736e-08 3.103542489766761 1.791831098988233 5.06806314633979 3.1035424776524216 2.7313052422995193e-07 1.7829550725938715e-07 6.207084506457535" Properties=species:S:1:pos:R:3:forces:R:3 energy=-35.82652282714844 free_energy=-35.82652282714844 stress="0.0001041115538100712 4.310510348659591e-08 -6.667607976851286e-07 4.310510348659591e-08 0.00010516813199501485 -5.142782129041734e-07 -6.667607976851286e-07 -5.142782129041734e-07 0.00010431332339067012" pbc="T T T"
Os       1.79183072       1.26701680       3.10354063      -0.00001105       0.00000956      -0.00005822
Os       5.37549077       3.80105876       9.31064206      -0.00006564       0.00026612       0.00035940
As       0.00000019      -0.00000030      -0.00000043       0.00000214      -0.00000482      -0.00000668
Se       1.95882282       1.38508995       6.20708588      -0.00198197      -0.00156096       0.00003337
Se       5.20850479       3.68296883       6.20707748       0.00205684       0.00145619      -0.00018195
Se       4.39608377       1.38509439       4.79992995       0.00104196      -0.00146027      -0.00176978
Se       2.77123889       3.68296793       7.61423908      -0.00108555       0.00143968       0.00176030
Se       2.77124436       3.68296885       4.79992777      -0.00092813       0.00146744      -0.00183064
Se       4.39608161       1.38508839       7.61423544       0.00097156      -0.00161274       0.00169423
