9
Lattice="4.259323725474716 7.185635380218668e-08 2.4591217242766823 1.4197746076800848 4.015729009085556 2.459121785288119 3.4108164666517384e-08 9.884156839130427e-08 4.9182433894762765" Properties=species:S:1:pos:R:3:forces:R:3 energy=-49.085533142089844 free_energy=-49.085533142089844 stress="9.565498476149514e-05 -2.0324675631400169e-07 -4.5394421022137976e-07 -2.0324675631400169e-07 9.492693789070472e-05 -4.402599813602137e-07 -4.5394421022137976e-07 -4.402599813602137e-07 9.511326061328873e-05" pbc="T T T"
Os       1.41976583       1.00392904       2.45913186      -0.00027078      -0.00011548       0.00034268
Os       4.25931756       3.01179137       7.37738057      -0.00020981      -0.00016736       0.00046380
Ga      -0.00000045      -0.00000027       0.00000040      -0.00000857      -0.00000159       0.00001976
O        1.46824011       1.03820230       4.91824033       0.00125659       0.00088018      -0.00012980
O        4.21086034       2.97752730       4.91823529      -0.00119114      -0.00086206      -0.00023257
O        3.52520668       1.03820565       3.73065077      -0.00053111       0.00099134       0.00095844
O        2.15389596       2.97753134       6.10582892       0.00066611      -0.00074857      -0.00118351
O        2.15389766       2.97752670       3.73065005       0.00074327      -0.00086939       0.00094140
O        3.52520974       1.03820332       6.10582908      -0.00045374       0.00089288      -0.00117993
