9
Lattice="4.864284719875762 8.672076258771435e-07 2.80839715758535 1.6214290691614521 4.58609099799939 2.808397137508149 3.042929931773165e-08 -3.0726830439590168e-09 5.616794262465585" Properties=species:S:1:pos:R:3:forces:R:3 energy=-39.43898391723633 free_energy=-39.43898391723633 stress="-3.446712435106747e-05 -3.383816874702461e-06 -3.086770163918118e-07 -3.383816874702461e-06 -3.299822492408566e-05 -2.530920539811632e-07 -3.086770163918118e-07 -2.530920539811632e-07 -4.34804787801113e-05" pbc="T T T"
Os       1.62139163       1.14649050       2.80839325      -0.00105787      -0.00089158      -0.00009830
Os       4.86430744       3.43957221       8.42519235       0.00069696       0.00017602       0.00002530
Ga       0.00000093       0.00000174       0.00000085       0.00002366       0.00005713       0.00001399
S        1.74930947       1.23695276       5.61679466       0.00108558       0.00089878       0.00003826
S        4.73640319       3.34914498       5.61679487      -0.00111735      -0.00073543       0.00000176
S        3.98964355       1.23694693       4.32335699      -0.00019032       0.00063848       0.00130820
S        2.49607856       3.34915698       6.91022900       0.00039575      -0.00040159      -0.00136805
S        2.49608011       3.34915779       4.32336036       0.00042447      -0.00035083       0.00138140
S        3.98964020       1.23694337       6.91023179      -0.00026101       0.00060973      -0.00130305
