9
Lattice="5.484543389380758 1.600446562244842e-07 3.1665029654552814 1.8281813304971655 5.170876944719458 3.16650287917837 8.793056784623586e-08 -4.349088641879379e-08 6.333005778610332" Properties=species:S:1:pos:R:3:forces:R:3 energy=-34.68136978149414 free_energy=-34.68136978149414 stress="-8.514802175341174e-06 -2.250535402481546e-07 -4.0338850482157795e-08 -2.250535402481546e-07 -8.316687853948679e-06 -6.99338045251352e-08 -4.0338850482157795e-08 -6.99338045251352e-08 -9.121296898229048e-06" pbc="T T T"
Os       1.82817300       1.29271525       3.16650327      -0.00018681      -0.00009950       0.00001291
Os       5.48454739       3.87816340       9.49951179       0.00009277       0.00012854       0.00006664
Ga       0.00000030       0.00000078      -0.00000054      -0.00000753      -0.00001114       0.00000756
Se       1.97053622       1.39337801       6.33300565       0.00156148       0.00107326      -0.00000336
Se       5.34218884       3.77749709       6.33300403      -0.00152557      -0.00109744      -0.00003631
Se       4.49927775       1.39337720       4.87304026      -0.00071445       0.00104225       0.00140369
Se       2.81344836       3.77750063       7.79297169       0.00073966      -0.00102736      -0.00140128
Se       2.81344957       3.77749946       4.87303926       0.00076303      -0.00103003       0.00137359
Se       4.49927769       1.39337635       7.79297109      -0.00072276       0.00102147      -0.00142337
