9
Lattice="2.797545995301717 -1.1930947886752095 -0.06577224503402018 0.7096716643742226 2.269809046922551 1.505716681050866 -0.6568068472327884 -0.125147829331754 3.130639386229873" Properties=species:S:1:pos:R:3:forces:R:3 energy=-112448744.0 free_energy=-112448744.0 stress="44813700.0 -5736840.0 1163344.625 -5736840.0 57319164.0 763169.0 1163344.625 763169.0 61305992.0" pbc="T T T"
Os       1.37071237      -0.04297735       0.40051029 -94141184.00000000 204341056.00000000 94377720.00000000
Os       2.99265662      -0.57861460       3.12710836 346607424.00000000 -219941712.00000000 -95404576.00000000
N        0.62217929       0.24410703       0.81000095 69810728.00000000 58561448.00000000 -179394160.00000000
O       -0.14101738      -1.98270892       4.32087312 -7940052.00000000 -25232126.00000000 89604880.00000000
O        2.97545656       0.96156234       2.48278156 2572260.00000000 25867574.00000000 25876248.00000000
O        2.42599731      -2.63969438       2.75205106 40145484.00000000 -156627488.00000000 -195364240.00000000
O        2.03745585       0.41698333       3.95076994 -44752168.00000000 -29616882.00000000  748472.00000000
O        1.49684012       0.51826342       1.43262018 -14136952.00000000 36595668.00000000 -58092172.00000000
O        2.91785470      -0.68979280       2.73698202 -298165376.00000000 106052256.00000000 317647744.00000000
