9
Lattice="6.06458933290519 -5.67336661437562e-07 3.5013914852608066 2.021529228485732 5.717748343563287 3.5013915099584354 -2.0427670259438502e-07 -1.1419714824679196e-07 7.002783324339217" Properties=species:S:1:pos:R:3:forces:R:3 energy=-20.10295867919922 free_energy=-20.10295867919922 stress="2.604065684863599e-06 -4.22826822443767e-08 1.2089793699487927e-07 -4.22826822443767e-08 1.8783570112645975e-06 4.099035422200359e-08 1.2089793699487927e-07 4.099035422200359e-08 2.415698190816329e-06" pbc="T T T"
P        2.02153037       1.42942853       3.50139580       0.00000296      -0.00007624       0.00003252
P        6.06458366       4.28831371      10.50417946      -0.00003986       0.00002507       0.00004520
B        0.00000185       0.00000081      -0.00000091       0.00000626       0.00000053       0.00000249
Br       1.87299333       1.32440361       7.00278194      -0.00015225      -0.00012046      -0.00001679
Br       6.21312494       4.39334445       7.00278066       0.00015210       0.00013122      -0.00001899
Br       5.12809238       1.32440549       5.12345019       0.00007568      -0.00011124      -0.00014956
Br       2.95802654       4.39334522       8.88211366      -0.00006734       0.00013614       0.00011953
Br       2.95802792       4.39334402       5.12344894      -0.00006232       0.00012591      -0.00014711
Br       5.12809244       1.32440480       8.88211536       0.00008491      -0.00011069       0.00013290
