9
Lattice="4.923166034815708 1.2988462973875961e-08 2.8423913274664203 1.641055355630149 4.641605728635746 2.8423913301581365 -2.8759539382712146e-08 -1.7039409065495207e-08 5.68478270474582" Properties=species:S:1:pos:R:3:forces:R:3 energy=-22.66042137145996 free_energy=-22.66042137145996 stress="0.0001759598817443475 -4.3731247956202424e-07 5.029155758506931e-08 -4.3731247956202424e-07 0.00017486748402006924 2.229498008432529e-08 5.029155758506931e-08 2.229498008432529e-08 0.00017559932894073427" pbc="T T T"
P        1.64105517       1.16040147       2.84239128      -0.00000335       0.00000257      -0.00000150
P        4.92316611       3.48120434       8.52717435       0.00000255      -0.00000184       0.00000274
B       -0.00000002      -0.00000032       0.00000078       0.00000041       0.00000019      -0.00000048
Cl       1.58616734       1.12158968       5.68478253      -0.00218786      -0.00154960       0.00000082
Cl       4.97805407       3.52001623       5.68478237       0.00218755       0.00154918       0.00000074
Cl       4.13008258       1.12158988       4.21605247       0.00109514      -0.00154895      -0.00189677
Cl       2.43413880       3.52001598       7.15351272      -0.00109402       0.00154566       0.00189350
Cl       2.43413893       3.52001604       4.21605239      -0.00109433       0.00154961      -0.00189426
Cl       4.13008245       1.12158963       7.15351259       0.00109356      -0.00154661       0.00189532
