9
Lattice="4.242959953004546 5.10325557748184e-07 2.449673265114704 1.4143209963727488 4.000297315415379 2.4496723455719054 6.75798966724813e-07 -6.483428135056139e-07 4.899345359711081" Properties=species:S:1:pos:R:3:forces:R:3 energy=-40.263099670410156 free_energy=-40.263099670410156 stress="0.0009513853583484888 -1.923858690133784e-06 -2.772275138340774e-06 -1.923858690133784e-06 0.0009471134981140494 -1.981965169761679e-06 -2.772275138340774e-06 -1.981965169761679e-06 0.0009463222813792527" pbc="T T T"
P        1.41436635       1.00006303       2.44968664       0.00026178      -0.00003488       0.00005931
P        4.24297022       3.00024393       7.34898646       0.00008947       0.00009100      -0.00014762
B        0.00002054      -0.00000210       0.00000517       0.00001702      -0.00003368       0.00003344
F        1.31240912       0.92800376       4.89934264      -0.00671831      -0.00468747       0.00000640
F        4.34485088       3.07228109       4.89935649       0.00647011       0.00463998      -0.00003970
F        3.58673954       0.92801761       3.58625816       0.00329188      -0.00462219      -0.00567542
F        2.07051857       3.07227425       6.21244013      -0.00339362       0.00470996       0.00570984
F        2.07051222       3.07228182       3.58625420      -0.00331452       0.00466290      -0.00566186
F        3.58673984       0.92802420       6.21243350       0.00329689      -0.00472546       0.00571521
