9
Lattice="6.338195446255888 1.3741107619246671e-08 3.6593582039645414 2.112731831249303 5.975708885763683 3.65935819898411 -3.121539517671662e-07 -2.2682591797968986e-07 7.3187169485956" Properties=species:S:1:pos:R:3:forces:R:3 energy=-16.89621353149414 free_energy=-16.89621353149414 stress="0.00013336229312699288 -2.1866879862386668e-08 -3.134523751668894e-08 -2.1866879862386668e-08 0.0001331488456344232 -1.4723330998833717e-08 -3.134523751668894e-08 -1.4723330998833717e-08 0.00013341556768864393" pbc="T T T"
P        2.11272741       1.49392096       3.65939000      -0.00003710      -0.00005271       0.00026620
P        6.33819251       4.48179443      10.97810020      -0.00002545       0.00010956       0.00021145
B       -0.00000041      -0.00000003      -0.00000006      -0.00000239       0.00000287       0.00001155
I        2.03728224       1.44057003       7.31870260       0.00382057       0.00264509      -0.00012194
I        6.41364771       4.53513522       7.31870479      -0.00379840      -0.00267604      -0.00009651
I        5.31955082       1.44057429       5.42368815      -0.00192906       0.00268018       0.00323939
I        3.13137097       4.53514147       9.21373160       0.00189772      -0.00262593      -0.00336066
I        3.13137620       4.53513220       5.42368783       0.00193259      -0.00270227       0.00322911
I        5.31956035       1.44056601       9.21372838      -0.00185841       0.00261934      -0.00337866
