9
Lattice="5.3692862668676495 -1.8066281099432613e-07 3.09995872806012 1.7897619148444877 5.062211550770703 3.0999587346088013 -1.9458316533327664e-08 -5.738651728602128e-09 6.19991748982303" Properties=species:S:1:pos:R:3:forces:R:3 energy=-18.399919509887695 free_energy=-18.399919509887695 stress="0.000107986677903682 -1.0192147570364796e-08 7.569046545086167e-08 -1.0192147570364796e-08 0.00010782284516608343 3.76229039034115e-08 7.569046545086167e-08 3.76229039034115e-08 0.00010780514276120812" pbc="T T T"
P        1.78976260       1.26555239       3.09995882       0.00000474      -0.00000556       0.00000143
P        5.36928503       3.79665866       9.29987632      -0.00001229       0.00000068       0.00000181
C       -0.00000004      -0.00000012       0.00000103      -0.00000070      -0.00000125       0.00000803
Br       1.75379358       1.24011900       6.19991747       0.00276360       0.00194784      -0.00000264
Br       5.40525459       3.82209246       6.19991726      -0.00275728      -0.00194751      -0.00000278
Br       4.49238946       1.24011910       4.61878788      -0.00138201       0.00195363       0.00238711
Br       2.66665892       3.82209237       7.78104643       0.00138153      -0.00194950      -0.00238803
Br       2.66665905       3.82209245       4.61878793       0.00138283      -0.00195077       0.00238565
Br       4.49238946       1.24011916       7.78104661      -0.00138058       0.00195245      -0.00239053
