9
Lattice="4.93529577356074 4.0335522605149856e-08 2.849394277596824 1.6450986128791059 4.6530411674328676 2.8493943058924893 1.5067708967283697e-07 1.411997562633539e-07 5.698788294213262" Properties=species:S:1:pos:R:3:forces:R:3 energy=-19.607086181640625 free_energy=-19.607086181640625 stress="3.160073674735031e-06 6.875285407659248e-08 5.1036064263598746e-08 6.875285407659248e-08 3.2864541026356164e-06 2.7666796853509368e-08 5.1036064263598746e-08 2.7666796853509368e-08 3.3552353215782205e-06" pbc="T T T"
P        1.64509861       1.16326014       2.84939414       0.00000184       0.00000050       0.00000004
P        4.93529577       3.48978122       8.54818259      -0.00000206       0.00000029      -0.00000054
C       -0.00000002      -0.00000037      -0.00000008       0.00000086      -0.00000182      -0.00000343
Cl       1.63571476       1.15662507       5.69878841       0.00055540       0.00038952      -0.00000409
Cl       4.94467949       3.49641634       5.69878856      -0.00054181      -0.00038379      -0.00000265
Cl       4.11743870       1.15662513       4.26596496      -0.00028241       0.00039005       0.00047708
Cl       2.46295594       3.49641649       7.13161202       0.00027281      -0.00038958      -0.00047064
Cl       2.46295604       3.49641622       4.26596479       0.00027430      -0.00039190       0.00047493
Cl       4.11743883       1.15662525       7.13161199      -0.00027925       0.00038695      -0.00047123
