9
Lattice="4.438822478754286 1.0966681341706365e-06 2.562755355584005 1.4796081137878139 4.184964496581734 2.5627560710576653 1.6807354704995586e-07 9.951186389551843e-07 5.125510420056092" Properties=species:S:1:pos:R:3:forces:R:3 energy=-35.22106170654297 free_energy=-35.22106170654297 stress="-0.0006728179287165403 -1.6351671661141154e-07 -1.9742580548154365e-07 -1.6351671661141154e-07 -0.0006731935427524149 -1.2657386605496868e-07 -1.9742580548154365e-07 -1.2657386605496868e-07 -0.0006729359738528728" pbc="T T T"
P        1.47961103       1.04624242       2.56275859       0.00002011       0.00000232       0.00002165
P        4.43882007       3.13872196       7.68826588      -0.00001933      -0.00001791      -0.00000341
C       -0.00000016      -0.00000064       0.00000067      -0.00000120      -0.00000710       0.00000798
F        1.33650491       0.94505278       5.12550960       0.00321275       0.00227728      -0.00000366
F        4.58192670       3.23991479       5.12551186      -0.00321218      -0.00227046      -0.00000625
F        3.77056979       0.94505227       3.72020204      -0.00160320       0.00227521       0.00277346
F        2.14786067       3.23991464       6.53081902       0.00160462      -0.00226869      -0.00278094
F        2.14786003       3.23991392       3.72020145       0.00160778      -0.00226793       0.00277260
F        3.77056986       0.94505413       6.53081839      -0.00160949       0.00227755      -0.00278157
