9
Lattice="6.361897879902262 -5.3644070377506434e-08 3.6730429302794385 2.1206323899802415 5.998055930644813 3.6730432525755705 -3.980572714673486e-07 1.13261442378147e-07 7.346086550014468" Properties=species:S:1:pos:R:3:forces:R:3 energy=-16.775554656982422 free_energy=-16.775554656982422 stress="-2.6459745640750043e-05 3.8376636979364775e-08 2.7193502560862726e-08 3.8376636979364775e-08 -2.6492942197364755e-05 -3.842400531084422e-08 2.7193502560862726e-08 -3.842400531084422e-08 -2.6337609597248957e-05" pbc="T T T"
P        2.12064741       1.49951843       3.67301433       0.00012831       0.00003587      -0.00023903
P        6.36186763       4.49853561      11.01910490      -0.00025611      -0.00005189      -0.00021089
C       -0.00000007      -0.00000121      -0.00000387       0.00000022      -0.00000649      -0.00002258
I        2.13984768       1.51309580       7.34609886       0.00276500       0.00189868       0.00011580
I        6.34268483       4.48495854       7.34609801      -0.00274312      -0.00191611       0.00009994
I        5.29197409       1.51310080       5.52620555      -0.00137085       0.00194660       0.00237784
I        3.19056733       4.48495102       9.16598614       0.00147676      -0.00199899      -0.00223321
I        3.19056276       4.48495880       5.52620217       0.00143236      -0.00191966       0.00236064
I        5.29196782       1.51310623       9.16598462      -0.00143272       0.00201190      -0.00224856
