9
Lattice="4.997045180600371 1.5642547029476086e-08 2.885045243836068 1.6656817186134478 4.711259416588997 2.8850452836754417 -6.005783842877929e-09 4.454633721125207e-08 5.770090498074463" Properties=species:S:1:pos:R:3:forces:R:3 energy=-19.289886474609375 free_energy=-19.289886474609375 stress="-0.0001650399062782526 -2.7593939577741367e-08 2.5026945849049298e-08 -2.7593939577741367e-08 -0.00016511719150003046 2.4242829965714918e-08 2.5026945849049298e-08 2.4242829965714918e-08 -0.00016502432117704302" pbc="T T T"
P        1.66568170       1.17781482       2.88504539       0.00000124      -0.00000118       0.00000108
P        4.99704515       3.53344451       8.65513609      -0.00000093      -0.00000154       0.00000314
N       -0.00000017      -0.00000109       0.00000062      -0.00000009      -0.00000709       0.00000480
Cl       1.69123766       1.19588568       5.77009036       0.00420785       0.00297806      -0.00000020
Cl       4.97148938       3.51537425       5.77009025      -0.00420541      -0.00297379      -0.00000039
Cl       4.15142650       1.19588575       4.34969975      -0.00210366       0.00297603       0.00363913
Cl       2.51130047       3.51537407       7.19048096       0.00210392      -0.00297499      -0.00364354
Cl       2.51130056       3.51537412       4.34969978       0.00210068      -0.00297341       0.00363973
Cl       4.15142636       1.19588571       7.19048085      -0.00210342       0.00297782      -0.00364360
