9
Lattice="2.2182427464352243 -0.7611929895606077 1.2853629624314487 1.045149708731528 2.4922211612779557 1.4799618157364989 0.32478655918220883 -0.43461409594856437 2.868467169657123" Properties=species:S:1:pos:R:3:forces:R:3 energy=-2025667072.0 free_energy=-2025667072.0 stress="579225536.0 149200432.0 74752856.0 149200432.0 481951136.0 103823560.0 74752856.0 103823560.0 545865280.0" pbc="T T T"
P       -1.00834876       1.34396228       4.01336286 722039744.00000000 -745799872.00000000 -436507136.00000000
P        0.17057274       1.80346529       6.70866508 -108581440.00000000 19882528.00000000 439238208.00000000
N       -1.68533202       1.06988313       2.35702398 900509312.00000000 562090688.00000000 -321271904.00000000
F       -0.23639055       0.65486526       5.59548020 459120064.00000000 2275396608.00000000 -15720960000.00000000
F        2.42541206       2.54948515       5.10256880 93086016.00000000 2592559616.00000000 5387218944.00000000
F        0.73946567      -0.36011392       3.44295090 3321504256.00000000 1289998720.00000000 926619392.00000000
F       -0.05944290       0.83970577       5.49509182 4937059328.00000000 -11100628992.00000000 6605336064.00000000
F       -0.20043977       1.31355606       2.62566292 -12131438592.00000000 8066348032.00000000 11696718848.00000000
F        0.20696786       1.08242261       5.73257729 1806700544.00000000 -2959848192.00000000 -8576402432.00000000
