9
Lattice="4.838601598867828 8.963707448783924e-09 2.7935680338857427 1.6128672071274475 4.561877504846859 2.793568035524694 -2.423144956892596e-08 -1.5126914167819878e-08 5.587136109741609" Properties=species:S:1:pos:R:3:forces:R:3 energy=-47.489173889160156 free_energy=-47.489173889160156 stress="-0.00042004146962426603 -2.5637035605541314e-08 1.2246698100071285e-09 -2.5637035605541314e-08 -0.00041983617120422423 1.3653468577956573e-08 1.2246698100071285e-09 1.3653468577956573e-08 -0.00041974682244472206" pbc="T T T"
Pb       1.61286700       1.14046941       2.79356777      -0.00000110       0.00000039      -0.00000068
Pb       4.83860126       3.42140823       8.38070389      -0.00000083       0.00000074       0.00000053
As      -0.00000010       0.00000009       0.00000070      -0.00000074      -0.00000135      -0.00001290
O        1.51169473       1.06892927       5.58713657      -0.00227726      -0.00161207      -0.00000016
O        4.93977423       3.49294791       5.58713588       0.00228143       0.00161278      -0.00000053
O        4.08275470       1.06892950       4.10273425       0.00113690      -0.00160944      -0.00196970
O        2.36871472       3.49294787       7.07153787      -0.00114197       0.00161564       0.00197792
O        2.36871446       3.49294792       4.10273401      -0.00113893       0.00160885      -0.00197268
O        4.08275393       1.06892985       7.07153781       0.00114286      -0.00161541       0.00197756
