9
Lattice="6.482962705850944 -1.682131848246279e-09 3.74294019803262 2.1609875397619223 6.1121958847909434 3.742940245264102 -5.173379605934181e-08 2.126516032749031e-08 7.4858804856708385" Properties=species:S:1:pos:R:3:forces:R:3 energy=-26.67964744567871 free_energy=-26.67964744567871 stress="0.00011901908874278888 -2.2211943395689104e-09 -6.702388644086454e-10 -2.2211943395689104e-09 0.00011901393736479804 1.7292509646438248e-09 -6.702388644086454e-10 1.7292509646438248e-09 0.00011901921243406832" pbc="T T T"
Pb       2.16098725       1.52804943       3.74294008      -0.00000117       0.00000117      -0.00000004
Pb       6.48296291       4.58414666      11.22882131       0.00000132      -0.00000091       0.00000221
As       0.00000002       0.00000016      -0.00000026      -0.00000026      -0.00000042       0.00000012
Br       2.16500239       1.53088818       7.48588053      -0.00123048      -0.00086932      -0.00000003
Br       6.47894766       4.58130771       7.48588042       0.00123034       0.00086954      -0.00000103
Br       5.40046175       1.53088794       5.61788727       0.00061583      -0.00086914      -0.00106572
Br       3.24348861       4.58130766       9.35387329      -0.00061557       0.00086913       0.00106519
Br       3.24348857       4.58130802       5.61788749      -0.00061476       0.00086926      -0.00106534
Br       5.40046158       1.53088783       9.35387358       0.00061473      -0.00086939       0.00106467
