9
Lattice="5.230392083022691 9.15605134047795e-08 3.0197684127543103 1.7434640521217384 4.931261058664362 3.019768519927747 -1.4086774276252133e-07 3.165156048188617e-08 6.03953706949873" Properties=species:S:1:pos:R:3:forces:R:3 energy=-40.13038635253906 free_energy=-40.13038635253906 stress="-4.048430491820909e-05 3.0510782789150426e-09 2.9325939454594163e-09 3.0510782789150426e-09 -4.042141154059209e-05 1.346005418234597e-09 2.9325939454594163e-09 1.346005418234597e-09 -4.0462760807713494e-05" pbc="T T T"
Pb       1.74346418       1.23281520       3.01976833       0.00000013      -0.00000088       0.00000001
Pb       5.23039194       3.69844608       9.05930552       0.00000003       0.00000051       0.00000007
As      -0.00000082      -0.00000027       0.00000075       0.00001521       0.00000394      -0.00001625
F        1.71550798       1.21304740       6.03953708      -0.00474516      -0.00335509       0.00000161
F        5.25834869       3.71821447       6.03953683       0.00473905       0.00335166       0.00000203
F        4.37263843       1.21304657       4.50544164       0.00236759      -0.00335199      -0.00410223
F        2.60121785       3.71821387       7.57363194      -0.00237396       0.00335413       0.00410962
F        2.60121754       3.71821425       4.50544151      -0.00237188       0.00335144      -0.00410360
F        4.37263798       1.21304717       7.57363229       0.00236912      -0.00335363       0.00410882
