9
Lattice="5.9349612425389395 5.119461654267523e-08 3.42655150239145 1.978320456245658 5.59553555962369 3.426551513131449 -1.6451114530241501e-07 -1.0317319634210199e-07 6.853103289724592" Properties=species:S:1:pos:R:3:forces:R:3 energy=-34.05470657348633 free_energy=-34.05470657348633 stress="3.1254450732376426e-05 5.2738320377443415e-09 4.6145146731513265e-11 5.2738320377443415e-09 3.128165553789586e-05 -1.3952131006078616e-08 4.6145146731513265e-11 -1.3952131006078616e-08 3.126993397017941e-05" pbc="T T T"
Pb       1.97832021       1.39888352       3.42655161      -0.00000039      -0.00000027      -0.00000047
Pb       5.93496164       4.19665149      10.27965483      -0.00000075       0.00000069      -0.00000029
As       0.00000005       0.00000019       0.00000026       0.00000020      -0.00000119      -0.00000152
Se       2.07991995       1.47072551       6.85310326       0.00020641       0.00014606      -0.00000018
Se       5.83336145       4.12481001       6.85310300      -0.00020567      -0.00014612       0.00000066
Se       4.89500110       1.47072578       5.22781525      -0.00010300       0.00014600       0.00017940
Se       3.01828033       4.12480978       8.47839085       0.00010227      -0.00014527      -0.00017788
Se       3.01828063       4.12480988       5.22781543       0.00010237      -0.00014505       0.00017804
Se       4.89500077       1.47072585       8.47839071      -0.00010143       0.00014514      -0.00017773
