9
Lattice="5.7231427878181735 -1.222365514333652e-08 3.304258007351963 1.9077142353418803 5.395830959649975 3.304258034613704 4.724115501062863e-08 6.679324109610378e-08 6.608515932879838" Properties=species:S:1:pos:R:3:forces:R:3 energy=-36.294918060302734 free_energy=-36.294918060302734 stress="0.00022316872491501272 -3.054217145859184e-08 1.2772287227846846e-08 -3.054217145859184e-08 0.00022316306421998888 -2.1925986359860872e-08 1.2772287227846846e-08 -2.1925986359860872e-08 0.00022322752920445055" pbc="T T T"
Pb       1.90771426       1.34895773       3.30425810      -0.00000086      -0.00000005      -0.00000035
Pb       5.72314303       4.04687325       9.91277417       0.00000011      -0.00000085      -0.00000101
As       0.00000005       0.00000009      -0.00000030      -0.00000042      -0.00000217      -0.00000063
S        1.93993219       1.37173928       6.60851618       0.00010997       0.00007647      -0.00000034
S        5.69092453       4.02409164       6.60851626      -0.00010812      -0.00007492       0.00000031
S        4.75317661       1.37173933       4.98428847      -0.00005472       0.00007635       0.00009394
S        2.87768066       4.02409151       8.23274335       0.00005302      -0.00007468      -0.00009215
S        2.87768036       4.02409138       4.98428864       0.00005388      -0.00007576       0.00009179
S        4.75317670       1.37173971       8.23274314      -0.00005269       0.00007540      -0.00009203
