9
Lattice="6.902399357093311 -5.8911006379915816e-08 3.9851021715364046 2.300799753181834 6.507644529450753 3.985102131654387 5.891491532906983e-09 -4.467938990074483e-08 7.970204332868446" Properties=species:S:1:pos:R:3:forces:R:3 energy=-23.841720581054688 free_energy=-23.841720581054688 stress="0.0001589259918546304 -4.9569517379666195e-09 6.223818127537584e-10 -4.9569517379666195e-09 0.0001589255261933431 -1.0498976132922166e-09 6.223818127537584e-10 -1.0498976132922166e-09 0.00015893134695943445" pbc="T T T"
Pb       2.30079988       1.62691111       3.98510216      -0.00000020       0.00000049      -0.00000000
Pb       6.90239923       4.88073328      11.95530646      -0.00000006      -0.00000011      -0.00000046
As      -0.00000015       0.00000019      -0.00000028       0.00000042      -0.00000109       0.00000059
I        2.32780165       1.64600430       7.97020425      -0.00687239      -0.00485961       0.00000018
I        6.87539749       4.86164010       7.97020431       0.00687256       0.00485934       0.00000016
I        5.73849849       1.64600430       6.00103759       0.00343609      -0.00485944      -0.00595171
I        3.46470055       4.86164016       9.93937097      -0.00343599       0.00485961       0.00595223
I        3.46470074       4.86163993       6.00103790      -0.00343660       0.00486008      -0.00595260
I        5.73849859       1.64600430       9.93937119       0.00343617      -0.00485924       0.00595164
