9
Lattice="6.1808503994166095 1.4305325207011325e-07 3.5685154957281675 2.0602836030007046 5.827361380270935 3.5685154928588116 5.1216918817788594e-08 3.270168734101406e-08 7.137030902746043" Properties=species:S:1:pos:R:3:forces:R:3 energy=-32.51713180541992 free_energy=-32.51713180541992 stress="-4.146759965806268e-05 1.043740560646711e-08 -1.3831046530299318e-08 1.043740560646711e-08 -4.1463779780315235e-05 1.9067215362156276e-08 -1.3831046530299318e-08 1.9067215362156276e-08 -4.148098378209397e-05" pbc="T T T"
Pb       2.06028380       1.45684067       3.56851536       0.00000113      -0.00000035      -0.00000050
Pb       6.18084987       4.37052145      10.70554592      -0.00000174       0.00000029      -0.00000065
Bi       0.00000006      -0.00000020      -0.00000122      -0.00000175      -0.00000019       0.00001080
Se       2.29802892       1.62495156       7.13703104      -0.00026152      -0.00018572      -0.00000098
Se       5.94310520       4.20240954       7.13703103       0.00026283       0.00018569      -0.00000118
Se       5.03183598       1.62495164       5.55866704       0.00013095      -0.00018539      -0.00022802
Se       3.20929841       4.20240974       8.71539594      -0.00012825       0.00018328       0.00022415
Se       3.20929800       4.20240991       5.55866667      -0.00013005       0.00018454      -0.00022723
Se       5.03183599       1.62495194       8.71539577       0.00012842      -0.00018214       0.00022352
