9
Lattice="7.072590006333428 -3.1598721699338344e-08 4.083361783342883 2.357529927759012 6.668101865380338 4.083361860524035 -4.547111946722085e-08 6.237430372538378e-08 8.166723645444023" Properties=species:S:1:pos:R:3:forces:R:3 energy=-23.668846130371094 free_energy=-23.668846130371094 stress="0.00019855993741657585 -1.2913975666606348e-08 3.878941612356357e-09 -1.2913975666606348e-08 0.0001985718699870631 -6.071291913656296e-09 3.878941612356357e-09 -6.071291913656296e-09 0.0001985794515348971" pbc="T T T"
Pb       2.35753002       1.66702543       4.08336173      -0.00000016       0.00000006      -0.00000012
Pb       7.07258978       5.00107641      12.25008550      -0.00000008      -0.00000028       0.00000001
Bi      -0.00000000      -0.00000004       0.00000050       0.00000064      -0.00000005      -0.00000263
I        2.48523101       1.75732382       8.16672362      -0.00496687      -0.00351189       0.00000052
I        6.94488879       4.91077808       8.16672361       0.00496718       0.00351240       0.00000009
I        5.82997444       1.75732387       6.23563517       0.00248368      -0.00351259      -0.00430206
I        3.60014565       4.91077797      10.09781194      -0.00248466       0.00351311       0.00430325
I        3.60014546       4.91077810       6.23563508      -0.00248428       0.00351313      -0.00430278
I        5.82997439       1.75732395      10.09781200       0.00248456      -0.00351391       0.00430368
