9
Lattice="6.60905615493425 -3.746037480833706e-08 3.81574036184336 2.2030186297681777 6.2310779790699655 3.8157404540321815 -6.234306648628191e-08 6.882459610341093e-08 7.631480831668045" Properties=species:S:1:pos:R:3:forces:R:3 energy=-26.675739288330078 free_energy=-26.675739288330078 stress="9.298832446802408e-05 -8.430900422240484e-09 -3.7683807185828755e-09 -8.430900422240484e-09 9.299528028350323e-05 5.360860644287868e-09 -3.7683807185828755e-09 5.360860644287868e-09 9.2995775048621e-05" pbc="T T T"
Pb       2.20301885       1.55776950       3.81574050       0.00000058       0.00000059       0.00000029
Pb       6.60905601       4.67330832      11.44722145      -0.00000021      -0.00000071       0.00000136
Bi      -0.00000037      -0.00000028      -0.00000009       0.00000414       0.00000142       0.00000282
Br       2.30971660       1.63321654       7.63148076      -0.00093190      -0.00065864      -0.00000023
Br       6.50235842       4.59786193       7.63148075       0.00092836       0.00065666      -0.00000063
Br       5.45419752       1.63321666       5.81601375       0.00046597      -0.00065891      -0.00080746
Br       3.35787713       4.59786145       9.44694778      -0.00046572       0.00065805       0.00080590
Br       3.35787697       4.59786149       5.81601372      -0.00046567       0.00065877      -0.00080684
Br       5.45419775       1.63321643       9.44694797       0.00046445      -0.00065722       0.00080479
