9
Lattice="6.616087769817169 -1.0475556546659048e-07 3.819800423796595 2.2053624720874017 6.2377076772421365 3.8198004568566546 -9.920461302315811e-08 -2.9658115642925926e-08 7.639601019420657" Properties=species:S:1:pos:R:3:forces:R:3 energy=-23.198904037475586 free_energy=-23.198904037475586 stress="-6.946453504497185e-05 2.266206777790103e-08 -2.647204233596767e-09 2.266206777790103e-08 -6.947077781660482e-05 -1.7276038377644909e-09 -2.647204233596767e-09 -1.7276038377644909e-09 -6.94951813784428e-05" pbc="T T T"
Pb       2.20536394       1.55942641       3.81980078       0.00000215      -0.00000070       0.00000081
Pb       6.61608677       4.67827955      11.45940129      -0.00000152      -0.00000242      -0.00000034
B       -0.00000032       0.00000023       0.00000014       0.00000022       0.00000032       0.00000007
I        2.08578437       1.47487275       7.63960083       0.00077852       0.00055143      -0.00000026
I        6.73566547       4.76283507       7.63960071      -0.00077752      -0.00054875       0.00000047
I        5.57319497       1.47487327       5.62614336      -0.00039000       0.00055061       0.00067376
I        3.24825492       4.76283490       9.65305840       0.00038981      -0.00055119      -0.00067469
I        3.24825561       4.76283471       5.62614367       0.00038899      -0.00055082       0.00067415
I        5.57319489       1.47487331       9.65305842      -0.00039068       0.00055148      -0.00067395
