9
Lattice="5.843757434985177 -2.639873685160148e-07 3.373894702996387 1.9479189752279655 5.509547253121637 3.3738945659520136 -3.164305280403357e-07 -3.915944818491522e-07 6.7477899540662944" Properties=species:S:1:pos:R:3:forces:R:3 energy=-30.301359176635742 free_energy=-30.301359176635742 stress="7.711146463407204e-05 6.41138786505735e-09 -6.730008550448474e-08 6.41138786505735e-09 7.725993054918945e-05 -1.7207876013003442e-08 -6.730008550448474e-08 -1.7207876013003442e-08 7.708503835601732e-05" pbc="T T T"
Pb       1.94791990       1.37738695       3.37389408       0.00000162       0.00000263      -0.00000223
Pb       5.84375747       4.13216211      10.12168452       0.00000156       0.00000283      -0.00000080
B        0.00000780       0.00000316       0.00000344       0.00007602       0.00002575       0.00004748
Cl       1.70337423       1.20446744       6.74779072      -0.00141594      -0.00100351      -0.00000464
Cl       6.08829856       4.30507541       6.74779037       0.00133589       0.00095282      -0.00001064
Cl       4.99206851       1.20446830       4.84906127       0.00069195      -0.00097493      -0.00119579
Cl       2.79960638       4.30507603       8.64651623      -0.00068840       0.00097906       0.00118613
Cl       2.79960463       4.30507709       4.84905995      -0.00068665       0.00098623      -0.00119999
Cl       4.99206679       1.20446912       8.64651604       0.00068410      -0.00097075       0.00118059
