9
Lattice="5.392522572998518 -5.868314120680262e-09 3.113374340136441 1.797507476436881 5.084118777075897 3.113374413511688 3.4390905114599216e-08 1.1418406752160025e-07 6.226748620705941" Properties=species:S:1:pos:R:3:forces:R:3 energy=-40.807132720947266 free_energy=-40.807132720947266 stress="0.00036758891656063497 2.050644631879095e-08 -1.0961791474528582e-07 2.050644631879095e-08 0.0003676001215353608 1.5518172347128711e-07 -1.0961791474528582e-07 1.5518172347128711e-07 0.0003676001797430217" pbc="T T T"
Pb       1.79750802       1.27102972       3.11337426       0.00000003       0.00000039      -0.00000032
Pb       5.39252221       3.81308902       9.34012318      -0.00000007       0.00000038       0.00000086
Bi      -0.00000004       0.00000003      -0.00000062       0.00000200       0.00000353       0.00002119
F        1.83046079       1.29433128       6.22674882       0.00023361       0.00016502       0.00000020
F        5.35956942       3.78978798       6.22674833      -0.00023702      -0.00016741      -0.00000055
F        4.47729174       1.29433186       4.69860025      -0.00011063       0.00015645       0.00019091
F        2.71273786       3.78978784       7.75489754       0.00011741      -0.00016595      -0.00020300
F        2.71273797       3.78978774       4.69859951       0.00011878      -0.00016826       0.00020495
F        4.47729242       1.29433022       7.75489824      -0.00012406       0.00017568      -0.00021431
