9
Lattice="6.270772892983219 -1.1947155590338883e-07 3.6204325197753646 2.090257531971316 5.91214136988535 3.620432496192212 2.8786369306517803e-08 -8.52832680191647e-09 7.240864989691307" Properties=species:S:1:pos:R:3:forces:R:3 energy=-30.183923721313477 free_energy=-30.183923721313477 stress="0.0001467457041144371 -3.521581959375908e-08 -4.388937269172999e-10 -3.521581959375908e-08 0.0001467738184146583 -4.2156503288204306e-10 -4.388937269172999e-10 -4.2156503288204306e-10 0.00014679656305816025" pbc="T T T"
Pb       2.09025758       1.47803530       3.62043248      -0.00000030       0.00000021      -0.00000119
Pb       6.27077287       4.43410580      10.86129749       0.00000034      -0.00000024       0.00000124
Bi      -0.00000016      -0.00000015       0.00000060       0.00000043       0.00000066      -0.00000850
Cl       2.17396685       1.53722670       7.24086508      -0.00144754      -0.00102390       0.00000046
Cl       6.18706369       4.37491467       7.24086483       0.00144641       0.00102246      -0.00000049
Cl       5.18378952       1.53722680       5.50314340       0.00072431      -0.00102368      -0.00125415
Cl       3.17724111       4.37491427       8.97858640      -0.00072656       0.00102738       0.00125840
Cl       3.17724103       4.37491452       5.50314333      -0.00072410       0.00102441      -0.00125434
Cl       5.18378932       1.53722700       8.97858643       0.00072696      -0.00102717       0.00125857
