9
Lattice="4.756862928193735 -1.763351735915904e-07 2.746375910204061 1.5856209270140116 4.484812805904259 2.7463757072081325 1.1244413339453967e-07 -1.6910827717741323e-07 5.492751625649117" Properties=species:S:1:pos:R:3:forces:R:3 energy=-43.481712341308594 free_energy=-43.481712341308594 stress="6.111738184699789e-05 3.100211642959039e-08 -2.351110417464497e-08 3.100211642959039e-08 6.101760664023459e-05 4.381547213938575e-08 -2.351110417464497e-08 4.381547213938575e-08 6.123109778854996e-05" pbc="T T T"
Pb       1.58562164       1.12120303       2.74637571       0.00000145      -0.00000141       0.00000134
Pb       4.75686342       3.36360901       8.23912820       0.00000229      -0.00000001       0.00000171
B        0.00000041      -0.00000018       0.00000071       0.00000070      -0.00000130       0.00000424
F        1.37706013       0.97372863       5.49275166       0.00571716       0.00404653      -0.00000245
F        4.96542330       3.51108408       5.49275152      -0.00572017      -0.00404915      -0.00000256
F        4.06833279       0.97372810       3.93894511      -0.00286046       0.00404954       0.00495210
F        2.27415103       3.51108398       7.04655758       0.00285919      -0.00404611      -0.00495103
F        2.27415094       3.51108421       3.93894496       0.00286068      -0.00404781       0.00494969
F        4.06833233       0.97372871       7.04655702      -0.00286081       0.00404954      -0.00495318
