9
Lattice="6.231382754014539 4.3508707099692133e-07 3.5976905236888257 2.077127931993906 5.875004372014328 3.5976906326032547 1.638225153000773e-08 1.449762725155423e-07 7.195381019002751" Properties=species:S:1:pos:R:3:forces:R:3 energy=-26.44875717163086 free_energy=-26.44875717163086 stress="2.5056026061065495e-05 2.302542156940035e-08 -3.852305852092286e-08 2.302542156940035e-08 2.5164063117699698e-05 -4.78690544980509e-08 -3.852305852092286e-08 -4.78690544980509e-08 2.5201483367709443e-05" pbc="T T T"
Pb       2.07712786       1.46875070       3.59769085      -0.00000108      -0.00000029       0.00000108
Pb       6.23138315       4.40625299      10.79307086       0.00000106      -0.00000193      -0.00000228
B       -0.00000044      -0.00000241      -0.00000495       0.00000124      -0.00002328      -0.00004297
Br       1.88039096       1.32963901       7.19538119      -0.00042170      -0.00029874       0.00000364
Br       6.42811971       4.54536681       7.19538252       0.00043243       0.00031301      -0.00000069
Br       5.29118687       1.32963904       5.22615899       0.00020589      -0.00029270      -0.00036222
Br       3.01732313       4.54536836       9.16460579      -0.00022082       0.00031252       0.00038569
Br       3.01732313       4.54536703       5.22615778      -0.00020905       0.00030090      -0.00036535
Br       5.29118870       1.32963838       9.16460543       0.00021219      -0.00030978       0.00038305
