9
Lattice="5.893110201241057 -1.1018217970056365e-07 3.402388720119657 1.9643700413229204 5.556077427184249 3.4023885848060655 5.8528792435961877e-08 -1.243385200113053e-07 6.804777338864462" Properties=species:S:1:pos:R:3:forces:R:3 energy=-34.54193115234375 free_energy=-34.54193115234375 stress="0.00020849618886131793 -6.852448386496235e-09 4.395307939830673e-08 -6.852448386496235e-09 0.0002084960142383352 3.735103248914129e-08 4.395307939830673e-08 3.735103248914129e-08 0.00020851183217018843" pbc="T T T"
Pb       1.96437021       1.38901898       3.40238887       0.00000210      -0.00000053       0.00000076
Pb       5.89311026       4.16705782      10.20716613      -0.00000093       0.00000042      -0.00000112
Bi      -0.00000007       0.00000012       0.00000016       0.00000111      -0.00000135       0.00000455
S        2.04414945       1.44543145       6.80477699      -0.00270949      -0.00191437      -0.00000138
S        5.81333114       4.11064531       6.80477662       0.00270879       0.00191449       0.00000000
S        4.87103532       1.44543153       5.17267388       0.00135332      -0.00191528      -0.00234513
S        2.98644438       4.11064580       8.43688080      -0.00135321       0.00191288       0.00234319
S        2.98644469       4.11064592       5.17267386      -0.00135432       0.00191619      -0.00234476
S        4.87103583       1.44543183       8.43688117       0.00135259      -0.00191244       0.00234383
