9
Lattice="6.662339754398227 4.948270891471218e-08 3.8465037749320947 2.220779936007449 6.28131450405423 3.846503824777142 -3.196945312209403e-08 3.844160274550306e-08 7.693007605236975" Properties=species:S:1:pos:R:3:forces:R:3 energy=-29.62079620361328 free_energy=-29.62079620361328 stress="0.00020536818192340434 2.919539054957454e-09 -4.819868060224053e-09 2.919539054957454e-09 0.000205356307560578 1.0947440287623067e-08 -4.819868060224053e-09 1.0947440287623067e-08 0.00020536643569357693" pbc="T T T"
Pb       2.22077946       1.57032857       3.84650379      -0.00000103       0.00000007      -0.00000031
Pb       6.66233980       4.71098583      11.53951148       0.00000028      -0.00000012       0.00000019
Bi       0.00000023      -0.00000013      -0.00000005      -0.00000074       0.00000100       0.00000121
Te       2.47823527       1.75237703       7.69300775      -0.00199866      -0.00141308       0.00000007
Te       6.40488430       4.52893742       7.69300768       0.00199884       0.00141296      -0.00000014
Te       5.42322214       1.75237714       5.99271848       0.00100008      -0.00141317      -0.00173058
Te       3.45989758       4.52893773       9.39329669      -0.00099926       0.00141320       0.00173034
Te       3.45989760       4.52893771       5.99271842      -0.00099908       0.00141223      -0.00173041
Te       5.42322223       1.75237703       9.39329656       0.00099948      -0.00141315       0.00172955
