9
Lattice="5.5781317687593255 1.018954199145017e-07 3.220535843310153 1.8593772898812035 5.259112972848819 3.2205359514591922 -1.214229425055248e-08 1.2386908281311607e-07 6.44107170765138" Properties=species:S:1:pos:R:3:forces:R:3 energy=-34.45499801635742 free_energy=-34.45499801635742 stress="0.0003112806589342654 -2.0282906021407143e-08 4.61401157281216e-08 -2.0282906021407143e-08 0.0003112976555712521 -2.295291512410813e-09 4.61401157281216e-08 -2.295291512410813e-09 0.000311296054860577" pbc="T T T"
Pb       1.85937704       1.31477836       3.22053599       0.00000038      -0.00000046      -0.00000147
Pb       5.57813158       3.94433501       9.66160734      -0.00000090       0.00000075       0.00000133
Ga      -0.00000003      -0.00000046      -0.00000020       0.00000004       0.00000681       0.00000320
S        1.92328244       1.35996599       6.44107150      -0.00790522      -0.00559002       0.00000072
S        5.51422706       3.89914741       6.44107158       0.00790055       0.00558697      -0.00000023
S        4.61649035       1.35996609       4.88614751       0.00395325      -0.00559136      -0.00684658
S        2.82101824       3.89914762       7.99599693      -0.00394864       0.00558515       0.00684203
S        2.82101849       3.89914711       4.88614694      -0.00395039       0.00558877      -0.00684306
S        4.61649103       1.35996571       7.99599644       0.00395107      -0.00558653       0.00684384
