9
Lattice="5.941254524848821 -2.0217486697829382e-08 3.43018484702684 1.980418158413608 5.601468464303759 3.4301848426529977 -1.5034725892872842e-08 -1.5987985804131512e-08 6.860369720094579" Properties=species:S:1:pos:R:3:forces:R:3 energy=-30.56877899169922 free_energy=-30.56877899169922 stress="-0.00014431988529395312 -3.1404183697958388e-09 -9.754013152729613e-10 -3.1404183697958388e-09 -0.0001443278742954135 7.336821705727914e-10 -9.754013152729613e-10 7.336821705727914e-10 -0.00014435774937737733" pbc="T T T"
Pb       1.98041807       1.40036706       3.43018491       0.00000020       0.00000023      -0.00000008
Pb       5.94125453       4.20110131      10.29055449       0.00000056       0.00000019      -0.00000099
Ga       0.00000013       0.00000010      -0.00000011      -0.00000268      -0.00000193       0.00000204
Cl       1.93867646       1.37085125       6.86036973      -0.00025989      -0.00018381       0.00000016
Cl       5.98299618       4.23061711       6.86036975       0.00026283       0.00018564       0.00000080
Cl       4.97191624       1.37085134       5.10912795       0.00013047      -0.00018464      -0.00022604
Cl       2.94975633       4.23061723       8.61161147      -0.00013024       0.00018346       0.00022514
Cl       2.94975642       4.23061709       5.10912793      -0.00013130       0.00018425      -0.00022621
Cl       4.97191631       1.37085123       8.61161151       0.00012998      -0.00018349       0.00022537
