9
Lattice="6.792934147487967 -6.62345200476599e-08 3.921902341037994 2.264311308021821 6.404439779119167 3.921902361870403 6.185785924512584e-09 2.988847996354899e-08 7.843804671361878" Properties=species:S:1:pos:R:3:forces:R:3 energy=-23.025842666625977 free_energy=-23.025842666625977 stress="-8.980365237221122e-05 -4.370069195402948e-09 -7.299568172136617e-10 -4.370069195402948e-09 -8.979830454336479e-05 4.274880893717636e-09 -7.299568172136617e-10 4.274880893717636e-09 -8.97996942512691e-05" pbc="T T T"
Pb       2.26431123       1.60110983       3.92190204      -0.00000056       0.00000007      -0.00000047
Pb       6.79293420       4.80332978      11.76570737       0.00000059       0.00000007       0.00000056
Ga      -0.00000004      -0.00000020       0.00000002      -0.00000114       0.00000043      -0.00000113
I        2.27909856       1.61156595       7.84380485      -0.00624318      -0.00441437      -0.00000057
I        6.77814686       4.79287359       7.84380470       0.00624432       0.00441614       0.00000002
I        5.65338489       1.61156637       5.89565976       0.00312212      -0.00441623      -0.00540905
I        3.40386072       4.79287349       9.79194959      -0.00312296       0.00441650       0.00540810
I        3.40386072       4.79287369       5.89565957      -0.00312185       0.00441439      -0.00540651
I        5.65338472       1.61156649       9.79194955       0.00312264      -0.00441696       0.00540911
