9
Lattice="6.295746147970475 9.723926262099631e-09 3.6348506617286827 2.0985820720219235 5.935686389055621 3.6348506382929684 -3.847510743366849e-09 -3.1423373563901053e-08 7.269701330121389" Properties=species:S:1:pos:R:3:forces:R:3 energy=-26.614625930786133 free_energy=-26.614625930786133 stress="2.885355024773162e-05 -8.49823411641637e-09 2.407017120342747e-11 -8.49823411641637e-09 2.8853379262727685e-05 -5.920108292478687e-10 2.407017120342747e-11 -5.920108292478687e-10 2.8859123631264083e-05" pbc="T T T"
Pb       2.09858196       1.48392189       3.63485050       0.00000018       0.00000040      -0.00000058
Pb       6.29574595       4.45176473      10.90455239      -0.00000067      -0.00000035       0.00000167
Ga       0.00000027       0.00000028      -0.00000044      -0.00000244      -0.00000344       0.00000044
Br       2.09016075       1.47796672       7.26970135      -0.00470586      -0.00332715      -0.00000015
Br       6.30416692       4.45771927       7.26970115       0.00471044       0.00332996       0.00000013
Br       5.25066583       1.47796704       5.44498315       0.00235410      -0.00332929      -0.00407745
Br       3.14366246       4.45771953       9.09441952      -0.00235435       0.00332853       0.00407797
Br       3.14366286       4.45771933       5.44498321      -0.00235495       0.00332926      -0.00407838
Br       5.25066585       1.47796672       9.09441966       0.00235353      -0.00332794       0.00407635
