9
Lattice="5.908946876065693 1.4810118771028235e-08 3.4115321850495754 1.969648960087447 5.571008832028395 3.4115322068114655 -2.066680403353438e-08 1.203910362109961e-08 6.823064405895064" Properties=species:S:1:pos:R:3:forces:R:3 energy=-32.39266586303711 free_energy=-32.39266586303711 stress="5.368332131183706e-05 -8.449320354486645e-09 2.6273120568021113e-08 -8.449320354486645e-09 5.3653322538593784e-05 8.619704949808238e-09 2.6273120568021113e-08 8.619704949808238e-09 5.3629177273251116e-05" pbc="T T T"
Pb       1.96964929       1.39275251       3.41153179       0.00000002      -0.00000030       0.00000102
Pb       5.90894669       4.17825658      10.23459678       0.00000058       0.00000004      -0.00000047
Ga      -0.00000009       0.00000016      -0.00000015      -0.00000009      -0.00000258       0.00000169
Se       2.07296431       1.46580734       6.82306437      -0.00030462      -0.00021644       0.00000063
Se       5.80563114       4.10520146       6.82306426       0.00030798       0.00021692      -0.00000068
Se       4.87246461       1.46580759       5.20677199       0.00015299      -0.00021654      -0.00026502
Se       3.00613155       4.10520130       8.43935678      -0.00015402       0.00021663       0.00026773
Se       3.00613139       4.10520116       5.20677262      -0.00015412       0.00021844      -0.00026813
Se       4.87246439       1.46580743       8.43935670       0.00015137      -0.00021626       0.00026323
