9
Lattice="6.387143359471711 -3.2195376382772606e-08 3.6876189715189 2.1290477492523254 6.021856510394881 3.687618983442616 -2.2972193703480617e-08 -1.6403288894100946e-09 7.375237982826906" Properties=species:S:1:pos:R:3:forces:R:3 energy=-29.19858169555664 free_energy=-29.19858169555664 stress="-5.646889258059673e-05 -1.1808259925416564e-09 -3.807095971808394e-09 -1.1808259925416564e-09 -5.647424404742196e-05 1.712665675945857e-09 -3.807095971808394e-09 1.712665675945857e-09 -5.647648868034594e-05" pbc="T T T"
Pb       2.12904779       1.50546425       3.68761903      -0.00000031      -0.00000088       0.00000013
Pb       6.38714331       4.51639230      11.06285735      -0.00000011       0.00000002       0.00000177
Ga       0.00000008      -0.00000006       0.00000002       0.00000060       0.00000108       0.00000001
Te       2.26637277       1.60256743       7.37523800      -0.00291395      -0.00205983       0.00000028
Te       6.24981844       4.41928907       7.37523777       0.00291231       0.00205964      -0.00000060
Te       5.25395693       1.60256759       5.65035525       0.00145730      -0.00205978      -0.00252370
Te       3.26223391       4.41928888       9.10012055      -0.00145634       0.00205973       0.00252198
Te       3.26223411       4.41928903       5.65035521      -0.00145604       0.00206011      -0.00252255
Te       5.25395695       1.60256743       9.10012056       0.00145650      -0.00206014       0.00252268
