9
Lattice="4.60858175637128 2.898656698152511e-08 2.6607659990488264 1.5361939471870814 4.345012665852121 2.6607659971992477 4.498361437678326e-08 2.9542960496361508e-08 5.321531920183735" Properties=species:S:1:pos:R:3:forces:R:3 energy=-43.28157043457031 free_energy=-43.28157043457031 stress="-0.0003185077803209424 -1.270391525309833e-08 -3.333806830596586e-08 -1.270391525309833e-08 -0.00031845015473663807 6.794018236888633e-09 -3.333806830596586e-08 6.794018236888633e-09 -0.00031844418845139444" pbc="T T T"
Pb       1.53619387       1.08625323       2.66076605       0.00000021       0.00000038      -0.00000093
Pb       4.60858190       3.25875954       7.98229794      -0.00000084      -0.00000081      -0.00000102
Ga       0.00000004      -0.00000006      -0.00000036       0.00000145      -0.00000073       0.00000336
O        1.60686444       1.13622470       5.32153184      -0.00060731      -0.00042790       0.00000117
O        4.53791129       3.20878801       5.32153183       0.00060618       0.00042969       0.00000025
O        3.80514938       1.13622477       4.05235150       0.00030434      -0.00043076      -0.00052589
O        2.33962610       3.20878814       6.59071289      -0.00030196       0.00042731       0.00052291
O        2.33962624       3.20878794       4.05235143      -0.00030494       0.00043112      -0.00052476
O        3.80514974       1.13622463       6.59071278       0.00030267      -0.00042790       0.00052524
