9
Lattice="5.017864892281792 7.544173638806802e-08 2.897065602413315 1.672621692703673 4.73088861931565 2.8970656183205286 1.0945263710727817e-08 2.7221813916202313e-08 5.794131185868875" Properties=species:S:1:pos:R:3:forces:R:3 energy=-42.5818977355957 free_energy=-42.5818977355957 stress="3.99711134377867e-05 -1.2684181482924828e-09 -1.4508304779781156e-08 -1.2684181482924828e-09 4.000284388894215e-05 5.992883078675959e-09 -1.4508304779781156e-08 5.992883078675959e-09 3.995345832663588e-05" pbc="T T T"
Pb       1.67262175       1.18272212       2.89706564      -0.00000029       0.00000018       0.00000071
Pb       5.01786499       3.54816691       8.69119705       0.00000011      -0.00000081      -0.00000028
Ga      -0.00000014      -0.00000030       0.00000010       0.00000448      -0.00000025       0.00000208
F        1.56689560       1.10796273       5.79413103       0.00183851       0.00129846       0.00000032
F        5.12359093       3.62292608       5.79413101      -0.00184023      -0.00129949      -0.00000058
F        4.23441710       1.10796268       4.25403700      -0.00091945       0.00129937       0.00159255
F        2.45606946       3.62292610       7.33422541       0.00091907      -0.00129925      -0.00159237
F        2.45606955       3.62292599       4.25403695       0.00091928      -0.00129886       0.00159267
F        4.23441722       1.10796270       7.33422524      -0.00092135       0.00130057      -0.00159502
