9
Lattice="6.695523559236267 -8.371097065760746e-08 3.8656624214045627 2.2318410933422843 6.312600149014135 3.865662445906907 1.2659138619099826e-08 3.896047194235011e-08 7.731324820882798" Properties=species:S:1:pos:R:3:forces:R:3 energy=-28.213218688964844 free_energy=-28.213218688964844 stress="-1.489308851887472e-05 3.109774882048555e-09 -1.1953803502606775e-09 3.109774882048555e-09 -1.4889684280205984e-05 2.7351874098968665e-09 -1.1953803502606775e-09 2.7351874098968665e-09 -1.4891305909259245e-05" pbc="T T T"
Pb       2.23184163       1.57815020       3.86566223       0.00000032      -0.00000021       0.00000009
Pb       6.69552326       4.73445018      11.59698750      -0.00000029       0.00000041       0.00000060
Ir      -0.00000005       0.00000010       0.00000035      -0.00000007      -0.00000023      -0.00000211
I        2.19175238       1.54980323       7.73132488       0.00010338       0.00007297      -0.00000045
I        6.73561204       4.76279684       7.73132478      -0.00010339      -0.00007299      -0.00000018
I        5.59964736       1.54980290       5.76377581      -0.00005252       0.00007402       0.00008964
I        3.32771752       4.76279672       9.69887370       0.00005139      -0.00007240      -0.00008850
I        3.32771762       4.76279721       5.76377580       0.00005278      -0.00007430       0.00009026
I        5.59964691       1.54980303       9.69887371      -0.00005156       0.00007273      -0.00008940
