9
Lattice="6.018842292704938 5.776672703854601e-09 3.474980192599312 2.0062807528258495 5.674618963902153 3.4749802217938006 -4.613656166540974e-08 3.132383790381591e-09 6.9499604651094735" Properties=species:S:1:pos:R:3:forces:R:3 energy=-34.08293914794922 free_energy=-34.08293914794922 stress="6.847601616755128e-05 8.228428605150384e-09 7.604407770145372e-09 8.228428605150384e-09 6.855058018118143e-05 4.957589339049662e-10 7.604407770145372e-09 4.957589339049662e-10 6.854732055217028e-05" pbc="T T T"
Pb       2.00628103       1.41865473       3.47498012      -0.00000092      -0.00000014      -0.00000081
Pb       6.01884180       4.25596400      10.42494058       0.00000103      -0.00000074      -0.00000121
Ir       0.00000033       0.00000025      -0.00000015      -0.00000468      -0.00001181       0.00000105
Cl       1.92360784       1.36019641       6.94996073      -0.00101991      -0.00072161       0.00000017
Cl       6.10151518       4.31442262       6.94996065       0.00102530       0.00072691       0.00000043
Cl       5.05703809       1.36019624       5.14087403       0.00051112      -0.00072303      -0.00088744
Cl       2.96808485       4.31442279       8.75904666      -0.00051160       0.00072660       0.00088961
Cl       2.96808469       4.31442284       5.14087407      -0.00051174       0.00072628      -0.00088934
Cl       5.05703821       1.36019608       8.75904671       0.00051145      -0.00072256       0.00088742
