9
Lattice="5.011563208299489 -1.235241044800823e-07 2.893427241091548 1.670520954239042 4.724947177433536 2.893427238899608 1.3441764241370722e-08 6.820176899541913e-09 5.786854458901318" Properties=species:S:1:pos:R:3:forces:R:3 energy=-43.15919494628906 free_energy=-43.15919494628906 stress="0.0005782957887277007 -4.0263230971504527e-08 6.484565773234863e-08 -4.0263230971504527e-08 0.0005783388041891158 -7.661042644713234e-08 6.484565773234863e-08 -7.661042644713234e-08 0.0005783604574389756" pbc="T T T"
Pb       1.67052088       1.18123680       2.89342704       0.00000026       0.00000005       0.00000005
Pb       5.01156325       3.54371041       8.68028189      -0.00000032      -0.00000061       0.00000013
Ir      -0.00000004      -0.00000005       0.00000010      -0.00000119      -0.00000091       0.00000770
F        1.68545522       1.19179681       5.78685449      -0.00554609      -0.00392154       0.00000009
F        4.99662889       3.53315000       5.78685425       0.00554785       0.00392330      -0.00000000
F        4.16883548       1.19179702       4.35307387       0.00277422      -0.00392336      -0.00480461
F        2.51324869       3.53315021       7.22063488      -0.00277211       0.00392030       0.00480118
F        2.51324912       3.53314976       4.35307494      -0.00277878       0.00392933      -0.00481272
F        4.16883507       1.19179743       7.22063446       0.00277604      -0.00392659       0.00480795
