9
Lattice="5.2563711982804175 -8.038603221544294e-09 3.0347673294488193 1.7521237488396897 4.955754679186237 3.0347672884712416 1.985453071742013e-07 9.020570205341505e-08 6.069534315007078" Properties=species:S:1:pos:R:3:forces:R:3 energy=-45.400245666503906 free_energy=-45.400245666503906 stress="0.00012132080883020535 2.748549299269598e-08 1.607788249202713e-07 2.748549299269598e-08 0.00012125517969252542 -2.0314882931415923e-07 1.607788249202713e-07 -2.0314882931415923e-07 0.00012127285299357027" pbc="T T T"
Pb       1.75212408       1.23893912       3.03476716      -0.00000037       0.00000016      -0.00000127
Pb       5.25637116       3.71681551       9.10430190      -0.00000019      -0.00000195       0.00000039
Mo       0.00000013      -0.00000021      -0.00000004       0.00000090      -0.00000255      -0.00000382
F        1.72585350       1.22036344       6.06953472      -0.00041838      -0.00029550      -0.00000059
F        5.28264078       3.73539148       6.06953461       0.00042140       0.00029716       0.00000013
F        4.39344491       1.22036250       4.52939961       0.00020125      -0.00028579      -0.00034982
F        2.61505047       3.73539224       7.60966883      -0.00020447       0.00028934       0.00035469
F        2.61505125       3.73539140       4.52940088      -0.00021338       0.00030044      -0.00036937
F        4.39344414       1.22036366       7.60966842       0.00021327      -0.00030129       0.00036979
