9
Lattice="6.043183153212691 -4.855659228866857e-07 3.4890333459394345 2.0143939201339376 5.697566709783241 3.489033357153355 -2.450506779969237e-07 -1.595428114296336e-07 6.978067116319133" Properties=species:S:1:pos:R:3:forces:R:3 energy=-36.96996307373047 free_energy=-36.96996307373047 stress="0.00011573098163353279 -2.403650167792648e-09 -1.303682584108401e-08 -2.403650167792648e-09 0.00011570542847039178 3.080684152223512e-08 -1.303682584108401e-08 3.080684152223512e-08 0.00011572121729841456" pbc="T T T"
Pb       2.01439266       1.42439265       3.48903434      -0.00000196       0.00000071       0.00000128
Pb       6.04318332       4.27317244      10.46710132       0.00000092      -0.00000285       0.00000220
Mo      -0.00000040      -0.00000007       0.00000026       0.00001283       0.00000417      -0.00000533
Cl       1.98510465       1.40368055       6.97806724      -0.00200878      -0.00141684      -0.00000118
Cl       6.07247336       4.29388614       6.97806631       0.00199644       0.00140843      -0.00000026
Cl       5.05063074       1.40368037       5.20818389       0.00100155      -0.00141298      -0.00173250
Cl       3.00694617       4.29388626       8.74794892      -0.00100308       0.00141854       0.00173672
Cl       3.00694633       4.29388621       5.20818379      -0.00100062       0.00141277      -0.00173196
Cl       5.05063049       1.40367966       8.74794915       0.00100273      -0.00141192       0.00173106
