9
Lattice="6.411558282364931 -3.6331450811265897e-08 3.7017148925393597 2.137186069921952 6.044875080474824 3.701714875125391 -1.4149385266919736e-08 -3.133279448132447e-08 7.403429809586192" Properties=species:S:1:pos:R:3:forces:R:3 energy=-33.201995849609375 free_energy=-33.201995849609375 stress="0.00010171083704335615 -5.653935986060787e-09 -1.2391333514827352e-09 -5.653935986060787e-09 0.00010172060137847438 4.001714515311505e-09 -1.2391333514827352e-09 4.001714515311505e-09 0.00010172121255891398" pbc="T T T"
Pb       2.13718572       1.51121854       3.70171496       0.00000001       0.00000027      -0.00000025
Pb       6.41155827       4.53365670      11.10514479      -0.00000001       0.00000026      -0.00000002
Mo       0.00000029      -0.00000024      -0.00000030      -0.00000177       0.00000363       0.00000112
Br       2.11425730       1.49500563       7.40342980      -0.00153873      -0.00108829      -0.00000041
Br       6.43448727       4.54986952       7.40342968       0.00153723       0.00108700       0.00000039
Br       5.35442943       1.49500563       5.53271544       0.00077020      -0.00108952      -0.00133380
Br       3.19431477       4.54986929       9.27414426      -0.00076845       0.00108810       0.00133190
Br       3.19431481       4.54986941       5.53271546      -0.00076901       0.00108735      -0.00133185
Br       5.35442948       1.49500559       9.27414421       0.00077054      -0.00108880       0.00133293
