9
Lattice="6.8515305979497185 -1.1797620484173185e-07 3.955733078322658 2.2838434111993 6.459685217928114 3.9557330960269548 -2.93218652183113e-08 9.495460060793772e-10 7.911466207432197" Properties=species:S:1:pos:R:3:forces:R:3 energy=-29.89234733581543 free_energy=-29.89234733581543 stress="-2.006040267588105e-05 -1.0548150797262679e-08 -4.1725050081709014e-09 -1.0548150797262679e-08 -2.0045368728460744e-05 -2.682808142306925e-10 -4.1725050081709014e-09 -2.682808142306925e-10 -2.004003727051895e-05" pbc="T T T"
Pb       2.28384405       1.61492125       3.95573337       0.00000061       0.00000019       0.00000025
Pb       6.85153028       4.84476418      11.86719851      -0.00000059       0.00000031      -0.00000069
Mo      -0.00000030       0.00000012      -0.00000013       0.00000294      -0.00000203       0.00000049
I        2.27808049       1.61084620       7.91146616      -0.00135823      -0.00096118      -0.00000018
I        6.85729358       4.84883885       7.91146641       0.00135709       0.00096028      -0.00000025
I        5.71248999       1.61084641       5.92860895       0.00067926      -0.00096156      -0.00117734
I        3.42288415       4.84883850       9.89432359      -0.00068069       0.00096259       0.00117904
I        3.42288368       4.84883852       5.92860900      -0.00067979       0.00096241      -0.00117829
I        5.71248998       1.61084636       9.89432369       0.00067922      -0.00096099       0.00117695
