9
Lattice="5.727190162404867 -1.1996837229633223e-07 3.306594931634377 1.9090632615382248 5.3996467931662 3.3065949538441903 -3.057013861643229e-08 5.584949734307688e-09 6.613189916217813" Properties=species:S:1:pos:R:3:forces:R:3 energy=-26.915203094482422 free_energy=-26.915203094482422 stress="-0.00010566695709712803 -1.4025402172990198e-08 2.5766469846644213e-08 -1.4025402172990198e-08 -0.00010567487333901227 6.313181089012687e-09 2.5766469846644213e-08 6.313181089012687e-09 -0.00010566374112386256" pbc="T T T"
Pb       1.90906351       1.34991206       3.30659468       0.00000296       0.00000528      -0.00000061
Pb       5.72719020       4.04973543       9.91978504       0.00000351       0.00000545       0.00000148
N       -0.00002741      -0.00003913       0.00000105      -0.00045582      -0.00064167       0.00001206
Cl       1.85665333       1.31285281       6.61318993       0.00199237       0.00141231       0.00000030
Cl       5.77963410       4.08681873       6.61318969      -0.00141942      -0.00100116      -0.00000035
Cl       4.79887033       1.31284346       4.91449286      -0.00088324       0.00125913       0.00153554
Cl       2.83737966       4.08680975       8.31189354       0.00082402      -0.00115408      -0.00142026
Cl       2.83737987       4.08681000       4.91448555       0.00082197      -0.00114974       0.00141352
Cl       4.79886996       1.31284359       8.31188687      -0.00088629       0.00126440      -0.00154172
