9
Lattice="4.334782509957252 8.944914428560655e-10 2.5026877857407195 1.4449275077632695 4.086872055632787 2.5026877795038542 -1.4334916880777943e-08 -1.7774885077941796e-08 5.00537559631023" Properties=species:S:1:pos:R:3:forces:R:3 energy=-42.58263397216797 free_energy=-42.58263397216797 stress="0.0005521529819816351 -6.353665327196723e-08 -1.78674799400369e-08 -6.353665327196723e-08 0.0005520355771295726 -3.160270267699161e-08 -1.78674799400369e-08 -3.160270267699161e-08 0.0005521076964214444" pbc="T T T"
Pb       1.44492733       1.02171809       2.50268779      -0.00000437       0.00000115       0.00000046
Pb       4.33478228       3.06515413       7.50806332      -0.00000335       0.00000100      -0.00000205
N        0.00000365      -0.00000121       0.00000040       0.00005965      -0.00001906       0.00000769
O        1.37573332       0.97279024       5.00537555       0.00378907       0.00267726       0.00000079
O        4.40397516       3.11408033       5.00537557      -0.00382257      -0.00270796       0.00000032
O        3.64691518       0.97279133       3.69410925      -0.00190639       0.00270075       0.00330985
O        2.13279422       3.11408181       6.31664344       0.00189930      -0.00268197      -0.00328231
O        2.13279411       3.11408194       3.69410751       0.00189650      -0.00267738       0.00327957
O        3.64691488       0.97279167       6.31664172      -0.00190872       0.00270677      -0.00331330
