9
Lattice="4.710176501276785 -5.833530332919396e-08 2.719421828526814 1.5700587602881302 4.440797250064293 2.7194218605207734 4.995321340631919e-09 4.271663353546942e-08 5.4388436484014715" Properties=species:S:1:pos:R:3:forces:R:3 energy=-37.52114486694336 free_energy=-37.52114486694336 stress="-9.347821469418705e-05 -1.3378353003190568e-07 -3.768951728488901e-08 -1.3378353003190568e-07 -9.331792534794658e-05 1.70667266985447e-08 -3.768951728488901e-08 1.70667266985447e-08 -9.320262324763462e-05" pbc="T T T"
Pb       1.57005908       1.11019941       2.71942196      -0.00000084       0.00000009      -0.00000015
Pb       4.71017616       3.33059800       8.15826546       0.00000043       0.00000014       0.00000108
N        0.00000010       0.00000010      -0.00000015       0.00000196      -0.00000385      -0.00000300
F        1.42326681       1.00640229       5.43884371       0.00638986       0.00451481       0.00000110
F        4.85696852       3.43439411       5.43884350      -0.00639093      -0.00450921      -0.00000031
F        3.99854281       1.00640291       3.95200848      -0.00318867       0.00450391       0.00551653
F        2.28169234       3.43439496       6.92567914       0.00318980      -0.00450683      -0.00551820
F        2.28169226       3.43439466       3.95200805       0.00319088      -0.00450599       0.00552261
F        3.99854315       1.00640245       6.92567933      -0.00319290       0.00450754      -0.00551879
