9
Lattice="5.09120234792783 4.488978072412152e-08 2.9394070397701033 1.6970675081782667 4.800031192480114 2.9394070111106956 7.475617645029425e-11 -3.5047553016437346e-08 5.8788140794107" Properties=species:S:1:pos:R:3:forces:R:3 energy=-39.79887008666992 free_energy=-39.79887008666992 stress="-6.029223004588857e-05 4.870509329180095e-08 2.465496073966733e-08 4.870509329180095e-08 -6.0190555814187974e-05 2.2840627167397543e-08 2.465496073966733e-08 2.2840627167397543e-08 -6.03147127549164e-05" pbc="T T T"
Pb       1.69706716       1.20000755       2.93940771      -0.00000043      -0.00000036       0.00000116
Pb       5.09120295       3.60002355       8.81821904       0.00000045       0.00000094      -0.00000428
P       -0.00000006      -0.00000109       0.00000036       0.00000207       0.00001085      -0.00000218
F        1.69976392       1.20191408       5.87881384      -0.00215951      -0.00152908      -0.00000022
F        5.08850652       3.59811744       5.87881507       0.00215851       0.00152481       0.00000314
F        4.24132027       1.20191425       4.41144638       0.00108030      -0.00153076      -0.00186972
F        2.54694936       3.59811716       7.34618279      -0.00107981       0.00152574       0.00187096
F        2.54694880       3.59811696       4.41144525      -0.00108132       0.00152542      -0.00186917
F        4.24132044       1.20191490       7.34618206       0.00107979      -0.00152756       0.00187030
