9
Lattice="6.408268679095599 -2.263167596923852e-09 3.6998156435619403 2.136089570028962 6.041773592327105 3.699815621973458 1.5623607132755982e-08 -1.53928104656292e-08 7.399631260062983" Properties=species:S:1:pos:R:3:forces:R:3 energy=-26.272062301635742 free_energy=-26.272062301635742 stress="0.00011795073078246787 4.1958942986752845e-09 2.1994102095135304e-09 4.1958942986752845e-09 0.00011796214675996453 1.210975875132192e-09 2.1994102095135304e-09 1.210975875132192e-09 0.00011795795580837876" pbc="T T T"
Pb       2.13608976       1.51044330       3.69981564       0.00000060       0.00000053       0.00000008
Pb       6.40826887       4.53133003      11.09944693       0.00000101      -0.00000094       0.00000100
P        0.00000014      -0.00000003      -0.00000014      -0.00000042      -0.00000029       0.00000007
Br       2.17217374       1.53595886       7.39963125      -0.00151259      -0.00106903      -0.00000003
Br       6.37218440       4.50581477       7.39963127       0.00151227       0.00106967      -0.00000034
Br       5.32218172       1.53595900       5.58097336       0.00075594      -0.00106855      -0.00130931
Br       3.22217634       4.50581478       9.21828931      -0.00075632       0.00106861       0.00130875
Br       3.22217631       4.50581473       5.58097327      -0.00075625       0.00106964      -0.00130955
Br       5.32218180       1.53595886       9.21828922       0.00075567      -0.00106953       0.00130939
