9
Lattice="6.135638400111999 8.37900689562815e-08 3.5424124901252587 2.0452127441417525 5.784735820806075 3.5424127237677796 -2.391824005956262e-07 1.1702510583059388e-07 7.08482539452638" Properties=species:S:1:pos:R:3:forces:R:3 energy=-28.91089630126953 free_energy=-28.91089630126953 stress="-3.733219637069851e-05 -6.335840296856077e-09 4.53198589767112e-09 -6.335840296856077e-09 -3.736544749699533e-05 -1.4900684242036277e-08 4.53198589767112e-09 -1.4900684242036277e-08 -3.73337279597763e-05" pbc="T T T"
Pb       2.04521299       1.44618376       3.54241247       0.00000077      -0.00000251      -0.00000026
Pb       6.13563848       4.33855129      10.62723744       0.00000140      -0.00000078      -0.00000168
P       -0.00000192       0.00000223       0.00000056      -0.00000410       0.00000542       0.00000389
Cl       2.04521930       1.44618842       7.08482524       0.00318122       0.00225490       0.00000040
Cl       6.13563194       4.33854766       7.08482580      -0.00318453      -0.00224775       0.00000091
Cl       5.11302912       1.44618778       5.31362396      -0.00158855       0.00224659       0.00274849
Cl       3.06782246       4.33854707       8.85602482       0.00159377      -0.00225461      -0.00276373
Cl       3.06782289       4.33854733       5.31362584       0.00159065      -0.00224985       0.00276041
Cl       5.11302824       1.44618850       8.85602638      -0.00159068       0.00224869      -0.00274844
