9
Lattice="6.694907440376729 -8.325879892084082e-08 3.8653066268681853 2.2316357812703838 6.312019144681996 3.865306546659303 4.4305510423929054e-08 -6.690663831602397e-08 7.730613176996873" Properties=species:S:1:pos:R:3:forces:R:3 energy=-27.28765106201172 free_energy=-27.28765106201172 stress="-1.2312370017752983e-05 -1.435196761434554e-08 1.167525964795857e-09 -1.435196761434554e-08 -1.230749512615148e-05 -4.996032476611845e-09 1.167525964795857e-09 -4.996032476611845e-09 -1.2302614777581766e-05" pbc="T T T"
Pb       2.23163590       1.57800469       3.86530679       0.00000063      -0.00000048       0.00000049
Pb       6.69490737       4.73401416      11.59591989      -0.00000073       0.00000008      -0.00000057
Rh       0.00000046       0.00000016       0.00000055      -0.00000459      -0.00000149      -0.00000606
I        2.19676941       1.55335046       7.73061313       0.00004627       0.00003306      -0.00000015
I        6.72977346       4.75866825       7.73061322      -0.00004278      -0.00003081       0.00000004
I        5.59652253       1.55335055       5.76776477      -0.00002234       0.00003222       0.00003991
I        3.33002091       4.75866828       9.69346123       0.00002155      -0.00003015      -0.00003651
I        3.33002060       4.75866852       5.76776484       0.00002193      -0.00003176       0.00003881
I        5.59652240       1.55335092       9.69346100      -0.00001992       0.00002934      -0.00003588
