9
Lattice="4.987908440139355 1.1648565241636962e-07 2.8797702414598523 1.6626362338066014 4.702645427652265 2.8797702808298413 2.4409718608366526e-08 6.547844265074676e-08 5.759540440640836" Properties=species:S:1:pos:R:3:forces:R:3 energy=-43.0883903503418 free_energy=-43.0883903503418 stress="0.0003622160293161869 -1.5209350223699403e-08 -2.7371102717665963e-08 -1.5209350223699403e-08 0.00036225662915967405 4.750414817067394e-08 -2.7371102717665963e-08 4.750414817067394e-08 0.00036224210634827614" pbc="T T T"
Pb       1.66263614       1.17566138       2.87977035      -0.00000015      -0.00000037       0.00000019
Pb       4.98790867       3.52698420       8.63931069       0.00000009       0.00000084      -0.00000027
Rh      -0.00000002       0.00000015      -0.00000002       0.00000257      -0.00000064       0.00000141
F        1.65896085       1.17306222       5.75954029      -0.00168231      -0.00118896       0.00000047
F        4.99158412       3.52958316       5.75954045       0.00168005       0.00118893       0.00000037
F        4.15842816       1.17306243       4.31647237       0.00084278      -0.00119133      -0.00145915
F        2.49211654       3.52958315       7.20260870      -0.00084271       0.00119089       0.00145881
F        2.49211632       3.52958328       4.31647234      -0.00084080       0.00118925      -0.00145687
F        4.15842799       1.17306242       7.20260888       0.00084047      -0.00118867       0.00145522
