9
Lattice="6.690778665652453 1.4188346271027237e-07 3.862922721777527 2.2302596811710016 6.308126577886301 3.862922735314328 -3.628622462523473e-08 -9.079077890432617e-09 7.725845506404695" Properties=species:S:1:pos:R:3:forces:R:3 energy=-28.031776428222656 free_energy=-28.031776428222656 stress="-4.474011802813038e-05 2.5058252361986888e-08 5.874235764480318e-09 2.5058252361986888e-08 -4.477092079469003e-05 -1.1047317727275185e-08 5.874235764480318e-09 -1.1047317727275185e-08 -4.478569462662563e-05" pbc="T T T"
Pb       2.23025970       1.57703150       3.86292261      -0.00000035       0.00000017       0.00000008
Pb       6.69077862       4.73109510      11.58876822       0.00000031      -0.00000014      -0.00000036
Ru       0.00000039       0.00000023      -0.00000018      -0.00000527       0.00000051       0.00000161
I        2.20940706       1.56228676       7.72584542      -0.00009911      -0.00006965       0.00000020
I        6.71163069       4.74583975       7.72584546       0.00010281       0.00007344       0.00000025
I        5.58607516       1.56228687       5.77632519       0.00004955      -0.00007082      -0.00008664
I        3.33496308       4.74583985       9.67536597      -0.00004794       0.00006769       0.00008290
I        3.33496315       4.74583996       5.77632534      -0.00004964       0.00006980      -0.00008494
I        5.58607539       1.56228682       9.67536584       0.00004960      -0.00007099       0.00008691
