9
Lattice="5.987034255004928 2.7933628755322834e-07 3.456615585173803 1.995678271351578 5.644630043664847 3.456615718560499 -1.4975441940234027e-07 5.747228265274754e-08 6.913231429729756" Properties=species:S:1:pos:R:3:forces:R:3 energy=-34.491119384765625 free_energy=-34.491119384765625 stress="4.4380692997947335e-05 6.569226940200679e-08 -5.8093636567946305e-09 6.569226940200679e-08 4.4332344259601086e-05 3.2838403996038323e-08 -5.8093636567946305e-09 3.2838403996038323e-08 4.4304426410235465e-05" pbc="T T T"
Pb       1.99567822       1.41115711       3.45661576       0.00000124      -0.00000095      -0.00000059
Pb       5.98703429       4.23347340      10.36984703      -0.00000140       0.00000126       0.00000018
Ru       0.00000045       0.00000150       0.00000204      -0.00001009      -0.00002453      -0.00003997
Cl       1.93805010       1.37040803       6.91323137      -0.00305305      -0.00215878      -0.00000009
Cl       6.04466142       4.27422173       6.91323106       0.00306994       0.00217041      -0.00000036
Cl       5.01801009       1.37040725       5.13501533       0.00152043      -0.00214852      -0.00263327
Cl       2.96470373       4.27422130       8.69144611      -0.00153617       0.00217327       0.00265969
Cl       2.96470225       4.27422269       5.13501518      -0.00152207       0.00215171      -0.00263529
Cl       5.01800896       1.37040852       8.69144721       0.00153117      -0.00216404       0.00264974
