9
Lattice="5.970299830393941 -1.0075348134714032e-07 3.446954474914427 1.9900998405298478 5.628852840108744 3.446954488672995 4.742370024706761e-09 2.020406360740016e-08 6.893908941614876" Properties=species:S:1:pos:R:3:forces:R:3 energy=-33.348358154296875 free_energy=-33.348358154296875 stress="0.00012942476314492524 -1.6988991546895704e-08 1.2881113953255863e-08 -1.6988991546895704e-08 0.0001294746034545824 1.4069658771376226e-09 1.2881113953255863e-08 1.4069658771376226e-09 0.00012954481644555926" pbc="T T T"
Pb       1.99009977       1.40721312       3.44695431      -0.00000019      -0.00000011      -0.00000056
Pb       5.97030008       4.22163939      10.34086309       0.00000125      -0.00000031      -0.00000103
Rh       0.00000012       0.00000022      -0.00000075      -0.00000005      -0.00000190       0.00002002
Cl       1.92570963       1.36168258       6.89390949      -0.00481369      -0.00340344      -0.00000110
Cl       6.03469001       4.26717039       6.89390981       0.00481401       0.00340514      -0.00000023
Cl       5.00744476       1.36168314       5.11466883       0.00241140      -0.00340933      -0.00417735
Cl       2.95295478       4.26717019       8.67314889      -0.00240708       0.00340380       0.00416963
Cl       2.95295490       4.26716939       5.11466912      -0.00241205       0.00340982      -0.00417924
Cl       5.00744464       1.36168259       8.67314884       0.00240646      -0.00340375       0.00416955
