9
Lattice="5.002846559819043 -9.696855231061538e-08 2.888394868120674 1.6676154225529805 4.716729154314993 2.888394878450485 2.7317604894334268e-08 3.196780650224543e-08 5.776789688925879" Properties=species:S:1:pos:R:3:forces:R:3 energy=-44.351646423339844 free_energy=-44.351646423339844 stress="0.00037105215596966445 4.157264754667267e-09 -1.232190127709032e-09 4.157264754667267e-09 0.000371083413483575 -7.138937885287078e-09 -1.232190127709032e-09 -7.138937885287078e-09 0.0003710770979523659" pbc="T T T"
Pb       1.66761591       1.17918227       2.88839519       0.00000018      -0.00000025       0.00000018
Pb       5.00284619       3.53754672       8.66518463      -0.00000022      -0.00000026       0.00000063
Ru      -0.00000008       0.00000005       0.00000038       0.00000200      -0.00000215      -0.00000649
F        1.68245347       1.18967416       5.77678970      -0.00291589      -0.00206199       0.00000019
F        4.98800860       3.52705501       5.77678942       0.00291547       0.00206222       0.00000063
F        4.16161971       1.18967452       4.34544245       0.00145680      -0.00206020      -0.00252379
F        2.50884229       3.52705450       7.20813667      -0.00145875       0.00206318       0.00252785
F        2.50884249       3.52705466       4.34544254      -0.00145848       0.00206238      -0.00252637
F        4.16161947       1.18967437       7.20813667       0.00145903      -0.00206304       0.00252721
