9
Lattice="5.823179628534963 -6.435645171829672e-08 3.3620142962923993 1.9410598098134368 5.490146463065364 3.362014306146064 -9.904611351186413e-08 -5.7967934351540774e-08 6.72402876413768" Properties=species:S:1:pos:R:3:forces:R:3 energy=-35.72783660888672 free_energy=-35.72783660888672 stress="9.796830454433803e-06 -7.272159319171578e-09 -8.16443801454625e-09 -7.272159319171578e-09 9.8663394965115e-06 -3.030122597280638e-09 -8.16443801454625e-09 -3.030122597280638e-09 9.853756637312472e-06" pbc="T T T"
Pb       1.94105953       1.37253639       3.36201406       0.00000038       0.00000107      -0.00000030
Pb       5.82317965       4.11760997      10.08604274      -0.00000091      -0.00000025      -0.00000002
Sb      -0.00000020      -0.00000003      -0.00000025       0.00000032      -0.00000100       0.00000777
S        2.00650896       1.41881607       6.72402895       0.00076872       0.00054380      -0.00000040
S        5.75773027       4.07133023       6.72402871      -0.00076842      -0.00054306       0.00000171
S        4.81992498       1.41881606       5.09970244      -0.00038171       0.00053951       0.00066262
S        2.94431470       4.07133010       8.34835525       0.00038499      -0.00054464      -0.00066674
S        2.94431433       4.07133034       5.09970248       0.00038274      -0.00054109       0.00066429
S        4.81992513       1.41881616       8.34835505      -0.00038622       0.00054553      -0.00066894
