9
Lattice="6.2764097479482635 -3.8559895646772575e-07 3.6236869141365204 2.0921362915198736 5.917455777560933 3.6236867887072397 1.9753761889212663e-08 -1.3965087387947844e-07 7.247373794058529" Properties=species:S:1:pos:R:3:forces:R:3 energy=-30.075424194335938 free_energy=-30.075424194335938 stress="7.142528920667246e-05 -9.653737720327626e-08 2.219226225008697e-08 -9.653737720327626e-08 7.148270378820598e-05 -3.6915299261863765e-08 2.219226225008697e-08 -3.6915299261863765e-08 7.15484784450382e-05" pbc="T T T"
Pb       2.09213610       1.47936494       3.62368694      -0.00000039       0.00000159       0.00000008
Pb       6.27641049       4.43809239      10.87106091       0.00000195       0.00000149       0.00000115
Sb      -0.00000088       0.00000000      -0.00000090       0.00001245      -0.00000099       0.00000890
Cl       2.12855723       1.50511707       7.24737363      -0.00038147      -0.00026956      -0.00000075
Cl       6.23998961       4.41233812       7.24737376       0.00037546       0.00026464      -0.00000112
Cl       5.21213045       1.50511729       5.46707254       0.00019301      -0.00027424      -0.00033526
Cl       3.15641515       4.41233728       9.02767511      -0.00019559       0.00027339       0.00033475
Cl       3.15641596       4.41233649       5.46707323      -0.00019918       0.00027941      -0.00034343
Cl       5.21213013       1.50511742       9.02767473       0.00019370      -0.00027575       0.00033566
