9
Lattice="4.98882382519455 7.267776785559382e-08 2.8802986764189438 1.6629413427851325 4.703507999983916 2.88029867780631 1.0807614348950602e-07 7.812050959606503e-08 5.760597165644562" Properties=species:S:1:pos:R:3:forces:R:3 energy=-47.06454849243164 free_energy=-47.06454849243164 stress="-0.00015373658970929682 2.1508947511961196e-08 -8.06378821494036e-08 2.1508947511961196e-08 -0.0001535533956484869 7.814619351620422e-08 -8.06378821494036e-08 7.814619351620422e-08 -0.00015386601444333792" pbc="T T T"
Pb       1.66294121       1.17587694       2.88029856       0.00000004       0.00000121       0.00000072
Pb       4.98882419       3.52763111       8.64089615       0.00000046      -0.00000025       0.00000013
Sb      -0.00000003       0.00000013      -0.00000006      -0.00000016      -0.00000528       0.00000076
O        1.63103197       1.15331420       5.76059711       0.00407374       0.00288260      -0.00000041
O        5.02073335       3.55019385       5.76059725      -0.00407028      -0.00288069      -0.00000016
O        4.17330762       1.15331401       4.29281375      -0.00203681       0.00287956       0.00352776
O        2.47845770       3.55019396       7.22838066       0.00203586      -0.00287861      -0.00352693
O        2.47845756       3.55019430       4.29281399       0.00203592      -0.00288051       0.00352919
O        4.17330778       1.15331380       7.22838060      -0.00203836       0.00288129      -0.00353003
