9
Lattice="6.5612399299859465 -6.79158150004185e-08 3.788133735242221 2.187079937431206 6.185996082011966 3.788133692285809 3.935370350724214e-08 -2.478335360294092e-08 7.5762674023218555" Properties=species:S:1:pos:R:3:forces:R:3 energy=-26.740758895874023 free_energy=-26.740758895874023 stress="-1.66901725151547e-06 3.1342255457644796e-09 3.0303966003231153e-09 3.1342255457644796e-09 -1.6824220665512257e-06 -1.8320677197536384e-09 3.0303966003231153e-09 -1.8320677197536384e-09 -1.6773278730397578e-06" pbc="T T T"
Pb       2.18708037       1.54649928       3.78813399      -0.00000011       0.00000124       0.00000065
Pb       6.56123961       4.63949696      11.36440160      -0.00000028       0.00000019       0.00000161
Sb       0.00000058       0.00000117       0.00000017      -0.00000505      -0.00000985      -0.00000016
Br       2.24783523       1.58945897       7.57626738       0.00420429       0.00297314      -0.00000066
Br       6.50048406       4.59653635       7.57626730      -0.00419794      -0.00296804      -0.00000064
Br       5.43732245       1.58945971       5.73481591      -0.00210114       0.00297295       0.00363882
Br       3.31099758       4.59653619       9.41771855       0.00210040      -0.00297035      -0.00363818
Br       3.31099752       4.59653619       5.73481607       0.00210059      -0.00297011       0.00363727
Br       5.43732223       1.58945918       9.41771832      -0.00210083       0.00297083      -0.00363873
