9
Lattice="6.879970564212686 2.704534341716898e-09 3.972152840330061 2.29332345853024 6.486498420009838 3.972152953647371 -1.7353549495009224e-08 1.2651401157631953e-07 7.944305710717295" Properties=species:S:1:pos:R:3:forces:R:3 energy=-21.084339141845703 free_energy=-21.084339141845703 stress="-0.0002176229318138212 -1.2772074953204537e-08 5.240765044156603e-10 -1.2772074953204537e-08 -0.00021761520474683493 -2.551620470470084e-09 5.240765044156603e-10 -2.551620470470084e-09 -0.00021761101379524916" pbc="T T T"
Pb       2.29332392       1.62162436       3.97215288       0.00000178      -0.00000034       0.00000029
Pb       6.87997030       4.86487417      11.91645819      -0.00000102       0.00000087      -0.00000137
Tl       0.00000001      -0.00000008       0.00000021       0.00000007       0.00000068      -0.00000012
I        2.41916602       1.71060852       7.94430581      -0.00568374      -0.00401932       0.00000045
I        6.75412810       4.77589022       7.94430587       0.00568278       0.00401834       0.00000022
I        5.67038719       1.71060867       6.06721204       0.00284203      -0.00401925      -0.00492250
I        3.50290673       4.77588971       9.82139951      -0.00284203       0.00401891       0.00492274
I        3.50290639       4.77588956       6.06721205      -0.00284212       0.00401972      -0.00492261
I        5.67038738       1.71060906       9.82139947       0.00284226      -0.00401963       0.00492291
