9
Lattice="6.566562198217293 2.832840752100669e-07 3.7912062465674423 2.188854194187292 6.19101463308371 3.7912064872668227 -5.708674937346714e-08 2.544289401910409e-07 7.582412592012053" Properties=species:S:1:pos:R:3:forces:R:3 energy=-35.607173919677734 free_energy=-35.607173919677734 stress="0.0002756851608864963 6.91294985699642e-08 -7.248048383701189e-09 6.91294985699642e-08 0.00027562378090806305 1.4439271112109964e-08 -7.248048383701189e-09 1.4439271112109964e-08 0.00027558341389521956" pbc="T T T"
Pb       2.18885439       1.54775383       3.79120651       0.00000035       0.00000003       0.00000051
Pb       6.56656213       4.64326157      11.37361907      -0.00000005       0.00000019       0.00000032
Ta       0.00000015      -0.00000057      -0.00000147      -0.00000409       0.00000428       0.00001867
Br       2.09537271       1.48165204       7.58241277      -0.00712800      -0.00503981       0.00000022
Br       6.66004359       4.70936277       7.58241243       0.00712878       0.00504115       0.00000076
Br       5.51887602       1.48165206       5.60585199       0.00356424      -0.00504121      -0.00617379
Br       3.23653977       4.70936409       9.55897444      -0.00355592       0.00502932       0.00616020
Br       3.23653975       4.70936282       5.60585164      -0.00356209       0.00503635      -0.00616866
Br       5.51887672       1.48165194       9.55897384       0.00355679      -0.00503021       0.00616199
