9
Lattice="5.2883823595297885 1.66075379666517e-07 3.0532491623971993 1.7627941608598874 4.985935504716803 3.053249362554373 -2.503661911159886e-08 2.2743786942937196e-07 6.106498368159128" Properties=species:S:1:pos:R:3:forces:R:3 energy=-50.553897857666016 free_energy=-50.553897857666016 stress="-0.00010234052751911804 -2.1249695336678087e-09 -2.6768866234760935e-08 -2.1249695336678087e-09 -0.00010226397716905922 2.4150644151177403e-08 -2.6768866234760935e-08 2.4150644151177403e-08 -0.00010231572377961129" pbc="T T T"
Pb       1.76279386       1.24648415       3.05324935      -0.00000021       0.00000118      -0.00000018
Pb       5.28838214       3.73945170       9.15974769       0.00000057      -0.00000093      -0.00000055
Ta      -0.00000026       0.00000007      -0.00000019       0.00000423      -0.00000222       0.00000484
F        1.63905338       1.15898605       6.10649842       0.00066304       0.00046766       0.00000020
F        5.41212295       3.82694993       6.10649858      -0.00066328      -0.00046974       0.00000009
F        4.46885590       1.15898585       4.47271147      -0.00033057       0.00046736       0.00057167
F        2.58232086       3.82695018       7.74028576       0.00033051      -0.00046730      -0.00057226
F        2.58232102       3.82694991       4.47271139       0.00032926      -0.00046700       0.00057119
F        4.46885575       1.15898579       7.74028552      -0.00033253       0.00047094      -0.00057620
