9
Lattice="6.249354190510127 -5.861409144523114e-07 3.608066293601612 2.0831176922520243 5.891947058125766 3.608065979463615 -5.0553324830500234e-08 -4.20485375986466e-07 7.216132674764126" Properties=species:S:1:pos:R:3:forces:R:3 energy=-39.62038040161133 free_energy=-39.62038040161133 stress="0.00014946561714168638 -1.6502625044267916e-07 1.954058959086069e-08 -1.6502625044267916e-07 0.00014957954408600926 -5.214321063817806e-08 1.954058959086069e-08 -5.214321063817806e-08 0.00014964526053518057" pbc="T T T"
Pb       2.08311750       1.47298573       3.60806622      -0.00000038      -0.00000084      -0.00000041
Pb       6.24935387       4.41895740      10.82419855      -0.00000011      -0.00000086      -0.00000036
Ta      -0.00000010       0.00000060       0.00000132       0.00000079      -0.00000208      -0.00001977
Cl       1.97255978       1.39481081       7.21613265      -0.00224692      -0.00158834      -0.00000067
Cl       6.35991228       4.49713570       7.21613261       0.00224620       0.00158930      -0.00000116
Cl       5.26307358       1.39481105       5.31635439       0.00112674      -0.00159305      -0.00195110
Cl       3.06939914       4.49713505       9.11590920      -0.00113407       0.00160396       0.00196308
Cl       3.06939906       4.49713580       5.31635468      -0.00112939       0.00159794      -0.00195736
Cl       5.26307223       1.39481200       9.11590975       0.00113723      -0.00160611       0.00196785
