9
Lattice="5.280141727136096 -1.6826294422819797e-07 3.048491180442226 1.7600471965124296 4.978164888926839 3.0484909851126503 1.7186652746792324e-08 -2.2707604918017114e-07 6.096982331116419" Properties=species:S:1:pos:R:3:forces:R:3 energy=-37.43846893310547 free_energy=-37.43846893310547 stress="0.00012910856457892805 -8.533759476847536e-09 6.82154022157988e-09 -8.533759476847536e-09 0.00012913733371533453 -3.778937340825905e-08 6.82154022157988e-09 -3.778937340825905e-08 0.00012914062244817615" pbc="T T T"
Pb       1.76004756       1.24454124       3.04849103       0.00000092       0.00000067       0.00000093
Pb       5.28014163       3.73362367       9.14547317       0.00000000       0.00000070      -0.00000081
Tl      -0.00000009      -0.00000006       0.00000032       0.00000382       0.00000775      -0.00000976
F        1.81179477       1.28113244       6.09698208      -0.00704539      -0.00498184      -0.00000034
F        5.22839449       3.69703241       6.09698266       0.00703810       0.00497685      -0.00000094
F        4.37424420       1.28113184       4.61755129       0.00351941      -0.00497710      -0.00609660
F        2.66594474       3.69703223       7.57641353      -0.00352193       0.00498033       0.00609946
F        2.66594431       3.69703214       4.61755115      -0.00351965       0.00497801      -0.00609672
F        4.37424411       1.28113231       7.57641278       0.00352479      -0.00498534       0.00610490
