9
Lattice="7.0087390572168955 1.1012384206057279e-07 4.046497312716263 2.3362464023434875 6.607902510190834 4.046497406052794 -1.3600454989861208e-08 1.0469645316253485e-07 8.092994648989245" Properties=species:S:1:pos:R:3:forces:R:3 energy=-31.945331573486328 free_energy=-31.945331573486328 stress="4.504113894654438e-05 1.465934840183536e-08 -8.101633808266229e-10 1.465934840183536e-08 4.5031261834083125e-05 8.167965859229298e-09 -8.101633808266229e-10 8.167965859229298e-09 4.5026958105154335e-05" pbc="T T T"
Pb       2.33624638       1.65197565       4.04649757      -0.00000001      -0.00000028       0.00000008
Pb       7.00873885       4.95592698      12.13949207      -0.00000007      -0.00000006      -0.00000008
Ta       0.00000015       0.00000021      -0.00000117      -0.00000215      -0.00000275       0.00001020
I        2.28647821       1.61678420       8.09299468      -0.00045559      -0.00032225       0.00000001
I        7.05850707       4.99111860       8.09299470       0.00045925       0.00032413       0.00000098
I        5.86549989       1.61678429       6.02664575       0.00022933      -0.00032477      -0.00039655
I        3.47948534       4.99111869      10.15934396      -0.00022605       0.00031978       0.00039288
I        3.47948570       4.99111832       6.02664561      -0.00022988       0.00032414      -0.00039753
I        5.86550019       1.61678400      10.15934423       0.00022529      -0.00031787       0.00038996
