9
Lattice="6.450224970857156 -3.201171470200275e-08 3.724039102276868 2.1500749578068676 6.08133046823691 3.724039106256888 -5.218647815269755e-08 -3.202685310059154e-08 7.448078294943342" Properties=species:S:1:pos:R:3:forces:R:3 energy=-24.346704483032227 free_energy=-24.346704483032227 stress="-1.3185856005293317e-05 7.163701187806737e-09 -2.2953883238585604e-09 7.163701187806737e-09 -1.3194679922889918e-05 -3.603099762994333e-10 -2.2953883238585604e-09 -3.603099762994333e-10 -1.3200061403040309e-05" pbc="T T T"
Pb       2.15007482       1.52033256       3.72403926       0.00000007       0.00000028       0.00000077
Pb       6.45022484       4.56099804      11.17211667      -0.00000020       0.00000068      -0.00000292
Tl       0.00000031      -0.00000004      -0.00000049      -0.00000191      -0.00000027       0.00000566
Br       2.24108118       1.58468361       7.44807830      -0.00522343      -0.00369356       0.00000042
Br       6.35921871       4.49664658       7.44807849       0.00522560       0.00369520       0.00000144
Br       5.32968414       1.58468364       5.66487271       0.00261286      -0.00369607      -0.00452525
Br       3.27061557       4.49664695       9.23128432      -0.00261054       0.00369146       0.00452184
Br       3.27061553       4.49664654       5.66487257      -0.00261315       0.00369468      -0.00452483
Br       5.32968444       1.58468372       9.23128412       0.00261072      -0.00369239       0.00452287
