9
Lattice="6.182597227758025 -3.0664970882362566e-08 3.5695242075252698 2.060865706898074 5.829008600200178 3.569524219262931 -3.167082235065516e-08 -8.019068556122003e-09 7.139048469906103" Properties=species:S:1:pos:R:3:forces:R:3 energy=-27.941587448120117 free_energy=-27.941587448120117 stress="5.074817090644501e-05 -1.0318359500161023e-08 7.208315611073601e-10 -1.0318359500161023e-08 5.0750692025758326e-05 5.557411864032247e-09 7.208315611073601e-10 5.557411864032247e-09 5.077139940112829e-05" pbc="T T T"
Pb       2.06086603       1.45725242       3.56952416       0.00000000      -0.00000014      -0.00000031
Pb       6.18259705       4.37175594      10.70857257       0.00000017      -0.00000045      -0.00000054
Tl       0.00000018       0.00000015       0.00000022      -0.00000159      -0.00000107      -0.00000155
Cl       2.13106086       1.50688768       7.13904851      -0.00041559      -0.00029304      -0.00000093
Cl       6.11240126       4.32212057       7.13904868       0.00041912       0.00029592      -0.00000023
Cl       5.11706666       1.50688777       5.41507770       0.00020799      -0.00029547      -0.00036266
Cl       3.12639674       4.32212056       8.86301893      -0.00021046       0.00029687       0.00036412
Cl       3.12639634       4.32212100       5.41507781      -0.00020912       0.00029483      -0.00036239
Cl       5.11706648       1.50688819       8.86301900       0.00020940      -0.00029742       0.00036452
