9
Lattice="6.676912986570592 8.350444367287175e-08 3.854917521153352 2.2256377194430033 6.2950539227735485 3.854917558350772 -4.728129713186751e-08 1.2124416199612837e-08 7.709835124200304" Properties=species:S:1:pos:R:3:forces:R:3 energy=-34.544960021972656 free_energy=-34.544960021972656 stress="4.160392199992202e-05 1.0270960082436886e-08 6.708995137216789e-09 1.0270960082436886e-08 4.1588031308492646e-05 -5.048308437949345e-09 6.708995137216789e-09 -5.048308437949345e-09 4.158812589594163e-05" pbc="T T T"
Pb       2.22563762       1.57376372       3.85491745       0.00000066       0.00000120      -0.00000030
Pb       6.67691310       4.72129040      11.56475254       0.00000077      -0.00000003      -0.00000088
Y        0.00000006       0.00000016      -0.00000012       0.00000033      -0.00000020       0.00000017
Te       2.46341219       1.74189576       7.70983508       0.00016470       0.00011820       0.00000031
Te       6.43913854       4.55315814       7.70983523      -0.00016455      -0.00011773       0.00000033
Te       5.44520678       1.74189525       5.98829508      -0.00008364       0.00011736       0.00014460
Te       3.45734380       4.55315861       9.43137525       0.00008286      -0.00011901      -0.00014466
Te       3.45734373       4.55315859       5.98829508       0.00008220      -0.00011771       0.00014441
Te       5.44520686       1.74189545       9.43137517      -0.00008333       0.00011788      -0.00014398
