9
Lattice="6.234985104705639 -5.506575420321835e-08 3.5997703018464757 2.0783283547067035 5.878400266292247 3.5997702353564547 -8.394971509031074e-08 -1.4079465471026037e-07 7.199540749098087" Properties=species:S:1:pos:R:3:forces:R:3 energy=-37.059207916259766 free_energy=-37.059207916259766 stress="4.059406273881905e-05 6.1439764387216655e-09 4.146762488943523e-09 6.1439764387216655e-09 4.05868049710989e-05 -9.78544356655675e-09 4.146762488943523e-09 -9.78544356655675e-09 4.05883438361343e-05" pbc="T T T"
Pb       2.07832848       1.46960020       3.59976992       0.00000116       0.00000231      -0.00000211
Pb       6.23498504       4.40879951      10.79931058       0.00000011      -0.00000253      -0.00000239
Y       -0.00000019      -0.00000017      -0.00000016      -0.00000006       0.00000028       0.00000180
Se       2.26276784       1.60001847       7.19954071       0.00089556       0.00063318      -0.00000003
Se       6.05054585       4.27838181       7.19954089      -0.00089812      -0.00063446       0.00000161
Se       5.10360161       1.60001836       5.55938483      -0.00044738       0.00063513       0.00077760
Se       3.20971176       4.27838135       8.83969675       0.00044877      -0.00063579      -0.00077720
Se       3.20971233       4.27838153       5.55938479       0.00044890      -0.00063358       0.00077644
Se       5.10360074       1.60001903       8.83969687      -0.00044893       0.00063546      -0.00077569
