9
Lattice="5.946267887688827 -1.663658204501802e-07 3.433079136484922 1.98208915294928 5.606194809315637 3.4330791124021296 3.828437865471164e-08 -2.4241149702197242e-09 6.866158206659363" Properties=species:S:1:pos:R:3:forces:R:3 energy=-39.29442596435547 free_energy=-39.29442596435547 stress="1.1929805623367429e-05 4.040435985785962e-09 1.4492443911606756e-09 4.040435985785962e-09 1.1982374417129904e-05 -1.6025913041062267e-08 1.4492443911606756e-09 -1.6025913041062267e-08 1.2020970643789042e-05" pbc="T T T"
Pb       1.98208923       1.40154864       3.43307941      -0.00000095      -0.00000069       0.00000161
Pb       5.94626809       4.20464584      10.29923684      -0.00000042      -0.00000172      -0.00000134
Y        0.00000014      -0.00000034       0.00000036      -0.00000186       0.00000363      -0.00000248
S        2.16746656       1.53263053       6.86615788      -0.00002836      -0.00002030      -0.00000074
S        5.76089026       4.07356418       6.86615767       0.00002987       0.00001889      -0.00000468
S        4.86253368       1.53262943       5.31016082       0.00000919      -0.00002249      -0.00002470
S        3.06582266       4.07356404       8.42215619      -0.00001451       0.00001576       0.00002655
S        3.06582273       4.07356484       5.31016064      -0.00001165       0.00002371      -0.00002200
S        4.86253502       1.53263146       8.42215604       0.00001871      -0.00001687       0.00002761
