9
Lattice="4.863429501765852 6.218734550762926e-09 2.8079023727678862 1.6211431596563282 4.585285308965191 2.80790239608483 2.870378427703048e-08 4.885393519167741e-08 5.6158046958193575" Properties=species:S:1:pos:R:3:forces:R:3 energy=-49.058067321777344 free_energy=-49.058067321777344 stress="0.00038075167685747147 -5.8341278474927094e-08 3.3454896630757958e-09 -5.8341278474927094e-08 0.00038080447120592 -1.015644368607127e-08 3.3454896630757958e-09 -1.015644368607127e-08 0.00038084221887402236" pbc="T T T"
Pb       1.62114348       1.14632127       2.80790224       0.00000087      -0.00000058      -0.00000057
Pb       4.86342949       3.43896409       8.42370681       0.00000019       0.00000042      -0.00000136
Y       -0.00000005       0.00000012      -0.00000030       0.00000067      -0.00000171       0.00000413
O        1.80737698       1.27800860       5.61580483       0.00335896       0.00237477       0.00000116
O        4.67719553       3.30727685       5.61580496      -0.00335801      -0.00237435      -0.00000075
O        3.95974078       1.27800867       4.37313698      -0.00167814       0.00237334       0.00290576
O        2.52483198       3.30727670       6.85847249       0.00167787      -0.00237456      -0.00290585
O        2.52483165       3.30727654       4.37313729       0.00167745      -0.00237089       0.00290376
O        3.95974088       1.27800855       6.85847253      -0.00167996       0.00237313      -0.00290608
