9
Lattice="6.640280864057617 2.7304408136037053e-08 3.8337679482453675 2.2134269774474316 6.260516872078657 3.8337679534091036 -3.7677463306345796e-08 -2.0317740629328874e-08 7.667535961749986" Properties=species:S:1:pos:R:3:forces:R:3 energy=-20.281410217285156 free_energy=-20.281410217285156 stress="9.81853881967254e-05 1.0898670410597333e-08 5.81198755789103e-10 1.0898670410597333e-08 9.817732643568888e-05 -1.1592513615710232e-09 5.81198755789103e-10 -1.1592513615710232e-09 9.816262172535062e-05" pbc="T T T"
Pd       2.21342718       1.56512909       3.83376809       0.00000038       0.00000022      -0.00000015
Pd       6.64028085       4.69538781      11.50130391      -0.00000023      -0.00000005      -0.00000030
As      -0.00000001       0.00000014      -0.00000056      -0.00000060      -0.00000018       0.00000454
I        2.29845486       1.62525295       7.66753590      -0.00637397      -0.00450715       0.00000028
I        6.55525285       4.63526389       7.66753607       0.00637363       0.00450707      -0.00000019
I        5.49105339       1.62525295       5.82428829       0.00318719      -0.00450701      -0.00552019
I        3.36265424       4.63526405       9.51078376      -0.00318559       0.00450522       0.00551802
I        3.36265433       4.63526380       5.82428813      -0.00318673       0.00450745      -0.00552027
I        5.49105348       1.62525280       9.51078386       0.00318589      -0.00450555       0.00551827
