9
Lattice="5.331667613975418 2.1906653120264313e-08 3.0782396360046453 1.7772225334120844 5.026744303576262 3.078239679710358 3.944384491723751e-08 8.14193556536395e-08 6.156479203690539" Properties=species:S:1:pos:R:3:forces:R:3 energy=-31.927574157714844 free_energy=-31.927574157714844 stress="0.00014318148896563798 5.209280828921692e-08 -1.0073186018644265e-07 5.209280828921692e-08 0.00014307834499049932 -5.5145900290654026e-08 -1.0073186018644265e-07 -5.5145900290654026e-08 0.00014324713265523314" pbc="T T T"
Pd       1.77722011       1.25668316       3.07824089      -0.00003506      -0.00004608       0.00002255
Pd       5.33166850       3.77006257       9.23471551       0.00001561       0.00006225      -0.00005184
As      -0.00000007       0.00000011      -0.00000002       0.00000074      -0.00000302      -0.00000387
S        1.88521433       1.33304612       6.15647931      -0.00356960      -0.00255269      -0.00000711
S        5.22367568       3.69369828       6.15648219       0.00357056       0.00255060       0.00004197
S        4.38905947       1.33304440       4.71088355       0.00177354      -0.00257653      -0.00307471
S        2.71983050       3.69369878       7.60207523      -0.00177649       0.00256771       0.00308704
S        2.71982840       3.69369870       4.71088414      -0.00180551       0.00255436      -0.00307834
S        4.38906373       1.33304554       7.60207311       0.00182623      -0.00255644       0.00306386
