9
Lattice="5.5108440308340345 -4.5846109118927e-08 3.181687243159266 1.8369479767463865 5.19567354358464 3.181687226371346 1.1198493523510374e-08 -1.2642407079280094e-08 6.363374466922175" Properties=species:S:1:pos:R:3:forces:R:3 energy=-33.356170654296875 free_energy=-33.356170654296875 stress="5.7767811085795984e-05 9.081885465889172e-09 1.2211605948664328e-08 9.081885465889172e-09 5.778470222139731e-05 -9.942383805139343e-09 1.2211605948664328e-08 -9.942383805139343e-09 5.7793215091805905e-05" pbc="T T T"
Pd       1.83694859       1.29891806       3.18168665       0.00000313      -0.00000151      -0.00000315
Pd       5.51084397       3.89675512       9.54506156      -0.00000030       0.00000111      -0.00000107
As      -0.00000016      -0.00000008       0.00000010       0.00000055       0.00000159       0.00000308
Se       2.12227711       1.50067671       6.36337429       0.00687560       0.00486165       0.00000045
Se       5.22551529       3.69499725       6.36337420      -0.00688037      -0.00486578       0.00000090
Se       4.44970525       1.50067624       5.01963320      -0.00343867       0.00486316       0.00595652
Se       2.89808630       3.69499711       7.70711630       0.00344165      -0.00486469      -0.00595599
Se       2.89808658       3.69499724       5.01963316       0.00343931      -0.00486118       0.00595631
Se       4.44970515       1.50067630       7.70711622      -0.00344092       0.00486569      -0.00595704
