9
Lattice="6.20366116159418 1.1849111219370476e-07 3.5816856217949073 2.067887142995773 5.848868147311909 3.5816856609106273 -9.277218161749436e-08 -1.7693127347756704e-08 7.163371404275961" Properties=species:S:1:pos:R:3:forces:R:3 energy=-22.491832733154297 free_energy=-22.491832733154297 stress="9.830728231463581e-05 -1.5551216980824734e-09 5.226139521141704e-09 -1.5551216980824734e-09 9.82946585281752e-05 4.786816276691752e-09 5.226139521141704e-09 4.786816276691752e-09 9.828692418523133e-05" pbc="T T T"
Pd       2.06788789       1.46221761       3.58168596       0.00000276       0.00000213      -0.00000041
Pd       6.20366137       4.38665118      10.74505793       0.00000038      -0.00000126       0.00000283
As      -0.00000004      -0.00000005      -0.00000025      -0.00000150      -0.00000197       0.00000071
Br       2.09217231       1.47938945       7.16337149      -0.00154471      -0.00109187      -0.00000115
Br       6.17937543       4.36947891       7.16337116       0.00154577       0.00109300      -0.00000091
Br       5.15757490       1.47938947       5.39355977       0.00077171      -0.00109141      -0.00133763
Br       3.11397334       4.36947828       8.93318245      -0.00077397       0.00109290       0.00133803
Br       3.11397351       4.36947856       5.39355981      -0.00077219       0.00109196      -0.00133930
Br       5.15757415       1.47938958       8.93318244       0.00077177      -0.00109343       0.00133775
