9
Lattice="6.202526791973741 7.22505106992817e-08 3.581030691229193 2.067509004409785 5.847798687083851 3.581030681471823 1.9928208786592813e-07 1.2896338126091478e-07 7.16206103729173" Properties=species:S:1:pos:R:3:forces:R:3 energy=-22.491844177246094 free_energy=-22.491844177246094 stress="-4.5378083086689e-06 3.945174409381025e-09 5.003032363393167e-11 3.945174409381025e-09 -4.539292604022194e-06 -6.803334784422077e-09 5.003032363393167e-11 -6.803334784422077e-09 -4.5501519707613625e-06" pbc="T T T"
Pd       2.06751052       1.46194943       3.58103038       0.00000420      -0.00000042      -0.00000080
Pd       6.20252710       4.38584912      10.74309023       0.00000107      -0.00000113      -0.00000300
As      -0.00000021      -0.00000018       0.00000023      -0.00000070       0.00000142       0.00000315
Br       2.09166952       1.47903415       7.16206126       0.00040579       0.00028753       0.00000000
Br       6.17836652       4.36876482       7.16206167      -0.00040857      -0.00028695       0.00000180
Br       5.15669148       1.47903432       5.39246979      -0.00020362       0.00028597       0.00035101
Br       3.11334356       4.36876503       8.93165270       0.00020443      -0.00028819      -0.00035347
Br       3.11334404       4.36876473       5.39247005       0.00020232      -0.00028622       0.00035255
Br       5.15669138       1.47903414       8.93165323      -0.00020485       0.00028792      -0.00035124
