9
Lattice="4.601047257040534 4.1474040463915946e-08 2.6564157418963337 1.5336824370189859 4.337909182400135 2.6564157784367692 -2.0021113731564732e-07 -9.68179432483349e-08 5.312831830568503" Properties=species:S:1:pos:R:3:forces:R:3 energy=-42.692481994628906 free_energy=-42.692481994628906 stress="-0.0005062137497588992 -1.0205174305610853e-07 5.656688699673396e-07 -1.0205174305610853e-07 -0.0005060835392214358 4.423194184255408e-07 5.656688699673396e-07 4.423194184255408e-07 -0.0005061891279183328" pbc="T T T"
Pd       1.53367979       1.08447857       2.65640259      -0.00003723       0.00001540      -0.00017682
Pd       4.60104228       3.25343262       7.96925987      -0.00006564       0.00001071       0.00016149
As       0.00000008      -0.00000002      -0.00000033       0.00000575      -0.00000627       0.00000081
O        1.49126593       1.05448218       5.31283680       0.00340438       0.00237823       0.00006147
O        4.64346518       3.28342512       5.31282677      -0.00337434      -0.00240123      -0.00005843
O        3.85541802       1.05448492       3.94788947      -0.00164664       0.00241590       0.00293636
O        2.27931427       3.28342328       6.67777512       0.00167972      -0.00241685      -0.00291216
O        2.27931842       3.28342719       3.94788900       0.00173998      -0.00236881       0.00292027
O        3.85541393       1.05448279       6.67777404      -0.00170630       0.00237322      -0.00293183
