9
Lattice="5.060521360827046 1.2796013778880873e-07 2.9216933608188795 1.686840775894023 4.7711034409457005 2.921693011562925 2.4899867071538493e-07 -2.516808151123295e-07 5.843386290359429" Properties=species:S:1:pos:R:3:forces:R:3 energy=-37.55459213256836 free_energy=-37.55459213256836 stress="6.524033778987359e-06 3.467970444148705e-08 4.980783785413223e-08 3.467970444148705e-08 6.625148216699017e-06 7.591614092916643e-08 4.980783785413223e-08 7.591614092916643e-08 6.666587978543248e-06" pbc="T T T"
Pd       1.68683765       1.19277785       2.92169227      -0.00000354       0.00000279      -0.00000172
Pd       5.06052182       3.57832753       8.76508319       0.00000081      -0.00000097       0.00000506
As       0.00000015      -0.00000021       0.00000000       0.00000420       0.00000371      -0.00001003
F        1.47654926       1.04407678       5.84338652      -0.00031520      -0.00022529       0.00000001
F        5.27081346       3.72702631       5.84338532       0.00031292       0.00022069       0.00000108
F        4.32224754       1.04407752       4.20042163       0.00015636      -0.00022260      -0.00027413
F        2.42511507       3.72702486       7.48635065      -0.00015718       0.00022404       0.00027604
F        2.42511480       3.72702559       4.20042136      -0.00015586       0.00021937      -0.00027047
F        4.32224824       1.04407673       7.48635028       0.00015748      -0.00022173       0.00027410
