9
Lattice="5.746757690491562 2.142968702255204e-07 3.3178919818001726 1.915586077361899 5.4180950339712854 3.3178920190560124 5.2731871217948526e-08 8.291595199801071e-08 6.635783872266089" Properties=species:S:1:pos:R:3:forces:R:3 energy=-25.513145446777344 free_energy=-25.513145446777344 stress="0.0002443169942125678 1.2727751297347822e-08 -1.7249417894049657e-08 1.2727751297347822e-08 0.0002442726690787822 2.6924242391146436e-08 -1.7249417894049657e-08 2.6924242391146436e-08 0.000244300055783242" pbc="T T T"
Pd       1.91558617       1.35452373       3.31789214       0.00000051      -0.00000140       0.00000018
Pd       5.74675764       4.06357097       9.95367505      -0.00000115      -0.00000148      -0.00000289
As       0.00000055      -0.00000057       0.00000023      -0.00000400       0.00000531      -0.00000089
Cl       1.91143201       1.35158645       6.63578386      -0.00275087      -0.00194529      -0.00000012
Cl       5.75091174       4.06650876       6.63578440       0.00275207       0.00194731       0.00000215
Cl       4.79104203       1.35158695       4.97324075       0.00137655      -0.00194746      -0.00238630
Cl       2.87130179       4.06650887       8.29832748      -0.00137542       0.00194621       0.00238144
Cl       2.87130154       4.06650925       4.97324032      -0.00137465       0.00194365      -0.00237927
Cl       4.79104186       1.35158698       8.29832722       0.00137702      -0.00194675       0.00238544
