9
Lattice="5.0602410341728605 -1.215070101209427e-07 2.921531383055911 1.6867469579542334 4.770840546517841 2.921531277190905 1.374299765630159e-07 -3.24799741730675e-08 5.843062528076095" Properties=species:S:1:pos:R:3:forces:R:3 energy=-37.55459213256836 free_energy=-37.55459213256836 stress="8.436992175120395e-06 -2.7007239111753734e-08 1.3777762930544668e-08 -2.7007239111753734e-08 8.463672202196904e-06 -9.040802240178891e-08 1.3777762930544668e-08 -9.040802240178891e-08 8.399622856813949e-06" pbc="T T T"
Pd       1.68674767       1.19271043       2.92153198       0.00000142       0.00000080       0.00000101
Pd       5.06024070       3.57812982       8.76459285      -0.00000078      -0.00000076      -0.00000138
As       0.00000008       0.00000002      -0.00000003      -0.00001067      -0.00000191       0.00000289
F        1.47662626       1.04413277       5.84306237      -0.00137892      -0.00097483       0.00000053
F        5.27036165       3.72670764       5.84306272       0.00138645       0.00097890      -0.00000099
F        4.32192754       1.04413247       4.20032756       0.00069145      -0.00097628      -0.00119510
F        2.42506065       3.72670803       7.48579787      -0.00069064       0.00097487       0.00119240
F        2.42506022       3.72670770       4.20032758      -0.00069232       0.00097995      -0.00119879
F        4.32192771       1.04413267       7.48579773       0.00069403      -0.00098073       0.00119944
