9
Lattice="6.6361059020713276 3.9003439275829794e-08 3.8313574573656792 2.2120353279711966 6.256580617723658 3.831357473806421 -2.22705142728378e-08 4.388051386756457e-09 7.662714953305031" Properties=species:S:1:pos:R:3:forces:R:3 energy=-20.28133773803711 free_energy=-20.28133773803711 stress="-0.00024251168360933661 1.3583662195060242e-08 7.212327179928479e-09 1.3583662195060242e-08 -0.00024251770810224116 -2.9674980250860017e-09 7.212327179928479e-09 -2.9674980250860017e-09 -0.0002425285492790863" pbc="T T T"
Pd       2.21203578       1.56414462       3.83135746       0.00000096      -0.00000106      -0.00000016
Pd       6.63610589       4.69243521      11.49407236       0.00000005      -0.00000074      -0.00000066
As      -0.00000002      -0.00000006       0.00000008      -0.00000087       0.00000131       0.00000125
I        2.29755757       1.62461883       7.66271512      -0.00528497      -0.00373627      -0.00000008
I        6.55058365       4.63196208       7.66271509       0.00528395       0.00373733       0.00000029
I        5.48732688       1.62461870       5.82110050       0.00264145      -0.00373602      -0.00457618
I        3.36081419       4.63196216       9.50432923      -0.00264071       0.00373543       0.00457475
I        3.36081399       4.63196249       5.82110068      -0.00264164       0.00373624      -0.00457540
I        5.48732689       1.62461866       9.50432900       0.00264173      -0.00373622       0.00457625
