9
Lattice="5.711754686313073 3.0665780970712054e-07 3.29768318281168 1.9039184419785857 5.385094106737331 3.297683314295107 1.9094386413501107e-07 2.960514789645278e-07 6.595366034898878" Properties=species:S:1:pos:R:3:forces:R:3 energy=-26.431921005249023 free_energy=-26.431921005249023 stress="1.5169775906542782e-05 4.837479750108287e-08 8.403177709226384e-09 4.837479750108287e-08 1.5155837900238112e-05 -6.547958841807144e-10 8.403177709226384e-09 -6.547958841807144e-10 1.5235380487865768e-05" pbc="T T T"
Pd       1.90391773       1.34627463       3.29768369      -0.00000229       0.00000340       0.00000513
Pd       5.71175590       4.03882071       9.89304820       0.00000504       0.00000179       0.00000060
B       -0.00000002       0.00000483       0.00000485      -0.00000105       0.00004251       0.00003033
Cl       1.69589518       1.19917883       6.59536505       0.00180781       0.00127316      -0.00000196
Cl       5.91977666       4.18591423       6.59536537      -0.00181621      -0.00129083       0.00000126
Cl       4.86380775       1.19917869       4.76637104      -0.00090033       0.00126854       0.00155723
Cl       2.75186632       4.18591427       8.42435852       0.00091389      -0.00129730      -0.00157911
Cl       2.75186602       4.18591367       4.76637329       0.00090206      -0.00128475       0.00156176
Cl       4.86380783       1.19917888       8.42436054      -0.00090960       0.00128335      -0.00157541
