9
Lattice="6.8648190777724265 3.2401494142347836e-08 3.963405088308246 2.288273131755304 6.472213420663494 3.9634049579147073 8.453864436477329e-08 -9.99210355895333e-08 7.926810030191302" Properties=species:S:1:pos:R:3:forces:R:3 energy=-19.62886619567871 free_energy=-19.62886619567871 stress="0.00011708913370966911 1.052072029494866e-08 3.3984384195662187e-09 1.052072029494866e-08 0.00011708415695466101 -7.322810136045632e-10 3.3984384195662187e-09 -7.322810136045632e-10 0.00011707462545018643" pbc="T T T"
Pd       2.28827317       1.61805333       3.96340507       0.00000002       0.00000008       0.00000022
Pd       6.86481931       4.85415990      11.89021531       0.00000057      -0.00000014      -0.00000020
Bi       0.00000034      -0.00000020       0.00000004      -0.00000257       0.00000069      -0.00000011
I        2.47287756       1.74858866       7.92681003      -0.00289944      -0.00204976      -0.00000030
I        6.68021445       4.72362492       7.92681008       0.00290056       0.00205077       0.00000025
I        5.62838050       1.74858843       6.10497963       0.00144950      -0.00204912      -0.00250995
I        3.52471165       4.72362510       9.74864046      -0.00144938       0.00204892       0.00250918
I        3.52471195       4.72362475       6.10497937      -0.00144942       0.00204928      -0.00251041
I        5.62838029       1.74858857       9.74864029       0.00145022      -0.00205076       0.00251132
