9
Lattice="4.9945508518204385 -1.3272011834389542e-07 2.8836052998127824 1.6648502501529656 4.70890723623029 2.883605141602873 9.503737662955313e-08 -1.265652217133174e-07 5.767210435015987" Properties=species:S:1:pos:R:3:forces:R:3 energy=-36.42719268798828 free_energy=-36.42719268798828 stress="0.0002510580525267869 -6.165026178450717e-08 -3.7637953198554897e-08 -6.165026178450717e-08 0.0002510636404622346 3.842662721353918e-08 -3.7637953198554897e-08 3.842662721353918e-08 0.0002511278144083917" pbc="T T T"
Pd       1.66484984       1.17722675       2.88360521      -0.00000310       0.00000005      -0.00000051
Pd       4.99455094       3.53168009       8.65081591       0.00000145      -0.00000026       0.00000098
Bi      -0.00000002      -0.00000006      -0.00000033       0.00000510       0.00000428       0.00000445
F        1.69549882       1.19889880       5.76721051      -0.00373986      -0.00264375      -0.00000024
F        4.96390241       3.51000829       5.76721048       0.00373493       0.00264005      -0.00000037
F        4.14680172       1.19889859       4.35195055       0.00187226      -0.00264619      -0.00324124
F        2.51259991       3.51000845       7.18247052      -0.00187032       0.00264478       0.00323878
F        2.51259971       3.51000864       4.35195016      -0.00186945       0.00264397      -0.00323831
F        4.14680150       1.19889834       7.18247055       0.00186908      -0.00264277       0.00323623
