9
Lattice="5.977578789444048 -4.325992491180887e-08 3.4511565693220847 1.9925262378499002 5.635715479211529 3.451156542496541 1.3889725264347377e-07 6.536075328191865e-08 6.902312898067162" Properties=species:S:1:pos:R:3:forces:R:3 energy=-23.39653968811035 free_energy=-23.39653968811035 stress="2.9034434191999026e-05 6.8137353537167655e-09 -4.029295563867663e-09 6.8137353537167655e-09 2.9088439987390302e-05 2.895613970821387e-09 -4.029295563867663e-09 2.895613970821387e-09 2.910145849455148e-05" pbc="T T T"
Pd       1.99252541       1.40892694       3.45115724      -0.00000064      -0.00000773       0.00000268
Pd       5.97758209       4.22678419      10.35346853       0.00000978      -0.00000792      -0.00000165
B       -0.00000009      -0.00000004       0.00000005       0.00000084      -0.00000066       0.00000051
Br       1.85657737       1.31279927       6.90231231       0.00189430       0.00134489      -0.00000112
Br       6.11352751       4.32291860       6.90231324      -0.00190131      -0.00134130       0.00000075
Br       5.04928946       1.31279941       5.05900016      -0.00094746       0.00134470       0.00164337
Br       2.92081453       4.32291683       8.74562565       0.00094610      -0.00133862      -0.00164497
Br       2.92081423       4.32291780       5.05900012       0.00094577      -0.00133921       0.00164591
Br       5.04929017       1.31279907       8.74562690      -0.00094725       0.00134571      -0.00164527
