9
Lattice="6.287494815194626 3.176199447140633e-07 3.6300866663886118 2.0958319333032396 5.927907345316423 3.630086616534233 -8.618284314578396e-08 -1.2199934471793455e-07 7.260173482050327" Properties=species:S:1:pos:R:3:forces:R:3 energy=-20.3637752532959 free_energy=-20.3637752532959 stress="9.642154327593744e-05 -3.075174281885751e-10 8.258553840789773e-09 -3.075174281885751e-10 9.641087672207505e-05 -2.920205188772229e-09 8.258553840789773e-09 -2.920205188772229e-09 9.640537609811872e-05" pbc="T T T"
Pd       2.09583223       1.48197774       3.63008659       0.00000231       0.00000307      -0.00000027
Pd       6.28749477       4.44593001      10.89025972      -0.00000032      -0.00000057      -0.00000100
B        0.00000084       0.00000161      -0.00000074      -0.00000019      -0.00000020      -0.00000020
I        2.00128049       1.41511844       7.26017402       0.00209801       0.00148292       0.00000015
I        6.38204608       4.51278842       7.26017374      -0.00209773      -0.00148417       0.00000087
I        5.28685436       1.41511918       5.36324570      -0.00104991       0.00148344       0.00181586
I        3.09647150       4.51278815       9.15710089       0.00104840      -0.00148456      -0.00181557
I        3.09647170       4.51278812       5.36324585       0.00104860      -0.00148396       0.00181684
I        5.28685459       1.41511846       9.15710111      -0.00104918       0.00148395      -0.00181684
