9
Lattice="5.946983389274845 1.1076530510308913e-07 3.4334924142950825 1.9823279106099978 5.606869560420414 3.4334923973997133 -9.593795118179191e-08 -8.853087705489502e-08 6.866984994759638" Properties=species:S:1:pos:R:3:forces:R:3 energy=-24.935731887817383 free_energy=-24.935731887817383 stress="0.00011796383478213102 -4.2266559141523885e-09 -1.676049876664365e-08 -4.2266559141523885e-09 0.00011793270095949993 1.9864984324158286e-08 -1.676049876664365e-08 1.9864984324158286e-08 0.00011796246690209955" pbc="T T T"
Pd       1.98232717       1.40171718       3.43349245      -0.00000151      -0.00000038      -0.00000100
Pd       5.94698302       4.20515186      10.30047734      -0.00000185      -0.00000082      -0.00000162
Bi       0.00000030       0.00000013      -0.00000037      -0.00000256      -0.00000126       0.00000483
Cl       2.04803812       1.44818164       6.86698419       0.00069224       0.00048931      -0.00000209
Cl       5.88127307       4.15868813       6.86698464      -0.00068995      -0.00048812       0.00000028
Cl       4.92296518       1.44818174       5.20714586      -0.00034373       0.00048856       0.00059859
Cl       3.00634683       4.15868778       8.52682480       0.00034751      -0.00049127      -0.00059886
Cl       3.00634680       4.15868838       5.20714547       0.00034673      -0.00048838       0.00060076
Cl       4.92296432       1.44818150       8.52682481      -0.00034703       0.00049234      -0.00060082
