9
Lattice="4.576737486209127 2.741244550302781e-09 2.642380965433644 1.5255791690672142 4.314989308245773 2.6423809577900306 1.2316378098839772e-07 7.772844731975098e-08 5.284761717541315" Properties=species:S:1:pos:R:3:forces:R:3 energy=-36.770118713378906 free_energy=-36.770118713378906 stress="0.0007199787069112062 3.46762263347955e-08 2.2496989160458725e-08 3.46762263347955e-08 0.0007200150866992772 2.1211731038306425e-08 2.2496989160458725e-08 2.1211731038306425e-08 0.0007201781263574958" pbc="T T T"
Pd       1.52558089       1.07874680       2.64238258       0.00001250      -0.00000804       0.00001275
Pd       4.57673655       3.23624395       7.92714222      -0.00000539       0.00001924      -0.00000315
Ga       0.00000027       0.00000011       0.00000021      -0.00000464       0.00000016      -0.00000324
F        1.53542855       1.08571078       5.28476123       0.00625122       0.00441542      -0.00000411
F        4.56688844       3.22927876       5.28476198      -0.00625223      -0.00441906       0.00000198
F        3.80902213       1.08571044       3.97210078      -0.00313073       0.00441623       0.00541049
F        2.29329353       3.22927848       6.59742268       0.00312926      -0.00441897      -0.00541255
F        2.29329351       3.22927793       3.97210026       0.00312696      -0.00442371       0.00541010
F        3.80902323       1.08571049       6.59742278      -0.00312677       0.00441867      -0.00541195
