9
Lattice="6.080469883164811 2.80734650581905e-09 3.510560887248077 2.0268233136168528 5.7327218211017374 3.510560858527534 3.755722483272611e-08 -8.618349849124498e-09 7.021121709445119" Properties=species:S:1:pos:R:3:forces:R:3 energy=-21.599382400512695 free_energy=-21.599382400512695 stress="0.0002215765998698771 1.4206085197088214e-08 3.068774123704543e-09 1.4206085197088214e-08 0.00022155256010591984 -1.1587829362724733e-08 3.068774123704543e-09 -1.1587829362724733e-08 0.00022155206534080207" pbc="T T T"
Pd       2.02682359       1.43318093       3.51055943       0.00000091       0.00000152      -0.00000695
Pd       6.08047098       4.29954059      10.53168079       0.00000410      -0.00000346      -0.00000593
Ga      -0.00000032       0.00000006       0.00000037       0.00000096       0.00000016       0.00000139
Br       2.04550198       1.44638917       7.02112195       0.00110015       0.00078124       0.00000265
Br       6.06179081       4.28633281       7.02112224      -0.00110099      -0.00077978       0.00000337
Br       5.05771864       1.44638849       5.28201835      -0.00055148       0.00077903       0.00095668
Br       3.04957466       4.28633312       8.76022603       0.00055103      -0.00078118      -0.00095341
Br       3.04957436       4.28633377       5.28201843       0.00054900      -0.00077742       0.00095618
Br       5.05771821       1.44638840       8.76022613      -0.00055374       0.00077984      -0.00095385
