9
Lattice="5.742239426866385 -1.6422826887784062e-07 3.3152833647209543 1.9140797217206158 5.413834822425121 3.3152832476325087 7.757526948925918e-08 -8.854953292394001e-08 6.630566595077599" Properties=species:S:1:pos:R:3:forces:R:3 energy=-24.564266204833984 free_energy=-24.564266204833984 stress="0.00022271732450462878 1.8699712001080115e-08 -1.9640211679217146e-09 1.8699712001080115e-08 0.0002227701770607382 -1.1812727684912261e-08 -1.9640211679217146e-09 -1.1812727684912261e-08 0.00022269161127042025" pbc="T T T"
Pd       1.91407931       1.35345886       3.31528322      -0.00000096       0.00000295      -0.00000127
Pd       5.74224082       4.06037602       9.94584994       0.00000471       0.00000064       0.00000351
Ga       0.00000057      -0.00000039      -0.00000129      -0.00000775       0.00000942       0.00001500
Cl       1.91557536       1.35451578       6.63056655      -0.00750867      -0.00530583       0.00000014
Cl       5.74074432       4.05931881       6.63056631       0.00750369       0.00530815       0.00000168
Cl       4.78445133       1.35451627       4.97422046       0.00376016      -0.00531673      -0.00651047
Cl       2.87186649       4.05931899       8.28691450      -0.00374757       0.00529766       0.00648838
Cl       2.87186687       4.05931853       4.97421991      -0.00375731       0.00530946      -0.00649822
Cl       4.78445175       1.35451543       8.28691335       0.00375369      -0.00530601       0.00650114
