9
Lattice="6.548292788707412 2.7611025831323394e-08 3.7806584332760313 2.182764267148047 6.173789692568796 3.7806584710111073 -5.355669447794898e-09 4.2428780037606865e-08 7.561316875828403" Properties=species:S:1:pos:R:3:forces:R:3 energy=-19.214622497558594 free_energy=-19.214622497558594 stress="6.406351894838735e-05 -2.812732935453255e-09 2.7741355879129515e-09 -2.812732935453255e-09 6.404875603038818e-05 1.7923125206209534e-09 2.7741355879129515e-09 1.7923125206209534e-09 6.40613361611031e-05" pbc="T T T"
Pd       2.18276445       1.54344717       3.78065847       0.00000008      -0.00000126      -0.00000012
Pd       6.54829278       4.63034235      11.34197554       0.00000012       0.00000120      -0.00000037
Ga      -0.00000006       0.00000001      -0.00000026      -0.00000019       0.00000012       0.00000163
I        2.25374720       1.59364002       7.56131690       0.00168522       0.00119193       0.00000025
I        6.47730966       4.58014987       7.56131675      -0.00168519      -0.00119166       0.00000068
I        5.42141914       1.59364019       5.73246089      -0.00084203       0.00119054       0.00145866
I        3.30963784       4.58014967       9.39017293       0.00084295      -0.00119241      -0.00146015
I        3.30963805       4.58014977       5.73246108       0.00084151      -0.00119089       0.00145933
I        5.42141915       1.59363999       9.39017291      -0.00084255       0.00119253      -0.00146005
