9
Lattice="6.078919937219269 -1.3680825861631266e-07 3.509665744534233 2.026306485131159 5.7312607548844685 3.5096657993095417 -1.055179594807391e-08 5.962453871267019e-08 7.019331507344698" Properties=species:S:1:pos:R:3:forces:R:3 energy=-21.59941291809082 free_energy=-21.59941291809082 stress="0.00010060622298624367 2.04172390105839e-09 -1.1766782215261173e-08 2.04172390105839e-09 0.00010059696069220081 -5.085217136269193e-09 -1.1766782215261173e-08 -5.085217136269193e-09 0.00010063997615361586" pbc="T T T"
Pd       2.02630541       1.43281360       3.50966473      -0.00000537      -0.00000587      -0.00000446
Pd       6.07892023       4.29844564      10.52899606       0.00000162       0.00000035      -0.00000440
Ga       0.00000019       0.00000028       0.00000021      -0.00000293      -0.00000223      -0.00000024
Br       2.04551949       1.44640054       7.01933183      -0.00166279      -0.00117558       0.00000137
Br       6.05970678       4.28485977       7.01933205       0.00166887       0.00118148       0.00000180
Br       5.05616034       1.44640097       5.28113827       0.00083441      -0.00117987      -0.00144228
Br       3.04906685       4.28486013       8.75752558      -0.00083253       0.00117996       0.00144339
Br       3.04906599       4.28486074       5.28113837      -0.00083418       0.00118008      -0.00143912
Br       5.05616034       1.44640113       8.75752506       0.00083306      -0.00117829       0.00144419
