9
Lattice="4.574439011172219 5.7463505214844086e-08 2.641053570172081 1.5248130504687893 4.31282246511723 2.6410535830453994 -5.320376196941582e-09 1.2004458644596454e-08 5.2821071495593435" Properties=species:S:1:pos:R:3:forces:R:3 energy=-36.770206451416016 free_energy=-36.770206451416016 stress="0.00022666573931928724 7.45113570843614e-09 3.2668179272832276e-08 7.45113570843614e-09 0.00022660884133074433 1.3205171178753972e-08 3.2668179272832276e-08 1.3205171178753972e-08 0.0002265784132760018" pbc="T T T"
Pd       1.52481281       1.07820542       2.64105366      -0.00000208      -0.00000139       0.00000231
Pd       4.57443914       3.23461705       7.92316025      -0.00000012       0.00000091      -0.00000524
Ga      -0.00000006       0.00000007      -0.00000023      -0.00000035      -0.00000122       0.00000077
F        1.53536288       1.08566565       5.28210699      -0.00119740      -0.00084811       0.00000028
F        4.56388907       3.22715691       5.28210757       0.00120056       0.00084862       0.00000260
F        3.80675755       1.08566538       3.97071690       0.00059853      -0.00084913      -0.00103670
F        2.29249468       3.22715717       6.59349765      -0.00059743       0.00084698       0.00103745
F        2.29249437       3.22715693       3.97071685      -0.00060053       0.00084877      -0.00103796
F        3.80675786       1.08566557       6.59349769       0.00059898      -0.00084502       0.00103572
