9
Lattice="5.8143451711406104 -9.83146936671125e-08 3.356913821286487 1.9381150393060786 5.481817403031218 3.3569136914672426 -6.877973440344223e-09 -1.6385890482182475e-07 6.7138276544859" Properties=species:S:1:pos:R:3:forces:R:3 energy=-29.12183380126953 free_energy=-29.12183380126953 stress="0.00012774461356457323 -1.0917395876219871e-08 7.877731178496106e-08 -1.0917395876219871e-08 0.00012779305689036846 -4.688886079406984e-08 7.877731178496106e-08 -4.688886079406984e-08 0.00012777674419339746" pbc="T T T"
Pd       1.93811531       1.37045398       3.35691323      -0.00000152       0.00000007      -0.00000186
Pd       5.81434459       4.11136340      10.07074131      -0.00000114       0.00000156       0.00000191
Ir       0.00000008      -0.00000013       0.00000024      -0.00000391       0.00000279      -0.00000545
Cl       1.88518209       1.33302469       6.71382804      -0.00043830      -0.00031152       0.00000097
Cl       5.86727851       4.14879203       6.71382737       0.00043961       0.00031370      -0.00000072
Cl       4.87175443       1.33302524       4.98952963       0.00021897      -0.00031185      -0.00038192
Cl       2.88070604       4.14879218       8.43812645      -0.00021675       0.00030956       0.00037935
Cl       2.88070572       4.14879197       4.98952938      -0.00022021       0.00031313      -0.00038204
Cl       4.87175400       1.33302526       8.43812487       0.00022337      -0.00031748       0.00038984
