9
Lattice="6.13657965943544 1.1594147385434915e-08 3.542955924132548 2.0455265902702493 5.785622638576152 3.5429558787631756 5.169009213472277e-08 -1.9015478211775656e-08 7.085911758735228" Properties=species:S:1:pos:R:3:forces:R:3 energy=-26.374164581298828 free_energy=-26.374164581298828 stress="7.252016803249717e-05 -2.3489976186397143e-08 5.278136594455418e-09 -2.3489976186397143e-08 7.255348464241251e-05 -5.69998359623014e-09 5.278136594455418e-09 -5.69998359623014e-09 7.256448589032516e-05" pbc="T T T"
Pd       2.04552695       1.44640593       3.54295555       0.00000104       0.00000040      -0.00000055
Pd       6.13657979       4.33921643      10.62886782       0.00000182      -0.00000163       0.00000124
Ir       0.00000005      -0.00000013      -0.00000019       0.00000067       0.00000202      -0.00000158
Br       2.01869018       1.42742954       7.08591180      -0.00016144      -0.00011279       0.00000055
Br       6.16341596       4.35819326       7.08591181       0.00015922       0.00011270      -0.00000047
Br       5.12723460       1.42742955       5.29119289       0.00008139      -0.00011428      -0.00014099
Br       3.05487150       4.35819340       8.88063084      -0.00008184       0.00011395       0.00014053
Br       3.05487151       4.35819310       5.29119287      -0.00008176       0.00011496      -0.00014102
Br       5.12723468       1.42742944       8.88063085       0.00008089      -0.00011533       0.00014227
