9
Lattice="4.909034840696418 1.9420383682052436e-07 2.8342326732909293 1.63634518852691 4.628282444294786 2.834232571912239 1.4245819889559694e-07 -2.3429855161310446e-08 5.6684650998369905" Properties=species:S:1:pos:R:3:forces:R:3 energy=-38.068729400634766 free_energy=-38.068729400634766 stress="2.515364576538559e-05 5.673617664569974e-08 4.9622148168282365e-08 5.673617664569974e-08 2.5190049200318754e-05 -5.4022507356421556e-08 4.9622148168282365e-08 -5.4022507356421556e-08 2.50894754572073e-05" pbc="T T T"
Pd       1.63634516       1.15706996       2.83423274       0.00000061      -0.00000234       0.00000024
Pd       4.90903553       3.47121204       8.50269858       0.00000136      -0.00000004       0.00000402
Ir       0.00000012       0.00000015      -0.00000011       0.00000795      -0.00000481      -0.00000556
F        1.60394044       1.13415710       5.66846492      -0.00624936      -0.00441933      -0.00000072
F        4.94143950       3.49412600       5.66846527       0.00624510       0.00441709      -0.00000110
F        4.10706536       1.13415682       4.22328494       0.00311971      -0.00441127      -0.00540322
F        2.43831474       3.49412585       7.11364501      -0.00312400       0.00441823       0.00540816
F        2.43831529       3.49412561       4.22328509      -0.00312360       0.00441923      -0.00541017
F        4.10706458       1.13415694       7.11364492       0.00312228      -0.00441671       0.00540824
