9
Lattice="6.5977723979981935 3.702224125612778e-08 3.809225659948383 2.199257477220207 6.220439583909099 3.8092257009703823 -3.781890989220767e-08 2.3499474455261564e-08 7.618451385401055" Properties=species:S:1:pos:R:3:forces:R:3 energy=-26.55496597290039 free_energy=-26.55496597290039 stress="1.4648677279183175e-05 -5.809859260352823e-09 2.286554945385433e-09 -5.809859260352823e-09 1.4659304724773392e-05 9.748318596791705e-09 2.286554945385433e-09 9.748318596791705e-09 1.4673786608909722e-05" pbc="T T T"
Pd       2.19925746       1.55510992       3.80922571      -0.00000032       0.00000021       0.00000072
Pd       6.59777234       4.66532980      11.42767642      -0.00000026       0.00000034      -0.00000199
Mo      -0.00000015       0.00000037       0.00000022       0.00000037      -0.00000353      -0.00000013
I        2.23225651       1.57844398       7.61845134      -0.00320806      -0.00226909      -0.00000089
I        6.56477330       4.64199558       7.61845160       0.00321072       0.00227021       0.00000091
I        5.48164415       1.57844386       5.74241667       0.00160396      -0.00226982      -0.00277941
I        3.31538591       4.64199562       9.49448597      -0.00160497       0.00227065       0.00278170
I        3.31538574       4.64199545       5.74241677      -0.00160562       0.00227033      -0.00278085
I        5.48164412       1.57844401       9.49448632       0.00160421      -0.00226936       0.00278006
