9
Lattice="6.2027049209627725 -1.6355706300530172e-07 3.581133422502366 2.0675681841211455 5.847966249909799 3.5811333682257285 -1.4911457288293745e-08 -7.70190664561303e-08 7.162266870832151" Properties=species:S:1:pos:R:3:forces:R:3 energy=-29.62261199951172 free_energy=-29.62261199951172 stress="0.00027530090301297605 -3.457337527379423e-08 7.820072589481697e-09 -3.457337527379423e-08 0.00027534147375263274 1.9179464683105607e-09 7.820072589481697e-09 1.9179464683105607e-09 0.00027536560082808137" pbc="T T T"
Pd       2.06756853       1.46199144       3.58113325       0.00000041      -0.00000045      -0.00000045
Pd       6.20270484       4.38597441      10.74340061       0.00000013      -0.00000043       0.00000129
Mo       0.00000011      -0.00000009       0.00000010      -0.00000139       0.00000216      -0.00000332
Br       2.03492651       1.43891024       7.16226686      -0.00504394      -0.00356600      -0.00000024
Br       6.23534656       4.40905585       7.16226670       0.00504296       0.00356718       0.00000015
Br       5.18524151       1.43891039       5.34343185       0.00252392      -0.00356945      -0.00437204
Br       3.08503135       4.40905566       8.98110204      -0.00252393       0.00356915       0.00437056
Br       3.08503165       4.40905549       5.34343168      -0.00252258       0.00356795      -0.00436973
Br       5.18524131       1.43891065       8.98110159       0.00252442      -0.00357014       0.00437360
