9
Lattice="4.348076533551407 -6.109411212242963e-08 2.510363167233504 1.4493587690701646 4.099405851537219 2.5103631981451944 -1.256862881411561e-07 -5.101467648212278e-08 5.02072655216205" Properties=species:S:1:pos:R:3:forces:R:3 energy=-29.94646453857422 free_energy=-29.94646453857422 stress="-0.00010274590022163466 -1.7103442928600998e-07 -1.763702250912047e-08 -1.7103442928600998e-07 -0.00010273013322148472 2.9818667535153054e-09 -1.763702250912047e-08 2.9818667535153054e-09 -0.00010238716640742496" pbc="T T T"
Pd       1.44935878       1.02485153       2.51036324      -0.00000090      -0.00000059       0.00000056
Pd       4.34807648       3.07455420       7.53108968       0.00000165       0.00000094      -0.00000037
N        0.00000061      -0.00000030       0.00000039      -0.00001414       0.00000800      -0.00000631
F        1.40279855       0.99192801       5.02072650      -0.00010198      -0.00007406      -0.00000064
F        4.39463669       3.10747744       5.02072652       0.00010586       0.00007316      -0.00000001
F        3.64667675       0.99192852       3.72522340       0.00005889      -0.00008026      -0.00010127
F        2.15075804       3.10747725       6.31622963      -0.00005552       0.00007877       0.00010294
F        2.15075805       3.10747765       3.72522296      -0.00005308       0.00007617      -0.00009882
F        3.64667670       0.99192879       6.31622947       0.00005907      -0.00008214       0.00010377
