9
Lattice="5.629904587411843 1.7431290043639258e-07 3.2504268987996765 1.8766350446030142 5.307924716571036 3.2504268679888435 6.03294858296968e-08 4.924013039860955e-09 6.500853693105573" Properties=species:S:1:pos:R:3:forces:R:3 energy=-22.88872528076172 free_energy=-22.88872528076172 stress="-9.894059621728957e-05 2.703011858784521e-08 5.6939615689088896e-08 2.703011858784521e-08 -9.902822057483718e-05 2.873826732141538e-09 5.6939615689088896e-08 2.873826732141538e-09 -9.903261525323614e-05" pbc="T T T"
Pd       1.87663497       1.32698003       3.25042711       0.00000146      -0.00000410       0.00000093
Pd       5.62990453       3.98094420       9.75128088      -0.00000054       0.00000039       0.00000209
N        0.00000039      -0.00000022       0.00000001      -0.00000376       0.00000100       0.00000272
Cl       1.77408868       1.25447025       6.50085353       0.00172046       0.00121727       0.00000028
Cl       5.73245118       4.05345462       6.50085346      -0.00171897      -0.00121402       0.00000085
Cl       4.74286004       1.25447021       4.78683257      -0.00086163       0.00121673       0.00149232
Cl       2.76367920       4.05345531       8.21487482       0.00086475      -0.00122118      -0.00149721
Cl       2.76367980       4.05345505       4.78683269       0.00085936      -0.00121484       0.00149077
Cl       4.74286012       1.25447015       8.21487479      -0.00086124       0.00121866      -0.00149270
