9
Lattice="5.631192829648302 -1.6484222948950846e-07 3.2511708098779657 1.8770641490282443 5.309139276719736 3.251170761564977 2.5439134136317608e-08 -4.1182917241686884e-08 6.502341575694042" Properties=species:S:1:pos:R:3:forces:R:3 energy=-22.88872528076172 free_energy=-22.88872528076172 stress="0.00011328252730891109 2.6090425819802476e-08 5.088017118737298e-09 2.6090425819802476e-08 0.000113291411253158 2.989514769069501e-08 5.088017118737298e-09 2.989514769069501e-08 0.0001132889447035268" pbc="T T T"
Pd       1.87706414       1.32728498       3.25117080      -0.00000199      -0.00000023      -0.00000028
Pd       5.63119351       3.98185390       9.75351180       0.00000280      -0.00000131      -0.00000284
N       -0.00000007      -0.00000022      -0.00000024      -0.00000130      -0.00000026      -0.00000021
Cl       1.77424311       1.25457951       6.50234184      -0.00121677      -0.00085821      -0.00000070
Cl       5.73401371       4.05455917       6.50234191       0.00121894       0.00086228       0.00000193
Cl       4.74407084       1.25457944       4.78771095       0.00060790      -0.00086204      -0.00105612
Cl       2.76418572       4.05455990       8.21697223      -0.00061048       0.00086123       0.00105412
Cl       2.76418585       4.05456024       4.78771070      -0.00060838       0.00085936      -0.00105184
Cl       4.74407123       1.25457937       8.21697247       0.00060918      -0.00086079       0.00105605
