9
Lattice="3.350344432229389 -0.005249201182532926 1.9183273762952335 1.0736141332521474 3.2383933577559882 2.018650127313711 -0.0434206137605914 0.150560620975881 3.961090082264049" Properties=species:S:1:pos:R:3:forces:R:3 energy=-262.3569641113281 free_energy=-262.3569641113281 stress="0.0001398703461745754 -0.00022896291920915246 0.00020370984566397965 -0.00022896291920915246 -0.0006413705996237695 0.0005105704185552895 0.00020370984566397965 0.0005105704185552895 -0.00015547980729024857" pbc="T T T"
Pd       1.27586392       0.58154077       1.65814990       0.00370789      -0.00003052      -0.00870514
Pd       3.10467868       2.80216899       6.23990610      -0.00072861       0.00945282       0.00219727
N        0.00000212       0.00000162      -0.00000548      -0.00011140       0.00290869      -0.00033816
F        1.14639521       0.91158396       4.00478275       0.00163460      -0.00405884       0.00565720
F        3.23414590       2.47212548       3.89327160       0.00070095      -0.00191879       0.00257111
F        2.78648705       0.81963775       2.90535618       0.00170922      -0.00426817      -0.00298357
F        1.59405568       2.56407022       4.99270166      -0.00082326       0.00071907       0.00221539
F        1.71179050       2.47451066       3.02160793      -0.00137329      -0.00024033      -0.00079012
F        2.66875400       0.90919903       4.87644910      -0.00475311      -0.00247383       0.00026608
