9
Lattice="6.503413079618597 -2.8645606409258706e-08 3.7547472967730546 2.167804347861494 6.131476435812981 3.7547472707992897 1.3274510544299343e-08 -2.242474503174187e-08 7.509494570553989" Properties=species:S:1:pos:R:3:forces:R:3 energy=-20.32756233215332 free_energy=-20.32756233215332 stress="-7.934122550068423e-06 -3.720367347526121e-09 7.3049255533419455e-09 -3.720367347526121e-09 -7.927541446406394e-06 -4.956422827717688e-09 7.3049255533419455e-09 -4.956422827717688e-09 -7.928897503006738e-06" pbc="T T T"
Pd       2.16780457       1.53286916       3.75474734       0.00000033       0.00000092       0.00000069
Pd       6.50341303       4.59860729      11.26424204      -0.00000006      -0.00000066       0.00000099
P        0.00000002      -0.00000012      -0.00000019       0.00000091       0.00000008      -0.00000078
I        2.23754596       1.58218389       7.50949448      -0.00659004      -0.00465944       0.00000004
I        6.43367159       4.54929251       7.50949443       0.00658955       0.00465915      -0.00000016
I        5.38463999       1.58218383       5.69251886       0.00329527      -0.00465948      -0.00570697
I        3.28657719       4.54929272       9.32647037      -0.00329504       0.00465924       0.00570665
I        3.28657737       4.54929264       5.69251885      -0.00329568       0.00466005      -0.00570782
I        5.38464007       1.58218356       9.32647038       0.00329483      -0.00465984       0.00570726
