9
Lattice="5.769453385913011 -2.0962096021818175e-07 3.3309955959045414 1.9231510226483166 5.439492269760501 3.330995437173923 2.1401588293377108e-07 -4.307241317228829e-08 6.661990821122772" Properties=species:S:1:pos:R:3:forces:R:3 energy=-26.55105209350586 free_energy=-26.55105209350586 stress="-3.558008393156342e-05 1.1389919229998213e-08 -5.358518517795119e-09 1.1389919229998213e-08 -3.556855153874494e-05 -7.721551753547828e-08 -5.358518517795119e-09 -7.721551753547828e-08 -3.5533834306988865e-05" pbc="T T T"
Pd       1.92315155       1.35987240       3.33099510       0.00000118      -0.00000179       0.00000054
Pd       5.76945402       4.07961926       9.99298510       0.00000225       0.00000128      -0.00000512
P       -0.00000009      -0.00000015       0.00000124      -0.00000319       0.00000349      -0.00001613
Cl       1.79449043       1.26889647       6.66199130      -0.00067478      -0.00047702       0.00000256
Cl       5.89811404       4.17059573       6.66199147       0.00067317       0.00047827       0.00000165
Cl       4.87220808       1.26889632       4.88507003       0.00033589      -0.00047657      -0.00057983
Cl       2.82039648       4.17059590       8.43891180      -0.00033699       0.00047648       0.00058579
Cl       2.82039565       4.17059547       4.88506991      -0.00033696       0.00047731      -0.00058153
Cl       4.87220831       1.26889668       8.43891140       0.00033936      -0.00048137       0.00059208
