9
Lattice="6.0728569772111545 3.342173758819506e-07 3.5061658823476267 2.024285885475518 5.7255445221065395 3.506166035977051 -2.2998693444245055e-08 1.7189439436821445e-07 7.012331804530154" Properties=species:S:1:pos:R:3:forces:R:3 energy=-22.607515335083008 free_energy=-22.607515335083008 stress="0.00014319542970042676 -1.891949885646227e-08 1.1471306127219805e-09 -1.891949885646227e-08 0.00014324125368148088 -7.346571351263265e-09 1.1471306127219805e-09 -7.346571351263265e-09 0.00014314340660348535" pbc="T T T"
Pd       2.02428568       1.43138843       3.50616594      -0.00000073       0.00000686       0.00000014
Pd       6.07285391       4.29415757      10.51849790      -0.00001046      -0.00000467      -0.00000079
P        0.00000055      -0.00000021      -0.00000015       0.00000168       0.00000031      -0.00000019
Br       1.95939470       1.38550158       7.01233189       0.00001007       0.00000641      -0.00000021
Br       6.13774850       4.34004277       7.01233177      -0.00000578      -0.00000636       0.00000064
Br       5.09315979       1.38550211       5.20305147      -0.00000452       0.00000648       0.00000539
Br       3.00398402       4.34004284       8.82161268       0.00000718      -0.00000753      -0.00000566
Br       3.00398421       4.34004332       5.20305122       0.00000700      -0.00000790       0.00000635
Br       5.09315997       1.38550171       8.82161221      -0.00000440       0.00000648      -0.00000602
