9
Lattice="5.049572748403426 -2.1369316498990344e-08 2.915371857360592 1.6831909066085045 4.760782907974681 2.915371838964146 -4.298397366082506e-08 -5.2925219366736414e-08 5.830743789171623" Properties=species:S:1:pos:R:3:forces:R:3 energy=-40.559181213378906 free_energy=-40.559181213378906 stress="0.0003497593861538917 -8.440213150606724e-08 -6.045672407140046e-09 -8.440213150606724e-08 0.00034965030499733984 4.90387463969455e-08 -6.045672407140046e-09 4.90387463969455e-08 0.0003497188736218959" pbc="T T T"
Pd       1.68319031       1.19019438       2.91537179      -0.00000041      -0.00000235      -0.00000014
Pd       5.04957306       3.57058762       8.74611510       0.00000049       0.00000108      -0.00000089
P        0.00000013       0.00000017       0.00000012      -0.00000475       0.00000018       0.00000123
F        1.35661280       0.95927032       5.83074379       0.00447989       0.00317031      -0.00000060
F        5.37615106       3.80151310       5.83074369      -0.00448215      -0.00317413       0.00000174
F        4.37126595       0.95927027       4.09023342      -0.00223497       0.00316709       0.00387818
F        2.36149749       3.80151265       7.57125447       0.00223935      -0.00316501      -0.00387591
F        2.36149769       3.80151288       4.09023326       0.00223815      -0.00316668       0.00387669
F        4.37126592       0.95927008       7.57125470      -0.00223514       0.00316912      -0.00387979
