9
Lattice="6.469302888351695 -3.1624950729254324e-08 3.73505381358493 2.156434284824201 6.0993171858621125 3.7350537815017555 1.3318022161197779e-08 -2.987644153420614e-08 7.470107604102363" Properties=species:S:1:pos:R:3:forces:R:3 energy=-24.527057647705078 free_energy=-24.527057647705078 stress="-0.00015740627713967115 4.7306025763305115e-09 1.7210011193924402e-09 4.7306025763305115e-09 -0.0001574165071360767 -8.986388522203015e-09 1.7210011193924402e-09 -8.986388522203015e-09 -0.00015743101539555937" pbc="T T T"
Pd       2.15643404       1.52482929       3.73505358      -0.00000043      -0.00000011      -0.00000063
Pd       6.46930280       4.57448774      11.20516127      -0.00000043       0.00000005      -0.00000062
Ru       0.00000002       0.00000017       0.00000008       0.00000002      -0.00000059       0.00000229
I        2.17409846       1.53731975       7.47010754      -0.00268779      -0.00190046       0.00000013
I        6.45163883       4.56199738       7.47010764       0.00268845       0.00190045       0.00000038
I        5.38225376       1.53731973       5.61787823       0.00134400      -0.00190057      -0.00232704
I        3.24348351       4.56199745       9.32233707      -0.00134323       0.00189970       0.00232676
I        3.24348371       4.56199736       5.61787834      -0.00134416       0.00190102      -0.00232828
I        5.38225363       1.53731965       9.32233706       0.00134353      -0.00189946       0.00232695
