9
Lattice="4.775878635733088 2.0122955154723564e-08 2.757354836591991 1.5919595931567405 4.502741714763774 2.7573547864659855 1.2170729679036386e-07 2.4668475167130902e-08 5.514709462380783" Properties=species:S:1:pos:R:3:forces:R:3 energy=-37.194053649902344 free_energy=-37.194053649902344 stress="-0.0003982619964517653 -4.42793712807088e-08 -5.67549118812849e-09 -4.42793712807088e-08 -0.0003982126072514802 -5.611753728373969e-09 -5.67549118812849e-09 -5.611753728373969e-09 -0.0003982301859650761" pbc="T T T"
Pd       1.59196018       1.12568600       2.75735426       0.00000269       0.00000380      -0.00000280
Pd       4.77587824       3.37705710       8.27206450      -0.00000196       0.00000386       0.00000032
Rh       0.00000019       0.00000003      -0.00000002      -0.00000256      -0.00000078       0.00000011
F        1.59786412       1.12985992       5.51470964      -0.00065937      -0.00046759       0.00000132
F        4.76997453       3.37288127       5.51470942       0.00065931       0.00046619       0.00000032
F        3.97694666       1.12986023       4.14114558       0.00033156      -0.00046986      -0.00057451
F        2.39089154       3.37288106       6.88827386      -0.00033050       0.00046651       0.00057391
F        2.39089156       3.37288109       4.14114526      -0.00032930       0.00046707      -0.00057325
F        3.97694646       1.12986031       6.88827366       0.00033017      -0.00046920       0.00057469
