9
Lattice="5.827233089903318 -5.576484000417482e-08 3.364354784609511 1.9424109667284035 5.493967904417484 3.364354803079714 -1.4423009567725955e-08 1.242268965274246e-08 6.728709594200453" Properties=species:S:1:pos:R:3:forces:R:3 energy=-29.473628997802734 free_energy=-29.473628997802734 stress="0.00014929308963473886 1.6380603540255834e-08 8.42010283719219e-09 1.6380603540255834e-08 0.00014924460265319794 5.824253968000903e-09 8.42010283719219e-09 5.824253968000903e-09 0.00014919547538738698" pbc="T T T"
Pd       1.94241031       1.37349107       3.36435492      -0.00000148      -0.00000422      -0.00000031
Pd       5.82723314       4.12047512      10.09306385       0.00000049      -0.00000103      -0.00000170
Ru       0.00000001      -0.00000016      -0.00000018      -0.00000110       0.00000191       0.00000084
Cl       1.90162868       1.34465405       6.72870951      -0.00137931      -0.00097603       0.00000224
Cl       5.86801594       4.14931388       6.72870964       0.00137624       0.00097424      -0.00000059
Cl       4.87641930       1.34465458       5.01121326       0.00069007      -0.00097212      -0.00119323
Cl       2.89322462       4.14931441       8.44620631      -0.00068791       0.00097433       0.00118837
Cl       2.89322437       4.14931396       5.01121326      -0.00068863       0.00097266      -0.00118887
Cl       4.87641975       1.34465454       8.44620605       0.00069195      -0.00096995       0.00119311
