9
Lattice="4.944786184388373 -1.2254775390245288e-07 2.8548739106279 1.648261984106247 4.661989307857785 2.854873844493717 -1.0770203346491927e-07 -1.571543566558683e-07 5.709748007801169" Properties=species:S:1:pos:R:3:forces:R:3 energy=-39.58194351196289 free_energy=-39.58194351196289 stress="6.373468204401433e-05 8.785452365600577e-09 1.5458788027444825e-08 8.785452365600577e-09 6.373818905558437e-05 -4.0668304279734e-08 1.5458788027444825e-08 -4.0668304279734e-08 6.371297786245123e-05" pbc="T T T"
Pd       1.64826132       1.16549732       2.85487437      -0.00000321       0.00000050       0.00000140
Pd       4.94478616       3.49649164       8.56462242      -0.00000000      -0.00000092       0.00000299
Ru       0.00000003      -0.00000015      -0.00000027      -0.00000210       0.00000583       0.00000307
F        1.58895777       1.12356301       5.70974796       0.00160307       0.00113379      -0.00000109
F        5.00409032       3.53842575       5.70974775      -0.00160232      -0.00113365      -0.00000248
F        4.15030743       1.12356285       4.23095182      -0.00080122       0.00113422       0.00138840
F        2.44274083       3.53842656       7.18854391       0.00080285      -0.00113607      -0.00139327
F        2.44274123       3.53842609       4.23095134       0.00080329      -0.00113486       0.00138852
F        4.15030735       1.12356308       7.18854354      -0.00080031       0.00113118      -0.00138752
