9
Lattice="6.145519093534387 -4.925607640537838e-09 3.5481173320259134 2.0485063691268306 5.794051063411847 3.5481173159883617 8.512958669733477e-08 4.055383215364828e-08 7.096234516603142" Properties=species:S:1:pos:R:3:forces:R:3 energy=-26.803884506225586 free_energy=-26.803884506225586 stress="0.00013812909310217947 -2.1110219350362058e-08 7.297825455054863e-09 -2.1110219350362058e-08 0.00013816078717354685 -8.095761394599776e-09 7.297825455054863e-09 -8.095761394599776e-09 0.0001381715846946463" pbc="T T T"
Pd       2.04850619       1.44851227       3.54811723      -0.00000077      -0.00000153      -0.00000065
Pd       6.14551861       4.34553828      10.64435141      -0.00000183      -0.00000055      -0.00000217
Ru       0.00000010      -0.00000018       0.00000013      -0.00000024       0.00000273      -0.00000064
Br       2.02251014       1.43013049       7.09623461      -0.00107746      -0.00076086       0.00000004
Br       6.17151555       4.36392074       7.09623467       0.00107653       0.00076220       0.00000116
Br       5.13426394       1.43013082       5.29966268       0.00053996      -0.00076387      -0.00093548
Br       3.05976174       4.36392051       8.89280660      -0.00053821       0.00076297       0.00093345
Br       3.05976182       4.36392047       5.29966283      -0.00053996       0.00076401      -0.00093350
Br       5.13426411       1.43013101       8.89280652       0.00054199      -0.00076509       0.00093779
