9
Lattice="5.7798743808709325 1.440693677931932e-07 3.3370122055215456 1.9266249985731194 5.449317840552795 3.3370120858028844 1.851816329960904e-07 -1.5681605705354306e-08 6.67402409029909" Properties=species:S:1:pos:R:3:forces:R:3 energy=-27.752365112304688 free_energy=-27.752365112304688 stress="0.00011513731442391872 -2.6370738481773515e-08 3.266585579808634e-08 -2.6370738481773515e-08 0.00011518824612721801 -1.286492157248631e-08 3.266585579808634e-08 -1.286492157248631e-08 0.00011515084042912349" pbc="T T T"
Pd       1.92662376       1.36233013       3.33701149      -0.00000576       0.00000255      -0.00000337
Pd       5.77987385       4.08698810      10.01103655      -0.00000430      -0.00000184       0.00000212
Rh       0.00000018      -0.00000017      -0.00000037       0.00000035       0.00000131       0.00000369
Cl       1.89618084       1.34080188       6.67402461      -0.00053105      -0.00037715       0.00000099
Cl       5.81031911       4.10851599       6.67402385       0.00053185       0.00037581      -0.00000210
Cl       4.83178459       1.34080221       4.97915257       0.00026976      -0.00037560      -0.00046197
Cl       2.87471527       4.10851526       8.36889644      -0.00026464       0.00037324       0.00046188
Cl       2.87471558       4.10851615       4.97915252      -0.00026581       0.00037737      -0.00046209
Cl       4.83178517       1.34080237       8.36889591       0.00026964      -0.00037560       0.00046089
