9
Lattice="6.441506400362982 1.008612955645249e-07 3.719005432823606 2.1471688603594363 6.073110488695663 3.719005493193377 -1.4270621070471868e-08 6.384675072924477e-08 7.438010890364637" Properties=species:S:1:pos:R:3:forces:R:3 energy=-23.719459533691406 free_energy=-23.719459533691406 stress="-5.64070105610881e-05 1.8512970711981325e-08 -1.4503322987025058e-08 1.8512970711981325e-08 -5.6413533457089216e-05 1.898581025727708e-08 -1.4503322987025058e-08 1.898581025727708e-08 -5.643412805511616e-05" pbc="T T T"
Pd       2.14716877       1.51827764       3.71900558       0.00000011      -0.00000013       0.00000027
Pd       6.44150657       4.55483307      11.15701650      -0.00000009      -0.00000063       0.00000137
Rh       0.00000006      -0.00000027       0.00000005      -0.00000025       0.00000051      -0.00000211
I        2.16303552       1.52949722       7.43801078      -0.00033684      -0.00023841      -0.00000046
I        6.42563983       4.54361344       7.43801090       0.00033672       0.00023829      -0.00000015
I        5.35998858       1.52949707       5.59224901       0.00016817      -0.00023700      -0.00029109
I        3.22868637       4.54361366       9.28377280      -0.00016847       0.00023832       0.00029113
I        3.22868664       4.54361370       5.59224905      -0.00016659       0.00023559      -0.00028876
I        5.35998865       1.52949707       9.28377260       0.00016725      -0.00023655       0.00028975
