9
Lattice="6.085234329618357 7.419599639465553e-08 3.513311617273998 2.0284114868441576 5.737213884919151 3.513311662852228 -1.7877429414182845e-08 4.318044423988651e-08 7.026623265512609" Properties=species:S:1:pos:R:3:forces:R:3 energy=-25.437400817871094 free_energy=-25.437400817871094 stress="9.017611591843888e-05 -2.4310906621138884e-09 1.0026560026688003e-08 -2.4310906621138884e-09 9.01901294128038e-05 -6.931067719762041e-09 1.0026560026688003e-08 -6.931067719762041e-09 9.017818956635892e-05" pbc="T T T"
Pd       2.02841189       1.43430352       3.51331146       0.00000202       0.00000053      -0.00000079
Pd       6.08523456       4.30291050      10.53993513       0.00000129      -0.00000086       0.00000048
Rh       0.00000019       0.00000013      -0.00000026      -0.00000059      -0.00000288       0.00000187
Br       2.01154407       1.42237687       7.02662331      -0.00091126      -0.00064400       0.00000060
Br       6.10210131       4.31483731       7.02662322       0.00091217       0.00064501       0.00000003
Br       5.07946213       1.42237651       5.25535972       0.00045552      -0.00064446      -0.00078949
Br       3.03418340       4.31483742       8.79788662      -0.00045597       0.00064376       0.00079015
Br       3.03418348       4.31483765       5.25536000      -0.00045739       0.00064709      -0.00079154
Br       5.07946214       1.42237611       8.79788699       0.00045418      -0.00064413       0.00078870
