9
Lattice="6.244133184533789 1.2353787755909307e-08 3.605051983611201 2.0813777387944827 5.887025224619251 3.6050519853962784 2.8985164956413303e-09 4.2359377332228075e-09 7.210103962201849" Properties=species:S:1:pos:R:3:forces:R:3 energy=-22.779884338378906 free_energy=-22.779884338378906 stress="0.00013724372547585517 9.54263690289281e-09 8.420582453538827e-09 9.54263690289281e-09 0.00013725575990974903 -6.122094498017816e-10 8.420582453538827e-09 -6.122094498017816e-10 0.00013724915334023535" pbc="T T T"
Pd       2.08137790       1.47175641       3.60505203       0.00000041       0.00000020      -0.00000045
Pd       6.24413339       4.41526905      10.81515601       0.00000092      -0.00000034       0.00000022
Sb       0.00000015       0.00000015      -0.00000006      -0.00000184       0.00000052      -0.00000100
Br       2.08524801       1.47449289       7.21010395       0.00039884       0.00028185      -0.00000041
Br       6.24026278       4.41253229       7.21010396      -0.00039888      -0.00028138       0.00000030
Br       5.20150927       1.47449290       5.41092966      -0.00019997       0.00028226       0.00034584
Br       3.12400161       4.41253215       9.00927817       0.00019966      -0.00028230      -0.00034590
Br       3.12400154       4.41253209       5.41092964       0.00020009      -0.00028281       0.00034626
Br       5.20150907       1.47449303       9.00927836      -0.00019919       0.00028197      -0.00034479
