9
Lattice="5.920445580304955 3.2244935209839936e-08 3.418170848131086 1.9734818681176074 5.581849381525403 3.4181708869028493 1.3903986477137847e-08 5.731712496706021e-08 6.836341672179786" Properties=species:S:1:pos:R:3:forces:R:3 energy=-26.214717864990234 free_energy=-26.214717864990234 stress="0.0002881116233766079 -2.87493140405104e-09 1.6330039542822306e-08 -2.87493140405104e-09 0.0002881150576286018 -1.9949109031358603e-08 1.6330039542822306e-08 -1.9949109031358603e-08 0.00028814529650844634" pbc="T T T"
Pd       1.97348281       1.39546249       3.41817110       0.00000190      -0.00000023       0.00000149
Pd       5.92044454       4.18638689      10.25451133      -0.00000322      -0.00000069      -0.00000404
Sb      -0.00000013      -0.00000000       0.00000034      -0.00000202      -0.00000423      -0.00000861
Cl       1.96197844       1.38732833       6.83634162      -0.00099815      -0.00070564      -0.00000067
Cl       5.93194863       4.19452114       6.83634198       0.00100221       0.00070949       0.00000069
Cl       4.93945634       1.38732814       5.11729450       0.00049656      -0.00070459      -0.00086496
Cl       2.95447175       4.19452107       8.55538937      -0.00050101       0.00071008       0.00087032
Cl       2.95447137       4.19452117       5.11729445      -0.00049919       0.00070602      -0.00086629
Cl       4.93945609       1.38732867       8.55538891       0.00050299      -0.00071021       0.00087212
