9
Lattice="5.892871986409478 4.401670847673408e-08 3.402251366876685 1.9642906664302853 5.555853187100756 3.402251431318537 -1.8566134447123187e-07 -5.235749602826302e-08 6.804503055328116" Properties=species:S:1:pos:R:3:forces:R:3 energy=-37.20695495605469 free_energy=-37.20695495605469 stress="0.00014885026030242443 -4.58201796504909e-08 2.683303579331664e-10 -4.58201796504909e-08 0.00014889638987369835 2.279135458138626e-08 2.683303579331664e-10 2.279135458138626e-08 0.0001489384740125388" pbc="T T T"
Pd       1.96429070       1.38896417       3.40225068      -0.00000056       0.00000318      -0.00000261
Pd       5.89287090       4.16688916      10.20675408      -0.00000122      -0.00000310      -0.00000166
Ta       0.00000018      -0.00000025       0.00000027       0.00000442      -0.00000116      -0.00000548
Cl       1.93566481       1.36872198       6.80450309      -0.00129398      -0.00091574      -0.00000002
Cl       5.92149772       4.18713122       6.80450325       0.00129306       0.00091295       0.00000089
Cl       4.92503971       1.36872219       5.07858710       0.00064830      -0.00091540      -0.00112135
Cl       2.93212310       4.18713113       8.53041885      -0.00065075       0.00091974       0.00112987
Cl       2.93212353       4.18713077       5.07858720      -0.00064743       0.00091567      -0.00112358
Cl       4.92503919       1.36872234       8.53041895       0.00064814      -0.00091612       0.00112392
