9
Lattice="6.716603307992873 2.475169743699398e-07 3.8778326087830575 2.2388679503018007 6.3324743744450815 3.8778326995259076 -8.3760928196078e-08 5.190891846355219e-08 7.755665362644285" Properties=species:S:1:pos:R:3:forces:R:3 energy=-29.2216796875 free_energy=-29.2216796875 stress="6.424743332900107e-05 3.072513976576374e-08 -1.5855764701200314e-08 3.072513976576374e-08 6.421838770620525e-05 1.096795809729656e-08 -1.5855764701200314e-08 1.096795809729656e-08 6.419078272301704e-05" pbc="T T T"
Pd       2.23886768       1.58311854       3.87783270      -0.00000032      -0.00000042       0.00000036
Pd       6.71660328       4.74935591      11.63349781      -0.00000016      -0.00000048       0.00000006
Ta      -0.00000012       0.00000011      -0.00000032       0.00000342      -0.00000002       0.00000203
I        2.23933024       1.58344574       7.75566544      -0.00084498      -0.00059772       0.00000002
I        6.71614102       4.74902896       7.75566558       0.00084285       0.00059571      -0.00000025
I        5.59693852       1.58344534       5.81714888       0.00042078      -0.00059428      -0.00072800
I        3.35853250       4.74902941       9.69418170      -0.00042048       0.00059459       0.00072850
I        3.35853269       4.74902947       5.81714892      -0.00041988       0.00059457      -0.00072797
I        5.59693886       1.58344523       9.69418200       0.00041879      -0.00059190       0.00072538
