9
Lattice="6.229498716395307 1.0397176737586123e-08 3.596602812517332 2.0764995806086266 5.8732277886029625 3.5966028148134703 -3.0092265639591466e-08 -1.8466185872798026e-08 7.193205677155924" Properties=species:S:1:pos:R:3:forces:R:3 energy=-33.11956024169922 free_energy=-33.11956024169922 stress="8.463389531243593e-05 -8.120922601051461e-09 9.653579269297552e-09 -8.120922601051461e-09 8.464921120321378e-05 -1.8315001071300685e-08 9.653579269297552e-09 -1.8315001071300685e-08 8.465380233246833e-05" pbc="T T T"
Pd       2.07649954       1.46830729       3.59660304      -0.00000068       0.00000105       0.00000165
Pd       6.22949874       4.40492108      10.78980881      -0.00000002       0.00000118       0.00000132
Ta      -0.00000021      -0.00000021      -0.00000039       0.00000114       0.00000605       0.00000205
Br       2.05748546       1.45486153       7.19320564      -0.00067738      -0.00047880      -0.00000092
Br       6.24851320       4.41836618       7.19320560       0.00067255       0.00047617      -0.00000095
Br       5.20075612       1.45486177       5.37843753       0.00033868      -0.00047892      -0.00058820
Br       3.10524201       4.41836593       9.00797421      -0.00033659       0.00047578       0.00058205
Br       3.10524206       4.41836591       5.37843713      -0.00033749       0.00047724      -0.00058459
Br       5.20075607       1.45486164       9.00797360       0.00033975      -0.00047965       0.00058750
