9
Lattice="6.577255984755607 9.374368534341335e-08 3.797380439019795 2.1924187272126465 6.201096556152309 3.7973804784325313 -6.17331112773175e-08 4.618602342182004e-09 7.594760984964553" Properties=species:S:1:pos:R:3:forces:R:3 energy=-19.094772338867188 free_energy=-19.094772338867188 stress="0.00011475952487671748 7.63634044886885e-09 -5.163145910813682e-09 7.63634044886885e-09 0.0001147593793575652 7.848456995418474e-09 -5.163145910813682e-09 7.848456995418474e-09 0.00011475337669253349" pbc="T T T"
Pt       2.19241881       1.55027441       3.79738049       0.00000100       0.00000069      -0.00000018
Pt       6.57725633       4.65082252      11.39214146       0.00000083       0.00000044      -0.00000001
As      -0.00000041       0.00000010       0.00000006       0.00000244       0.00000033       0.00000045
I        2.28813000       1.61795249       7.59476094      -0.00667129      -0.00471739       0.00000004
I        6.48154522       4.58314451       7.59476094       0.00666827       0.00471494      -0.00000020
I        5.43319092       1.61795200       5.77895876       0.00333475      -0.00471596      -0.00577517
I        3.33648344       4.58314427       9.41056295      -0.00333531       0.00471634       0.00577617
I        3.33648342       4.58314436       5.77895885      -0.00333460       0.00471567      -0.00577600
I        5.43319088       1.61795198       9.41056311       0.00333393      -0.00471509       0.00577490
