9
Lattice="6.075580699507754 2.6099430814106187e-07 3.507738271022494 2.0251937899737653 5.7281123573249015 3.5077383101609936 -6.536634732371076e-08 1.713668734530975e-09 7.015476655262825" Properties=species:S:1:pos:R:3:forces:R:3 energy=-21.01739501953125 free_energy=-21.01739501953125 stress="6.937657599337399e-05 -1.2852640729477116e-08 -9.017715463244258e-09 -1.2852640729477116e-08 6.939610466361046e-05 -8.423324260320442e-09 -9.017715463244258e-09 -8.423324260320442e-09 6.936766294529662e-05" pbc="T T T"
Pt       2.02519387       1.43202852       3.50773747       0.00000126       0.00000090      -0.00000386
Pt       6.07558045       4.29608367      10.52321349      -0.00000057      -0.00000366      -0.00000696
As      -0.00000010       0.00000006       0.00000048      -0.00000059      -0.00000017      -0.00000158
Br       2.07096489       1.46439304       7.01547691      -0.00087857      -0.00062028       0.00000097
Br       6.02980950       4.26371961       7.01547697       0.00087887       0.00062180       0.00000213
Br       5.04009823       1.46439376       5.30124725       0.00043944      -0.00062053      -0.00076011
Br       3.06067614       4.26371845       8.72970657      -0.00044017       0.00062111       0.00076365
Br       3.06067644       4.26371890       5.30124698      -0.00043971       0.00062142      -0.00076003
Br       5.04009816       1.46439449       8.72970685       0.00044008      -0.00062057       0.00076582
