9
Lattice="5.000127303437416 -1.0971055451805e-07 2.886824865987906 1.6667089960541357 4.714165371263385 2.8868248688554212 4.400633640864689e-09 6.6237020408131795e-09 5.773649724353672" Properties=species:S:1:pos:R:3:forces:R:3 energy=-34.01823806762695 free_energy=-34.01823806762695 stress="0.0003333800414111465 -1.9928194205931504e-08 -1.657177328695525e-08 -1.9928194205931504e-08 0.0003333584463689476 -1.8537610557700646e-08 -1.657177328695525e-08 -1.8537610557700646e-08 0.0003333748900331557" pbc="T T T"
Pt       1.66670869       1.17854131       2.88682536      -0.00000171      -0.00000150       0.00000310
Pt       5.00012698       3.53562394       8.66047468      -0.00000414       0.00000073       0.00000355
As      -0.00000003       0.00000010       0.00000002      -0.00000205      -0.00000001       0.00000279
S        1.82415353       1.28987120       5.77364965       0.00290950       0.00205900      -0.00000139
S        4.84268289       3.42429403       5.77364975      -0.00290820      -0.00205697      -0.00000130
S        4.08805056       1.28987155       4.46658809      -0.00145290       0.00205916       0.00251520
S        2.57878667       3.42429408       7.08071123       0.00146254      -0.00205268      -0.00251897
S        2.57878588       3.42429369       4.46658816       0.00145506      -0.00205944       0.00251688
S        4.08805012       1.28987112       7.08071088      -0.00145791       0.00205163      -0.00251968
