9
Lattice="5.5451108732195635 2.5634103023270452e-09 3.2014709816132334 1.8483702550993752 5.227980671706695 3.2014710481077304 -9.55716380517962e-08 1.385946885814476e-08 6.402942128761384" Properties=species:S:1:pos:R:3:forces:R:3 energy=-24.456897735595703 free_energy=-24.456897735595703 stress="-4.383637133287266e-05 5.515949474954596e-09 -3.3051858139288015e-08 5.515949474954596e-09 -4.379406527732499e-05 1.990667009010849e-08 -3.3051858139288015e-08 1.990667009010849e-08 -4.381182588986121e-05" pbc="T T T"
Pt       1.84837050       1.30699416       3.20147108      -0.00000015      -0.00000251       0.00000289
Pt       5.54511135       3.92098586       9.60441401       0.00000040       0.00000044       0.00000169
As      -0.00000033      -0.00000026      -0.00000028       0.00000369       0.00000672       0.00000422
Cl       1.87919270       1.32879018       6.40294187      -0.00469482      -0.00331961      -0.00000158
Cl       5.51428860       3.89919142       6.40294206       0.00468478       0.00331587      -0.00000108
Cl       4.60551467       1.32879031       4.82890002       0.00234897      -0.00331847      -0.00406511
Cl       2.78796611       3.89919067       7.97698424      -0.00234434       0.00331540       0.00405860
Cl       2.78796641       3.89919055       4.82889955      -0.00234278       0.00331682      -0.00406142
Cl       4.60551414       1.32878990       7.97698401       0.00234404      -0.00331472       0.00406212
