9
Lattice="5.468292353818953 -2.083736168623503e-08 3.157120143340189 1.8227641079896542 5.155555701611125 3.1571201265468316 -5.846622003145004e-08 -6.190944983320753e-08 6.314240387946847" Properties=species:S:1:pos:R:3:forces:R:3 energy=-34.72956466674805 free_energy=-34.72956466674805 stress="-0.00020959842368029058 -8.66095462015437e-09 2.171866420042079e-08 -8.66095462015437e-09 -0.0002096454263664782 2.1278630413235078e-08 2.171866420042079e-08 2.1278630413235078e-08 -0.00020959661924280226" pbc="T T T"
Pt       1.82276398       1.28888900       3.15712025      -0.00000082       0.00000075      -0.00000091
Pt       5.46829298       3.86666590       9.47135972       0.00000203      -0.00000237      -0.00000283
As      -0.00000008       0.00000002       0.00000003      -0.00000025       0.00000103      -0.00000274
Se       2.11177554       1.49325122       6.31424069      -0.00353920      -0.00250134      -0.00000098
Se       5.17928055       3.66230485       6.31424077       0.00353694       0.00250167       0.00000059
Se       4.41240450       1.49325109       4.98597146       0.00176899      -0.00249973      -0.00306305
Se       2.87865188       3.66230462       7.64250916      -0.00177136       0.00250342       0.00306523
Se       2.87865152       3.66230470       4.98597164      -0.00176841       0.00250050      -0.00306275
Se       4.41240462       1.49325108       7.64250893       0.00177203      -0.00250393       0.00306720
