9
Lattice="4.88230427827789 1.2917333838925458e-08 2.8187996266939552 1.6274347290176934 4.603080554069368 2.8187997004565215 -6.505047243686793e-08 4.434269723619704e-08 5.63759936605864" Properties=species:S:1:pos:R:3:forces:R:3 energy=-33.76908493041992 free_energy=-33.76908493041992 stress="0.0002282990317326039 6.06242522849243e-08 4.08187794675996e-09 6.06242522849243e-08 0.0002284251240780577 1.2596955478727523e-08 4.08187794675996e-09 1.2596955478727523e-08 0.00022837841243017465" pbc="T T T"
Pt       1.62743500       1.15076936       2.81879908       0.00000191      -0.00000329      -0.00000281
Pt       4.88230325       3.45231066       8.45639808      -0.00000549       0.00000128      -0.00000414
Bi       0.00000007       0.00000013      -0.00000016       0.00000214      -0.00001021      -0.00001363
F        1.71089685       1.20978693       5.63759991      -0.00515328      -0.00364469       0.00000074
F        4.79884185       3.39329392       5.63759966       0.00515656       0.00364710       0.00000192
F        4.02685584       1.20978641       4.30048000       0.00257251      -0.00363958      -0.00445595
F        2.48288397       3.39329363       6.97471893      -0.00257710       0.00364937       0.00446975
F        2.48288338       3.39329429       4.30048013      -0.00257479       0.00364408      -0.00446092
F        4.02685564       1.20978718       6.97471916       0.00257757      -0.00364397       0.00446500
