9
Lattice="5.818279537206624 5.300015686654302e-08 3.3591852834964926 1.9394265664749468 5.4855267245809625 3.3591852763885988 -2.7670534140597643e-08 -2.8271380692851e-08 6.718370614919762" Properties=species:S:1:pos:R:3:forces:R:3 energy=-23.101587295532227 free_energy=-23.101587295532227 stress="0.0003927953657694161 -1.3511316510061988e-08 -1.1393950671845232e-08 -1.3511316510061988e-08 0.0003926930658053607 1.883319100670633e-08 -1.1393950671845232e-08 1.883319100670633e-08 0.0003926987119484693" pbc="T T T"
Pt       1.93942615       1.37138208       3.35918596      -0.00000192       0.00000075       0.00000144
Pt       5.81827920       4.11414504      10.07755659      -0.00000009       0.00000198       0.00000029
Bi       0.00000005      -0.00000018      -0.00000064      -0.00000078       0.00000186       0.00000960
Cl       2.03861615       1.44151914       6.71837049      -0.00487114      -0.00344462       0.00000023
Cl       5.71909018       4.04400741       6.71837052       0.00487094       0.00344272       0.00000024
Cl       4.79897168       1.44151959       5.12467848       0.00243841      -0.00344591      -0.00422261
Cl       2.95873454       4.04400761       8.31206237      -0.00243301       0.00344144       0.00421561
Cl       2.95873470       4.04400735       5.12467850      -0.00243535       0.00344373      -0.00421914
Cl       4.79897164       1.44151893       8.31206238       0.00243298      -0.00344194       0.00421436
