9
Lattice="6.815792450463413 -2.508204380999224e-08 3.9350996532709703 2.271930758416757 6.425990797978928 3.935099713471443 -2.373828671333542e-08 5.694471441529036e-08 7.870199347657846" Properties=species:S:1:pos:R:3:forces:R:3 energy=-18.295419692993164 free_energy=-18.295419692993164 stress="0.00017829953867476434 -1.0737442046604428e-08 1.8437171789287277e-09 -1.0737442046604428e-08 0.00017830867727752775 -2.058955228534387e-09 1.8437171789287277e-09 -2.058955228534387e-09 0.00017831668083090335" pbc="T T T"
Pt       2.27193092       1.60649781       3.93509930       0.00000016       0.00000022      -0.00000054
Pt       6.81579224       4.81949281      11.80529926      -0.00000082      -0.00000052      -0.00000008
Bi       0.00000002       0.00000024       0.00000012       0.00000061       0.00000038       0.00000164
I        2.46968320       1.74632979       7.87019938      -0.00622611      -0.00440224       0.00000041
I        6.61803987       4.67966093       7.87019924       0.00622609       0.00440203      -0.00000024
I        5.58095079       1.74633002       6.07390837       0.00311355      -0.00440323      -0.00539321
I        3.50677260       4.67966083       9.66649027      -0.00311333       0.00440267       0.00539228
I        3.50677256       4.67966090       6.07390838      -0.00311361       0.00440356      -0.00539307
I        5.58095055       1.74633000       9.66649057       0.00311349      -0.00440285       0.00539275
