9
Lattice="6.276098321788585 1.2015416327721147e-09 3.623507078063903 2.0920328141964224 5.91716205159314 3.623507010281696 5.278151926021258e-09 -7.928365964001347e-08 7.247014146985815" Properties=species:S:1:pos:R:3:forces:R:3 energy=-20.22896957397461 free_energy=-20.22896957397461 stress="0.00018685402756091207 -5.676094261275466e-09 -1.3349794603101373e-09 -5.676094261275466e-09 0.0001868387480499223 -1.4933527747729158e-09 -1.3349794603101373e-09 -1.4933527747729158e-09 0.00018686277326196432" pbc="T T T"
Pt       2.09203312       1.47929045       3.62350709       0.00000105      -0.00000085       0.00000009
Pt       6.27609821       4.43787096      10.87052099      -0.00000020      -0.00000168      -0.00000156
Bi      -0.00000010       0.00000023      -0.00000032       0.00000023      -0.00000506       0.00000421
Br       2.22053382       1.57015456       7.24701404      -0.00273475      -0.00193413       0.00000050
Br       6.14759693       4.34700754       7.24701398       0.00273741       0.00193469       0.00000093
Br       5.16583124       1.57015493       5.54654565       0.00136823      -0.00193469      -0.00236943
Br       3.20229998       4.34700733       8.94748240      -0.00136816       0.00193505       0.00237183
Br       3.20229985       4.34700742       5.54654649      -0.00137062       0.00193822      -0.00237308
Br       5.16583150       1.57015448       8.94748260       0.00136677      -0.00193160       0.00236655
