9
Lattice="5.933639833731871 -3.639376675077388e-07 3.425788551955467 1.977879470318223 5.594289246265176 3.4257887790885024 -3.5318195758711014e-07 2.844268880455721e-08 6.851577715640022" Properties=species:S:1:pos:R:3:forces:R:3 energy=-21.74720573425293 free_energy=-21.74720573425293 stress="2.5456198272877373e-05 -2.255345954438326e-08 -2.1697463381542548e-08 -2.255345954438326e-08 2.5458548407186754e-05 -6.707548294571097e-08 -2.1697463381542548e-08 -6.707548294571097e-08 2.5392821044079028e-05" pbc="T T T"
Pt       1.97788003       1.39857198       3.42578933      -0.00000025       0.00000197       0.00000407
Pt       5.93363893       4.19571612      10.27736494      -0.00000329      -0.00000099      -0.00000438
B       -0.00000039      -0.00000076       0.00000013      -0.00000220      -0.00000344      -0.00000109
Br       1.85022543       1.30830746       6.85157759      -0.00040890      -0.00029010       0.00000113
Br       6.06129386       4.28598153       6.85157750       0.00041077       0.00029092       0.00000257
Br       5.00852657       1.30830750       5.02813135       0.00020617      -0.00029151      -0.00035653
Br       2.90299217       4.28598220       8.67502411      -0.00020196       0.00028921       0.00035214
Br       2.90299251       4.28598211       5.02813154      -0.00020599       0.00029176      -0.00035556
Br       5.00852663       1.30830754       8.67502379       0.00020532      -0.00028799       0.00035717
