9
Lattice="5.464950226496096 1.6901050884068565e-07 3.155190667738963 1.8216501885826726 5.152404649383309 3.1551907478647863 4.389999707541791e-08 1.2917564765527446e-07 6.310381259440954" Properties=species:S:1:pos:R:3:forces:R:3 energy=-25.10519790649414 free_energy=-25.10519790649414 stress="-0.00021602434571832418 -2.626812545258872e-09 2.957498068667519e-08 -2.626812545258872e-09 -0.00021589551761280745 2.0923820898133272e-08 2.957498068667519e-08 2.0923820898133272e-08 -0.0002159353025490418" pbc="T T T"
Pt       1.82165029       1.28810129       3.15519044      -0.00000122       0.00000086      -0.00000077
Pt       5.46495018       3.86430304       9.46557148       0.00000074      -0.00000359       0.00000244
B        0.00000174       0.00000026       0.00000006       0.00001582       0.00000285      -0.00000205
Cl       1.68273366       1.18987310       6.31038148       0.00786230       0.00555936      -0.00000098
Cl       5.60386611       3.96253160       6.31038109      -0.00787529      -0.00556466       0.00000350
Cl       4.62358309       1.18987375       4.61248162      -0.00393507       0.00556183       0.00681400
Cl       2.66301686       3.96253200       8.00828174       0.00393686      -0.00556338      -0.00681388
Cl       2.66301713       3.96253174       4.61248124       0.00393160      -0.00556019       0.00681192
Cl       4.62358287       1.18987298       8.00828154      -0.00393572       0.00556682      -0.00681478
