9
Lattice="4.460830307461059 1.2367446157768563e-07 2.575461572780019 1.486943527704076 4.205711308630075 2.5754616155922845 -4.4700747115167245e-08 2.0825904239059822e-08 5.150923222984019" Properties=species:S:1:pos:R:3:forces:R:3 energy=-37.28187942504883 free_energy=-37.28187942504883 stress="0.00021472350636031479 -6.515595174505506e-08 3.607903309443827e-08 -6.515595174505506e-08 0.00021476091933436692 3.924485980633108e-08 3.607903309443827e-08 3.924485980633108e-08 0.00021469411149155349" pbc="T T T"
Pt       1.48694403       1.05142826       2.57546151       0.00000543       0.00000621       0.00000226
Pt       4.46083033       3.15428426       7.72638567       0.00000105       0.00000532       0.00000705
B       -0.00000015      -0.00000016       0.00000022      -0.00000283       0.00000037       0.00000076
F        1.35881051       0.96082394       5.15092312       0.00204945       0.00144616      -0.00000128
F        4.58896348       3.24488735       5.15092284      -0.00204992      -0.00145046      -0.00000115
F        3.78142504       0.96082398       3.75222569      -0.00102495       0.00144374       0.00177175
F        2.16634840       3.24488719       6.54962050       0.00102466      -0.00145020      -0.00177538
F        2.16634853       3.24488717       3.75222560       0.00102244      -0.00144865       0.00177208
F        3.78142501       0.96082379       6.54962046      -0.00102510       0.00144736      -0.00177622
