9
Lattice="5.975137352667185 -7.339600829955922e-08 3.449746807061972 1.991712522985057 5.633412247932265 3.4497465623328547 2.9248539686715265e-07 -9.291228236081971e-08 6.899493107524369" Properties=species:S:1:pos:R:3:forces:R:3 energy=-20.435203552246094 free_energy=-20.435203552246094 stress="0.00013835231948178262 4.079729976069757e-08 2.0101637687730545e-08 4.079729976069757e-08 0.00013842836779076606 -1.807033811473957e-08 2.0101637687730545e-08 -1.807033811473957e-08 0.00013837973529007286" pbc="T T T"
Pt       1.99171159       1.40835355       3.44974581      -0.00000122       0.00000138      -0.00000115
Pt       5.97513844       4.22506043      10.34924160       0.00000242       0.00000611       0.00000475
Ga       0.00000033      -0.00000030       0.00000036      -0.00000395       0.00000205      -0.00000409
Br       2.02215123       1.42987585       6.89949276      -0.00690794      -0.00488561      -0.00000061
Br       5.94469853       4.20353580       6.89949273       0.00691128       0.00488493      -0.00000429
Br       4.96406270       1.42987537       5.20098004       0.00345553      -0.00488426      -0.00597808
Br       3.00278812       4.20353589       8.59800652      -0.00345851       0.00488429       0.00597993
Br       3.00278786       4.20353568       5.20097994      -0.00345396       0.00488158      -0.00598103
Br       4.96406186       1.42987609       8.59800616       0.00345631      -0.00489032       0.00598463
