9
Lattice="3.6580794552376585 8.744521478456778e-05 2.1119582399620196 1.2193956205092829 3.4489372512233487 2.1120390259401236 -5.24303778530193e-05 6.18698315298641e-05 4.224007289998701" Properties=species:S:1:pos:R:3:forces:R:3 energy=-42.72042465209961 free_energy=-42.72042465209961 stress="-3.6907222238369286e-05 0.00010520163050387055 -5.663969204761088e-05 0.00010520163050387055 9.084302291739732e-06 2.9951556257401535e-07 -5.663969204761088e-05 2.9951556257401535e-07 0.00018332900071982294" pbc="T T T"
Pt       1.21936503       0.86229951       2.11198180       0.00665491      -0.00746113       0.00286781
Pt       3.65800343       2.58682335       6.33600734       0.00979293      -0.00125549      -0.00131575
Ga      -0.00000371       0.00000542      -0.00000494      -0.00082395      -0.00044193       0.00115048
O        1.24543889       0.88076495       4.22400347       0.00231791       0.00658846      -0.00078530
O        3.63199218       2.56829123       4.22399939      -0.00220633       0.00818324       0.00260548
O        3.03536104       0.88078255       3.19061606      -0.00477600      -0.00482821      -0.00342751
O        1.84208075       2.56830844       5.25740789      -0.00101519      -0.00117421      -0.00808907
O        1.84212024       2.56825630       3.19066200      -0.00509858       0.00069261       0.00576162
O        3.03533304       0.88081534       5.25734535      -0.00484371      -0.00030112       0.00122833
