9
Lattice="4.511862278632362 -1.5721443516178385e-08 2.604924882167218 1.5039540637899182 4.253824595930842 2.6049249068753295 -1.8719449873313562e-08 1.7024483583691723e-08 5.209849796757461" Properties=species:S:1:pos:R:3:forces:R:3 energy=-35.22167205810547 free_energy=-35.22167205810547 stress="0.00034905364736914635 -3.9891968839356196e-08 1.3478746119233165e-08 -3.9891968839356196e-08 0.0003491181996650994 -2.5971846895345152e-08 1.3478746119233165e-08 -2.5971846895345152e-08 0.00034905472421087325" pbc="T T T"
Pt       1.50395381       1.06345608       2.60492503       0.00000077       0.00000044       0.00000040
Pt       4.51186215       3.19036838       7.81477464      -0.00000114      -0.00000026      -0.00000003
Ga       0.00000003      -0.00000002       0.00000020       0.00000044       0.00000117      -0.00000181
F        1.52372188       1.07743400       5.20984969      -0.00097837      -0.00069142      -0.00000026
F        4.49209460       3.17639064       5.20984983       0.00097710       0.00069033      -0.00000006
F        3.75000149       1.07743408       3.92450656       0.00048885      -0.00069111      -0.00084575
F        2.26581494       3.17639053       6.49519296      -0.00048872       0.00069126       0.00084512
F        2.26581495       3.17639058       3.92450651      -0.00048835       0.00068969      -0.00084405
F        3.75000148       1.07743413       6.49519291       0.00048945      -0.00069007       0.00084640
