9
Lattice="5.571787437796606 -1.1519234769089663e-07 3.216872952132377 1.8572623703673945 5.253131711717783 3.2168729526411424 -1.1399594320608603e-07 -7.998419298681546e-08 6.4337461017114626" Properties=species:S:1:pos:R:3:forces:R:3 energy=-23.435184478759766 free_energy=-23.435184478759766 stress="1.2454096577130258e-05 -2.9977000881586946e-09 1.4178505480799686e-08 -2.9977000881586946e-09 1.2436796168913133e-05 2.7007954983560012e-08 1.4178505480799686e-08 2.7007954983560012e-08 1.2486183550208807e-05" pbc="T T T"
Pt       1.85726254       1.31328192       3.21687255       0.00000130      -0.00000444      -0.00000108
Pt       5.57178758       3.93984863       9.65061976       0.00000117       0.00000016       0.00000168
Ga       0.00000022       0.00000021      -0.00000003       0.00000093      -0.00000096      -0.00000231
Cl       1.89411813       1.33934389       6.43374644      -0.00565135      -0.00399701       0.00000165
Cl       5.53493151       3.91378757       6.43374570       0.00564981       0.00399758      -0.00000187
Cl       4.62472784       1.33934396       4.85722767       0.00282626      -0.00399558      -0.00489497
Cl       2.80432124       3.91378818       8.01026391      -0.00282650       0.00400107       0.00489628
Cl       2.80432163       3.91378763       4.85722760      -0.00282663       0.00399764      -0.00489634
Cl       4.62472805       1.33934409       8.01026443       0.00282477      -0.00399853       0.00489712
