9
Lattice="4.997779773784455 -1.7915880614266841e-07 2.8854694066272595 1.6659264570293073 4.711951830973416 2.8854693465591117 1.490406688834319e-08 -6.302939232374722e-08 5.770938787439939" Properties=species:S:1:pos:R:3:forces:R:3 energy=-32.98128890991211 free_energy=-32.98128890991211 stress="-0.00012802162382286042 2.3812109617438182e-08 -2.0774326259243026e-08 2.3812109617438182e-08 -0.00012792390771210194 -1.795234183532557e-08 -2.0774326259243026e-08 -1.795234183532557e-08 -0.00012791607878170907" pbc="T T T"
Pt       1.66592655       1.17798772       2.88546863       0.00000109      -0.00000311      -0.00000842
Pt       4.99777988       3.53396298       8.65640687       0.00000014      -0.00000672      -0.00001648
Ga      -0.00000013      -0.00000003      -0.00000006       0.00000297       0.00000148       0.00000797
S        1.81417190       1.28281360       5.77093912       0.00048128       0.00034350       0.00000479
S        4.84953422       3.42913876       5.77093923      -0.00048643      -0.00034000       0.00000771
S        4.09069359       1.28281329       4.45658872      -0.00024271       0.00034011       0.00042035
S        2.57301244       3.42913805       7.08528961       0.00024181      -0.00034413      -0.00041631
S        2.57301259       3.42913826       4.45658859       0.00024035      -0.00033958       0.00041790
S        4.09069395       1.28281370       7.08528950      -0.00023870       0.00034843      -0.00041743
