9
Lattice="6.483649091278835 5.392226056426012e-08 3.7433365466884148 2.161216407925919 6.112843115845672 3.743336558244772 -3.5384221883579185e-08 -1.0866795343484683e-08 7.486673154664067" Properties=species:S:1:pos:R:3:forces:R:3 energy=-18.021846771240234 free_energy=-18.021846771240234 stress="-2.8447891963878646e-05 7.222863640521382e-09 7.180563699193954e-09 7.222863640521382e-09 -2.8449498131521977e-05 2.82004819496251e-09 7.180563699193954e-09 2.82004819496251e-09 -2.8448399461922236e-05" pbc="T T T"
Pt       2.16121589       1.52821057       3.74333669      -0.00000156      -0.00000049       0.00000055
Pt       6.48364900       4.58463242      11.23000961      -0.00000113       0.00000029       0.00000094
Ga      -0.00000033      -0.00000024      -0.00000009       0.00000114       0.00000164      -0.00000166
I        2.24132069       1.58485307       7.48667311      -0.00065507      -0.00046355      -0.00000081
I        6.40354532       4.52799032       7.48667325       0.00065283       0.00046085      -0.00000063
I        5.36298914       1.58485282       5.68437694       0.00032738      -0.00046030      -0.00056580
I        3.28187663       4.52799037       9.28896930      -0.00032676       0.00046280       0.00056624
I        3.28187655       4.52799039       5.68437686      -0.00032441       0.00046173      -0.00056541
I        5.36298898       1.58485290       9.28896945       0.00032748      -0.00046290       0.00056651
