9
Lattice="4.6442847797391344 3.9943560579175985e-08 2.6813790798544415 1.5480949524105296 4.378673779472612 2.681379100341668 1.94957001675375e-08 3.887718298734829e-08 5.362758125941302" Properties=species:S:1:pos:R:3:forces:R:3 energy=-36.566131591796875 free_energy=-36.566131591796875 stress="-0.0002140744763892144 3.796045433546169e-08 6.149592479687271e-08 3.796045433546169e-08 -0.00021409435430541635 -5.829624427633462e-08 6.149592479687271e-08 -5.829624427633462e-08 -0.00021412759087979794" pbc="T T T"
Pt       1.54809484       1.09466854       2.68137915      -0.00000002       0.00000056      -0.00000099
Pt       4.64428476       3.28400571       8.04413721      -0.00000052       0.00000133      -0.00000206
Ir       0.00000011      -0.00000025      -0.00000001      -0.00000157       0.00001041      -0.00000006
F        1.60237776       1.13305213       5.36275803       0.00341515       0.00241336       0.00000035
F        4.59000215       3.24562173       5.36275841      -0.00341815      -0.00241554       0.00000109
F        3.84309628       1.13305209       4.06907883      -0.00170744       0.00241522       0.00295962
F        2.34928355       3.24562149       6.65643780       0.00170935      -0.00241987      -0.00296348
F        2.34928368       3.24562164       4.06907856       0.00171079      -0.00241910       0.00296275
F        3.84309590       1.13305242       6.65643721      -0.00170762       0.00241370      -0.00295734
