9
Lattice="6.024557116620227 9.243545757083912e-08 3.4782796789504915 2.008185806138692 5.680007138063983 3.4782796556550886 5.7261098055397924e-08 1.1958734448063822e-08 6.956559258721877" Properties=species:S:1:pos:R:3:forces:R:3 energy=-25.558652877807617 free_energy=-25.558652877807617 stress="5.361284638638608e-05 1.7901314208756958e-08 5.6573072615417885e-11 1.7901314208756958e-08 5.358820635592565e-05 -2.1766632940511954e-10 5.6573072615417885e-11 -2.1766632940511954e-10 5.359738497645594e-05" pbc="T T T"
Pt       2.00818542       1.42000171       3.47827879      -0.00000175      -0.00000162      -0.00000249
Pt       6.02455686       4.26000497      10.43483846      -0.00000192      -0.00000154      -0.00000174
Ir       0.00000006       0.00000010       0.00000025      -0.00000222      -0.00000434      -0.00000038
Br       1.99915327       1.41361488       6.95655927      -0.00017694      -0.00012654       0.00000221
Br       6.03358956       4.26639248       6.95655938       0.00018258       0.00012991       0.00000175
Br       5.02498081       1.41361515       5.20959754       0.00009086      -0.00012587      -0.00015409
Br       3.00776252       4.26639242       8.70352157      -0.00008891       0.00012549       0.00015621
Br       3.00776250       4.26639228       5.20959767      -0.00009046       0.00012855      -0.00015568
Br       5.02498091       1.41361499       8.70352144       0.00008870      -0.00012402       0.00015426
