9
Lattice="5.631013402721501 1.1859092555427193e-08 3.251067143598566 1.8770044557808157 5.308970447435841 3.251067183390482 -2.2900279869158083e-08 3.2541999082099275e-08 6.5021343268616025" Properties=species:S:1:pos:R:3:forces:R:3 energy=-28.479747772216797 free_energy=-28.479747772216797 stress="0.0002966181782539934 -4.747840787189261e-09 -8.573385557042457e-09 -4.747840787189261e-09 0.0002966413157992065 6.365604932057067e-09 -8.573385557042457e-09 6.365604932057067e-09 0.00029664140311069787" pbc="T T T"
Pt       1.87700411       1.32724288       3.25106687      -0.00000060      -0.00000014      -0.00000118
Pt       5.63101326       3.98172806       9.75320078       0.00000015       0.00000033      -0.00000269
Ir       0.00000010      -0.00000032       0.00000047       0.00000250       0.00000596      -0.00000476
Cl       1.86395123       1.31801280       6.50213461      -0.00717628      -0.00507537      -0.00000038
Cl       5.64406693       3.99095828       6.50213449       0.00716978       0.00507039      -0.00000014
Cl       4.69903789       1.31801236       4.86529688       0.00358661      -0.00507241      -0.00621101
Cl       2.80898035       3.99095759       8.13897189      -0.00358617       0.00507516       0.00621614
Cl       2.80897982       3.99095781       4.86529648      -0.00358531       0.00506932      -0.00621051
Cl       4.69903768       1.31801254       8.13897212       0.00358926      -0.00507337       0.00621501
