9
Lattice="6.342163610339826 4.596559562199426e-08 3.661649819956844 2.114054625655611 5.979449138082153 3.661649741081199 1.1266543009934796e-08 -8.863586968830128e-08 7.323299620399459" Properties=species:S:1:pos:R:3:forces:R:3 energy=-23.88945770263672 free_energy=-23.88945770263672 stress="-0.0001727295311866328 5.67178162214077e-08 1.9626950731321813e-08 5.67178162214077e-08 -0.00017275821301154792 -2.9360057496319314e-08 1.9626950731321813e-08 -2.9360057496319314e-08 -0.00017280572501476854" pbc="T T T"
Pt       2.11405481       1.49486221       3.66164976       0.00000109      -0.00000037      -0.00000056
Pt       6.34216366       4.48458683      10.98494948      -0.00000057      -0.00000038      -0.00000015
Ir       0.00000001      -0.00000032       0.00000034      -0.00000212       0.00000421      -0.00000302
I        2.15293611       1.52235577       7.32329945      -0.00258444      -0.00182768      -0.00000023
I        6.30328206       4.45709354       7.32329955       0.00258275       0.00182766       0.00000033
I        5.26569592       1.52235530       5.52614664       0.00128898      -0.00182206      -0.00223289
I        3.19052241       4.45709373       9.12045250      -0.00128725       0.00182197       0.00223182
I        3.19052241       4.45709381       5.52614668      -0.00128953       0.00182318      -0.00223215
I        5.26569558       1.52235548       9.12045232       0.00129108      -0.00182655       0.00223681
