9
Lattice="4.602871320332266 -7.37699905692603e-08 2.6574690002724264 1.534290421168927 4.339628402609422 2.657468912614763 8.317429348331236e-08 -4.854518950005544e-08 5.314937856482742" Properties=species:S:1:pos:R:3:forces:R:3 energy=-38.61766052246094 free_energy=-38.61766052246094 stress="0.0006543962517753243 -1.2081727618351579e-08 7.750478658863358e-08 -1.2081727618351579e-08 0.0006545110372826457 -5.771790512199004e-08 7.750478658863358e-08 -5.771790512199004e-08 0.0006544161587953568" pbc="T T T"
Pt       1.53429057       1.08490702       2.65746922       0.00000109      -0.00000052       0.00000274
Pt       4.60287146       3.25472176       7.97240674       0.00000038       0.00000530       0.00000020
Mo      -0.00000008      -0.00000001      -0.00000012      -0.00000064       0.00000167      -0.00000294
F        1.60862532       1.13746945       5.31493788      -0.00410274      -0.00290145       0.00000045
F        4.52853668       3.20215869       5.31493776       0.00409986       0.00289828       0.00000140
F        3.79855871       1.13746952       4.05057905       0.00204935      -0.00290048      -0.00355186
F        2.33860286       3.20215884       6.57929665      -0.00204831       0.00289790       0.00354904
F        2.33860310       3.20215864       4.05057909      -0.00205071       0.00289962      -0.00355177
F        3.79855875       1.13746919       6.57929675       0.00205179      -0.00290026       0.00355275
