9
Lattice="5.697058801204573 -1.7619318868431237e-07 3.289198408787524 1.8990194757443197 5.37123851881921 3.289198336977853 2.794597219027861e-08 -6.818770141877857e-08 6.578396769171184" Properties=species:S:1:pos:R:3:forces:R:3 energy=-31.800046920776367 free_energy=-31.800046920776367 stress="0.00017369446868542582 6.535154195574933e-09 -2.532217457940078e-08 6.535154195574933e-09 0.0001737266284180805 -3.687544936070708e-09 -2.532217457940078e-08 -3.687544936070708e-09 0.00017377856420353055" pbc="T T T"
Pt       1.89901902       1.34280925       3.28919736      -0.00000065      -0.00000315      -0.00000288
Pt       5.69705925       4.02842871       9.86759446       0.00000279       0.00000043      -0.00000206
Mo       0.00000026       0.00000006       0.00000045      -0.00000325      -0.00000343      -0.00000579
Cl       1.89994179       1.34346172       6.57839722      -0.00159702      -0.00112563       0.00000220
Cl       5.69613620       4.02777653       6.57839699       0.00159872       0.00113156      -0.00000027
Cl       4.74708749       1.34346155       4.93459679       0.00079967      -0.00113164      -0.00138137
Cl       2.84899087       4.02777680       8.22219694      -0.00080147       0.00113578       0.00138770
Cl       2.84899070       4.02777647       4.93459678      -0.00079896       0.00112718      -0.00138614
Cl       4.74708767       1.34346194       8.22219715       0.00079997      -0.00113130       0.00138855
