9
Lattice="6.101941457354181 -5.059420433231231e-09 3.522957452929492 2.0339804711534564 5.752965241703093 3.522957470009561 -3.492246769086806e-08 -3.7751644199590304e-09 7.045914966346475" Properties=species:S:1:pos:R:3:forces:R:3 energy=-28.23749542236328 free_energy=-28.23749542236328 stress="0.0002509973419364542 -1.5971306055462264e-08 -4.5159911365999506e-09 -1.5971306055462264e-08 0.0002510405029170215 -2.5005251202969703e-09 -4.5159911365999506e-09 -2.5005251202969703e-09 0.00025102143990807235" pbc="T T T"
Pt       2.03398034       1.43824250       3.52295764      -0.00000018       0.00000383       0.00000049
Pt       6.10194124       4.31472397      10.56887286      -0.00000080      -0.00000006      -0.00000058
Mo       0.00000003      -0.00000036      -0.00000014       0.00000144       0.00000340       0.00000005
Br       2.03079254       1.43598704       7.04591470      -0.00447638      -0.00316578      -0.00000057
Br       6.10512951       4.31697782       7.04591492       0.00447339       0.00316177       0.00000047
Br       5.08654550       1.43598705       5.28167528       0.00223925      -0.00316606      -0.00387674
Br       3.04937654       4.31697782       8.81015452      -0.00223726       0.00316418       0.00387632
Br       3.04937671       4.31697817       5.28167529      -0.00223760       0.00316430      -0.00387602
Br       5.08654518       1.43598697       8.81015453       0.00223805      -0.00316555       0.00387658
