9
Lattice="5.46085767938623 -2.6633001286353588e-08 3.152827664903624 1.8202858202573058 5.148545622270175 3.1528277476291424 5.731111222558268e-08 1.4184272330720835e-07 6.305655230541486" Properties=species:S:1:pos:R:3:forces:R:3 energy=-21.475048065185547 free_energy=-21.475048065185547 stress="8.289336983580142e-05 2.1237949177077553e-09 1.1475745687050676e-08 2.1237949177077553e-09 8.283343049697578e-05 -5.540264691461516e-09 1.1475745687050676e-08 -5.540264691461516e-09 8.292099664686248e-05" pbc="T T T"
Pt       1.82028617       1.28713720       3.15282780       0.00000212       0.00000308      -0.00000038
Pt       5.46085767       3.86140877       9.45848263       0.00000044      -0.00000260      -0.00000039
N        0.00000010       0.00000037      -0.00000029       0.00000113       0.00000036       0.00000056
Cl       1.77109209       1.25235104       6.30565524      -0.00186798      -0.00131852       0.00000123
Cl       5.51005116       3.89619435       6.30565552       0.00186748       0.00131917       0.00000136
Cl       4.57531133       1.25235127       4.68663893       0.00093277      -0.00132136      -0.00161687
Cl       2.70583210       3.89619459       7.92467203      -0.00093397       0.00131788       0.00161630
Cl       2.70583213       3.89619412       4.68663878      -0.00093595       0.00132098      -0.00161879
Cl       4.57531149       1.25235123       7.92467192       0.00093411      -0.00131898       0.00161723
