9
Lattice="4.387551525511118 4.936113937331273e-08 2.533153952369972 1.4625172117592524 4.136623183209706 2.533153969602557 3.205661143831688e-08 4.377298487307339e-08 5.066307849216261" Properties=species:S:1:pos:R:3:forces:R:3 energy=-28.298778533935547 free_energy=-28.298778533935547 stress="3.920110975741409e-05 -3.071596976766955e-09 1.4785788948756817e-07 -3.071596976766955e-09 3.917703725164756e-05 -8.130172091114218e-09 1.4785788948756817e-07 -8.130172091114218e-09 3.9226957596838474e-05" pbc="T T T"
Pt       1.46251719       1.03415601       2.53315375      -0.00000248       0.00000409      -0.00000382
Pt       4.38755145       3.10246807       7.59946146      -0.00000127       0.00000403      -0.00000355
N        0.00000008      -0.00000028       0.00000028       0.00000524      -0.00000064      -0.00000369
F        1.41428625       1.00005103       5.06630794       0.00099742       0.00070298       0.00000351
F        4.43578274       3.13657192       5.06630812      -0.00099552      -0.00070536       0.00000371
F        3.68040855       1.00005116       3.75796172      -0.00049758       0.00069916       0.00086224
F        2.16966038       3.13657178       6.37465441       0.00049806      -0.00070441      -0.00085878
F        2.16965997       3.13657190       3.75796147       0.00049329      -0.00070035       0.00085795
F        3.68040848       1.00005147       6.37465399      -0.00049680       0.00069976      -0.00085843
