9
Lattice="4.078201000770443 -5.3712108421635074e-08 2.3545503868362623 1.359400266514486 3.8449647553137773 2.354550415303205 -4.640622361549081e-08 2.0505809392892916e-09 4.709100854050466" Properties=species:S:1:pos:R:3:forces:R:3 energy=-41.57596969604492 free_energy=-41.57596969604492 stress="-0.0004329896764829755 -1.1011797029780723e-09 -5.7757763016752506e-08 -1.1011797029780723e-09 -0.00043312381603755057 -1.392511137510155e-07 -5.7757763016752506e-08 -1.392511137510155e-07 -0.00043320388067513704" pbc="T T T"
Pt       1.35940136       0.96124130       2.35455087       0.00003106       0.00000402       0.00002478
Pt       4.07820119       2.88372276       7.06365337       0.00002678       0.00000130       0.00002840
N        0.00000363       0.00000084       0.00000237       0.00010877       0.00001747       0.00008588
O        1.35973139       0.96147551       4.70910046       0.00520653       0.00369209      -0.00001257
O        4.07786689       2.88348763       4.70910010      -0.00530690      -0.00374383      -0.00001277
O        3.39833423       0.96147639       3.53211269      -0.00263423       0.00371301       0.00453669
O        2.03926637       2.88348818       5.88608747       0.00262061      -0.00372398      -0.00457263
O        2.03926622       2.88348921       3.53211230       0.00260282      -0.00369698       0.00451511
O        3.39833359       0.96147698       5.88608697      -0.00265613       0.00373709      -0.00459290
