9
Lattice="5.9849563467876115 -8.393091117145202e-08 3.4554156036245987 1.9949854151483026 5.642671029163756 3.455415525076222 -1.8898116357428153e-07 -2.2983154552484986e-07 6.9108315345741635" Properties=species:S:1:pos:R:3:forces:R:3 energy=-21.088151931762695 free_energy=-21.088151931762695 stress="0.000157915084855631 -4.271993958582243e-08 3.623039646072357e-09 -4.271993958582243e-08 0.00015805927978362888 -1.665349103063818e-08 3.623039646072357e-09 -1.665349103063818e-08 0.00015785718278493732" pbc="T T T"
Pt       1.99498711       1.41066869       3.45541348       0.00000232       0.00000510      -0.00000873
Pt       5.98495690       4.23200454      10.36624757      -0.00000228       0.00000269      -0.00000121
P       -0.00000048      -0.00000054       0.00000024      -0.00000232      -0.00000340       0.00000218
Br       1.95759770       1.38422975       6.91083214      -0.00123858      -0.00087854       0.00000075
Br       6.02234338       4.25844051       6.91083135       0.00124434       0.00088045       0.00000007
Br       5.00615752       1.38422987       5.15074446       0.00062089      -0.00087821      -0.00107354
Br       2.97378355       4.25843947       8.67091874      -0.00062434       0.00087732       0.00107628
Br       2.97378345       4.25844082       5.15074412      -0.00062034       0.00087735      -0.00107250
Br       5.00615713       1.38422975       8.67091836       0.00062001      -0.00088277       0.00107703
