9
Lattice="6.458491632309089 4.2638319995775824e-08 3.728811914131715 2.152830545086899 6.089124385565897 3.7288119820556442 3.044002514232563e-08 1.0471389556859414e-07 7.457623775539803" Properties=species:S:1:pos:R:3:forces:R:3 energy=-19.09153175354004 free_energy=-19.09153175354004 stress="7.133786766644334e-06 5.021123516968373e-09 2.7103694844043957e-09 5.021123516968373e-09 7.154796094255289e-06 5.415717652113017e-09 2.7103694844043957e-09 5.415717652113017e-09 7.137102329579648e-06" pbc="T T T"
Pt       2.15283053       1.52228205       3.72881282      -0.00000004       0.00000249       0.00000294
Pt       6.45849139       4.56684303      11.18643525      -0.00000156      -0.00000071      -0.00000041
P        0.00000010      -0.00000007       0.00000018      -0.00000025       0.00000000      -0.00000046
I        2.23023777       1.57701641       7.45762345      -0.00549288      -0.00388491      -0.00000173
I        6.38108437       4.51210790       7.45762409       0.00549416       0.00388412       0.00000024
I        5.34337269       1.57701638       5.66025440       0.00274689      -0.00388449      -0.00475800
I        3.26794959       4.51210789       9.25499307      -0.00274659       0.00388426       0.00475769
I        3.26794961       4.51210782       5.66025436      -0.00274663       0.00388330      -0.00475806
I        5.34337278       1.57701666       9.25499311       0.00274692      -0.00388402       0.00475763
