9
Lattice="5.6123468204605365 8.70611504994572e-08 3.2402900080273964 1.870782340239007 5.29137119047996 3.2402900345795467 5.205545963536579e-08 6.932835184148388e-08 6.480579925892056" Properties=species:S:1:pos:R:3:forces:R:3 energy=-25.188926696777344 free_energy=-25.188926696777344 stress="0.00024939552531577647 3.311676977091338e-08 -3.788143132510413e-08 3.311676977091338e-08 0.0002495268126949668 2.4817636834484347e-09 -3.788143132510413e-08 2.4817636834484347e-09 0.00024939325521700084" pbc="T T T"
Pt       1.87078181       1.32284334       3.24029034       0.00000007       0.00000107       0.00000152
Pt       5.61234649       3.96852825       9.72086982      -0.00000084      -0.00000009       0.00000023
P        0.00000015      -0.00000005      -0.00000007       0.00000131      -0.00000167       0.00000095
Cl       1.79949483       1.27243501       6.48057971      -0.00128809      -0.00091030       0.00000011
Cl       5.68363435       4.01893625       6.48058009       0.00129128       0.00091255      -0.00000049
Cl       4.71259963       1.27243485       4.79869816       0.00064321      -0.00091076      -0.00111638
Cl       2.77053003       4.01893659       8.16246202      -0.00064525       0.00090981       0.00111599
Cl       2.77052986       4.01893649       4.79869805      -0.00064336       0.00090908      -0.00111490
Cl       4.71259966       1.27243479       8.16246197       0.00064188      -0.00090972       0.00111304
