9
Lattice="5.215494542115577 -1.2100763280371754e-06 3.011167008290277 1.7384971981675768 4.917215512178992 3.011166734048927 -5.07341018130784e-07 -6.94620047542133e-07 6.022334895321411" Properties=species:S:1:pos:R:3:forces:R:3 energy=-37.845497131347656 free_energy=-37.845497131347656 stress="4.282929512555711e-05 -2.7999931262456812e-08 7.270610780096831e-08 -2.7999931262456812e-08 4.27444429078605e-05 4.214754767417617e-08 7.270610780096831e-08 4.214754767417617e-08 4.2991530790459365e-05" pbc="T T T"
Pt       1.73849319       1.22930396       3.01118030      -0.00001436      -0.00001089       0.00000625
Pt       5.21550285       3.68792441       9.03352239       0.00002010       0.00002514       0.00002572
P       -0.00000016      -0.00000111      -0.00000288      -0.00000835      -0.00000521      -0.00002626
F        1.34327883       0.94984048       6.02232952       0.00190604       0.00134450       0.00000578
F        5.61071213       3.96737008       6.02232702      -0.00192130      -0.00136715       0.00000657
F        4.54385195       0.94983970       4.17447562      -0.00094259       0.00134540       0.00165671
F        2.41013656       3.96737009       7.87018277       0.00096101      -0.00135165      -0.00166059
F        2.41013639       3.96737050       4.17447765       0.00094926      -0.00133562       0.00164670
F        4.54385364       0.94983665       7.87018146      -0.00095004       0.00135511      -0.00166166
