9
Lattice="5.987645297985697 -2.8908041112092216e-07 3.456968416596644 1.995881497554443 5.645205690606324 3.4569684094834017 -1.593702866582523e-07 -1.2140372951754818e-07 6.913937109230687" Properties=species:S:1:pos:R:3:forces:R:3 energy=-24.680543899536133 free_energy=-24.680543899536133 stress="0.00019747737678699195 -3.2683228567975675e-08 -1.1363593621638302e-08 -3.2683228567975675e-08 0.00019749269995372742 3.0070626877432005e-08 -1.1363593621638302e-08 3.0070626877432005e-08 0.00019745755707845092" pbc="T T T"
Pt       1.99588117       1.41130105       3.45696810      -0.00000148       0.00000083      -0.00000190
Pt       5.98764616       4.23390326      10.37090612       0.00000842      -0.00000172       0.00000127
Rh      -0.00000018      -0.00000000      -0.00000000       0.00000325       0.00000301       0.00000085
Br       1.99010299       1.40721548       6.91393695      -0.00618199      -0.00437002      -0.00000062
Br       5.99342341       4.23799046       6.91393699       0.00617509       0.00436618      -0.00000145
Br       4.99259369       1.40721528       5.18044844       0.00309006      -0.00436724      -0.00534962
Br       2.99093309       4.23799006       8.64742537      -0.00309138       0.00436887       0.00535020
Br       2.99093297       4.23799015       5.18044842      -0.00309026       0.00436831      -0.00534866
Br       4.99259326       1.40721542       8.64742534       0.00308822      -0.00436823       0.00534972
