9
Lattice="5.655945342688652 3.164367319782512e-08 3.265461621554498 1.8853151991475654 5.332476458587621 3.2654615261461144 6.69888585708819e-08 -6.948266627602949e-08 6.5309231270809285" Properties=species:S:1:pos:R:3:forces:R:3 energy=-28.543025970458984 free_energy=-28.543025970458984 stress="9.029690409079194e-05 6.130870389142729e-08 -4.1610867640429205e-08 6.130870389142729e-08 9.027897613123059e-05 -7.170617521978784e-08 -4.1610867640429205e-08 -7.170617521978784e-08 9.034783579409122e-05" pbc="T T T"
Pt       1.88531554       1.33311921       3.26546125       0.00000116       0.00000053      -0.00000122
Pt       5.65594509       3.99935718       9.79638456      -0.00000144      -0.00000215       0.00000359
Ru      -0.00000022       0.00000014      -0.00000021       0.00000083      -0.00000141       0.00000100
Cl       1.87507276       1.32587654       6.53092311      -0.00063896      -0.00045258       0.00000097
Cl       5.66618784       4.00659980       6.53092299       0.00063998       0.00045231       0.00000087
Cl       4.71840902       1.32587654       4.88932231       0.00031930      -0.00045142      -0.00055298
Cl       2.82285146       4.00660010       8.17252428      -0.00031871       0.00045022       0.00055194
Cl       2.82285146       4.00659959       4.88932222      -0.00032035       0.00045532      -0.00055498
Cl       4.71840941       1.32587657       8.17252457       0.00031796      -0.00045055       0.00055075
