9
Lattice="5.6101256941480395 2.698500213800024e-09 3.2390075102644786 1.870041917311436 5.289276999340314 3.2390074813081817 -3.328158596331692e-08 -5.899767392388835e-08 6.47801507817438" Properties=species:S:1:pos:R:3:forces:R:3 energy=-27.159873962402344 free_energy=-27.159873962402344 stress="0.0001123653055401519 4.088665406243308e-08 1.4371268619584043e-08 4.088665406243308e-08 0.00011232346150791273 5.7632064454082865e-08 1.4371268619584043e-08 5.7632064454082865e-08 0.00011229889059904963" pbc="T T T"
Pt       1.87004231       1.32231960       3.23900766       0.00000213       0.00000343       0.00000147
Pt       5.61012548       3.96695756       9.71702199      -0.00000103      -0.00000180      -0.00000255
Rh       0.00000013       0.00000000       0.00000019      -0.00000193       0.00000065       0.00000356
Cl       1.87171350       1.32350107       6.47801521      -0.00404519      -0.00286174       0.00000025
Cl       5.60845365       3.96577572       6.47801511       0.00404564       0.00286376       0.00000189
Cl       4.67426935       1.32350119       4.85995896       0.00202286      -0.00286332      -0.00350538
Cl       2.80589846       3.96577549       8.09607121      -0.00202140       0.00286007       0.00350180
Cl       2.80589844       3.96577581       4.85995883      -0.00202289       0.00285801      -0.00350294
Cl       4.67426900       1.32350137       8.09607108       0.00202201      -0.00285935       0.00350198
