9
Lattice="4.583796009129726 6.674903860165424e-08 2.646455963156558 1.5279320409259218 4.3216445769318685 2.6464560065425773 1.4861237656554897e-08 6.364525248583451e-08 5.292911900572712" Properties=species:S:1:pos:R:3:forces:R:3 energy=-35.957427978515625 free_energy=-35.957427978515625 stress="0.0005206516943871975 -2.7238977295951372e-08 3.927850400486932e-08 -2.7238977295951372e-08 0.0005206460482440889 -5.978963102393209e-09 3.927850400486932e-08 -5.978963102393209e-09 0.0005207086214795709" pbc="T T T"
Pt       1.52793208       1.08041123       2.64645631      -0.00000136       0.00000014       0.00000105
Pt       4.58379579       3.24123333       7.93936798       0.00000024      -0.00000028      -0.00000023
Rh      -0.00000013       0.00000020      -0.00000021      -0.00000090      -0.00001039      -0.00000606
F        1.59125696       1.12518873       5.29291200      -0.00311771      -0.00220406      -0.00000032
F        4.52047129       3.19645571       5.29291191       0.00312283       0.00220992       0.00000022
F        3.78816744       1.12518897       4.02452495       0.00155862      -0.00220568      -0.00270298
F        2.32356066       3.19645603       6.56129891      -0.00156147       0.00221011       0.00270718
F        2.32356055       3.19645584       4.02452508      -0.00156190       0.00220867      -0.00270423
F        3.78816764       1.12518878       6.56129858       0.00156177      -0.00220842       0.00270513
