9
Lattice="6.051984099177402 -2.2254012796521198e-07 3.4941144704005165 2.0173277738741517 5.705864303841065 3.4941145559155795 1.1680357145489417e-08 1.1299339942655101e-07 6.988228920570049" Properties=species:S:1:pos:R:3:forces:R:3 energy=-25.784345626831055 free_energy=-25.784345626831055 stress="0.00010497120820218697 1.4199708076034767e-08 -1.7000605367911703e-08 1.4199708076034767e-08 0.00010496628965483978 1.5673910169766714e-08 -1.7000605367911703e-08 1.5673910169766714e-08 0.00010496531467651948" pbc="T T T"
Pt       2.01732794       1.42646775       3.49411446       0.00000028       0.00000483      -0.00000017
Pt       6.05198365       4.27939552      10.48234318      -0.00000083      -0.00000772      -0.00000239
Ru       0.00000011       0.00000004      -0.00000006      -0.00000090       0.00000127       0.00000080
Br       2.00592602       1.41840375       6.98822901      -0.00059597      -0.00041721       0.00000034
Br       6.06338598       4.28746071       6.98822899       0.00059441       0.00041892       0.00000057
Br       5.04902102       1.41840377       5.23129726       0.00029884      -0.00041877      -0.00051627
Br       3.02029102       4.28746095       8.74516077      -0.00029672       0.00041750       0.00051372
Br       3.02029071       4.28746067       5.23129684      -0.00029657       0.00041607      -0.00051158
Br       5.04902109       1.41840360       8.74516136       0.00029747      -0.00041508       0.00051495
