9
Lattice="5.029467904162786 2.902380242945273e-07 2.9037650158522017 1.6764897622565735 4.741827703155127 2.9037646915604083 3.347369651092831e-07 -1.6047982934784706e-07 5.807529451922987" Properties=species:S:1:pos:R:3:forces:R:3 energy=-37.43363952636719 free_energy=-37.43363952636719 stress="0.00040052650729194283 2.264037703980648e-07 -1.3668783882536673e-09 2.264037703980648e-07 0.00040037865983322263 -1.2438244212376048e-08 -1.3668783882536673e-09 -1.2438244212376048e-08 0.0004002010391559452" pbc="T T T"
Pt       1.67648976       1.18546008       2.90376065       0.00000165       0.00001282      -0.00001233
Pt       5.02946998       3.55637133       8.71129203       0.00000755      -0.00000119      -0.00000561
Ru       0.00000038       0.00000003       0.00000000      -0.00000397       0.00000706      -0.00000521
F        1.56958150       1.10986187       5.80753100      -0.00079421      -0.00056101       0.00000400
F        5.13637843       3.63196578       5.80753139       0.00078646       0.00055291       0.00000190
F        4.24467804       1.10985912       4.26306091       0.00038632      -0.00054543      -0.00066474
F        2.46127867       3.63196561       7.35199973      -0.00038642       0.00054201       0.00067122
F        2.46127748       3.63196711       4.26306128      -0.00038461       0.00054238      -0.00066374
F        4.24467768       1.10986057       7.35199965       0.00038719      -0.00054953       0.00067435
