9
Lattice="6.335117882518302 -1.216054624131219e-07 3.6575820498205647 2.1117058513575526 5.972806484515815 3.6575820408677338 4.1969787289141654e-09 -7.997205412604618e-09 7.31516409237176" Properties=species:S:1:pos:R:3:forces:R:3 energy=-22.941219329833984 free_energy=-22.941219329833984 stress="-0.0001329027145402506 -5.125711854958581e-09 -1.6168762995150132e-09 -5.125711854958581e-09 -0.00013290013885125518 -1.8835784043602644e-09 -1.6168762995150132e-09 -1.8835784043602644e-09 -0.00013288314221426845" pbc="T T T"
Pt       2.11170583       1.49320151       3.65758219      -0.00000062      -0.00000052       0.00000104
Pt       6.33511795       4.47960456      10.97274661      -0.00000059       0.00000024       0.00000225
Rh      -0.00000015      -0.00000003       0.00000038       0.00000394       0.00000206      -0.00000019
I        2.14116213       1.51403023       7.31516408      -0.00153281      -0.00108468      -0.00000031
I        6.30566185       4.45877645       7.31516390       0.00152923       0.00108199      -0.00000086
I        5.26453685       1.51403042       5.51188269       0.00076675      -0.00108273      -0.00132631
I        3.18228686       4.45877592       9.11844493      -0.00076678       0.00108367       0.00132618
I        3.18228698       4.45877601       5.51188295      -0.00076568       0.00108328      -0.00132696
I        5.26453666       1.51403037       9.11844501       0.00076662      -0.00108323       0.00132521
