9
Lattice="6.402914738070905 1.8107659428558304e-08 3.6967246445817947 2.134304937849865 6.036725925826977 3.696724630573769 -1.715561074040562e-08 -2.928708882830986e-08 7.393449318877918" Properties=species:S:1:pos:R:3:forces:R:3 energy=-23.61713409423828 free_energy=-23.61713409423828 stress="-5.586350744124502e-05 -8.039821253191803e-09 -6.84043888199426e-09 -8.039821253191803e-09 -5.587069972534664e-05 1.4464078823550608e-08 -6.84043888199426e-09 1.4464078823550608e-08 -5.5855718528619036e-05" pbc="T T T"
Pt       2.13430472       1.50918162       3.69672481      -0.00000103       0.00000040       0.00000086
Pt       6.40291440       4.52754441      11.09017411      -0.00000102       0.00000070      -0.00000049
Ru       0.00000002       0.00000019       0.00000054      -0.00000070      -0.00000369      -0.00000848
I        2.16464445       1.53063450       7.39344939      -0.00036350      -0.00025912      -0.00000124
I        6.37257548       4.50609128       7.39344930       0.00036744       0.00025862       0.00000017
I        5.32059277       1.53063455       5.57136134       0.00018119      -0.00025570      -0.00031301
I        3.21662729       4.50609094       9.21553652      -0.00018553       0.00026231       0.00032043
I        3.21662707       4.50609129       5.57136140      -0.00018152       0.00025676      -0.00031589
I        5.32059244       1.53063487       9.21553697       0.00018471      -0.00026023       0.00031764
