9
Lattice="5.758958269194744 -3.3283813675808326e-08 3.324936125563289 1.9196527517693251 5.429598040590026 3.324936079228664 -3.4903978207890683e-08 -8.14289322995561e-08 6.649872311582068" Properties=species:S:1:pos:R:3:forces:R:3 energy=-24.546913146972656 free_energy=-24.546913146972656 stress="0.00020015682093799114 -3.098563539083443e-08 -4.663862185338985e-08 -3.098563539083443e-08 0.00020015709742438048 -2.05067731684494e-08 -4.663862185338985e-08 -2.05067731684494e-08 0.00020020338706672192" pbc="T T T"
Pt       1.91965324       1.35739956       3.32493669       0.00000103      -0.00000004      -0.00000068
Pt       5.75895825       4.07219885       9.97480827       0.00000218       0.00000000       0.00000158
Sb      -0.00000001       0.00000004      -0.00000021      -0.00000134       0.00000505      -0.00000073
Cl       1.95393851       1.38164349       6.64987208      -0.00095969      -0.00067953      -0.00000057
Cl       5.72467222       4.04795444       6.64987199       0.00095746       0.00067684      -0.00000000
Cl       4.78198880       1.38164308       5.01709679       0.00048006      -0.00068089      -0.00083250
Cl       2.89662210       4.04795434       8.28264795      -0.00048035       0.00068013       0.00083065
Cl       2.89662210       4.04795441       5.01709658      -0.00048064       0.00067941      -0.00083166
Cl       4.78198874       1.38164350       8.28264789       0.00048119      -0.00068098       0.00083406
