9
Lattice="6.714227539419322 -9.07122686677699e-09 3.8764609744921197 2.238075829451715 6.330234264272651 3.876460989160807 -3.8228896521062916e-08 -9.066570544514513e-09 7.752922015198713" Properties=species:S:1:pos:R:3:forces:R:3 energy=-18.666461944580078 free_energy=-18.666461944580078 stress="0.00016255748050753027 -3.301096895835798e-10 -1.329903742686156e-09 -3.301096895835798e-10 0.0001625735458219424 4.430609656935758e-09 -1.329903742686156e-09 4.430609656935758e-09 0.0001625663717277348" pbc="T T T"
Pt       2.23807576       1.58255839       3.87646119       0.00000006      -0.00000038       0.00000038
Pt       6.71422746       4.74767617      11.62938249      -0.00000043       0.00000155      -0.00000189
Sb      -0.00000030      -0.00000007      -0.00000001       0.00000374       0.00000244       0.00000020
I        2.38958695       1.68969279       7.75292188      -0.00673483      -0.00476250      -0.00000013
I        6.56271655       4.64054136       7.75292227       0.00673220       0.00476063       0.00000083
I        5.51943418       1.68969293       5.94590370       0.00336637      -0.00476209      -0.00583124
I        3.43286917       4.64054139       9.55994043      -0.00336654       0.00476100       0.00583115
I        3.43286924       4.64054141       5.94590349      -0.00336698       0.00476080      -0.00583078
I        5.51943433       1.68969260       9.55994048       0.00336647      -0.00476145       0.00583132
