9
Lattice="5.194404411762566 3.797373684978431e-07 2.9989907707484353 1.731468377702967 4.897332178907318 2.9989909743874845 -6.876332415663151e-09 2.445435622605208e-07 5.997981553407164" Properties=species:S:1:pos:R:3:forces:R:3 energy=-35.190773010253906 free_energy=-35.190773010253906 stress="3.044933509954717e-05 -9.439191472893071e-08 -7.737779839089853e-08 -9.439191472893071e-08 3.060996095882729e-05 1.0411122985942711e-07 -7.737779839089853e-08 1.0411122985942711e-07 3.063344775000587e-05" pbc="T T T"
Pt       1.73146740       1.22433374       2.99898897      -0.00000210       0.00000441      -0.00000528
Pt       5.19440515       3.67299779       8.99697190       0.00000209      -0.00000620      -0.00000040
Sb       0.00000012       0.00000018       0.00000000      -0.00000051      -0.00000462      -0.00001374
F        1.58004307       1.11725993       5.99798222      -0.00308490      -0.00218055       0.00000088
F        5.34582984       3.78007297       5.99798235       0.00308596       0.00218233       0.00000022
F        4.40438334       1.11726035       4.36734853       0.00154672      -0.00218494      -0.00267651
F        2.52148951       3.78007185       7.62861499      -0.00155132       0.00219407       0.00268787
F        2.52148964       3.78007334       4.36734916      -0.00154195       0.00218150      -0.00267063
F        4.40438274       1.11726104       7.62861512       0.00154599      -0.00218599       0.00267754
