9
Lattice="6.62216142321511 -3.732251693007622e-07 3.8233067387672857 2.2073868054942265 6.243433624005164 3.8233067105302245 5.811633477680063e-08 6.511374896963935e-09 7.646613376874093" Properties=species:S:1:pos:R:3:forces:R:3 energy=-28.088031768798828 free_energy=-28.088031768798828 stress="9.128516830969602e-05 -8.924343575245075e-08 9.92524462617439e-09 -8.924343575245075e-08 9.134929132414982e-05 -9.422929103664046e-09 9.92524462617439e-09 -9.422929103664046e-09 9.140610200120136e-05" pbc="T T T"
Pt       2.20738689       1.56085816       3.82330678      -0.00000114      -0.00000156       0.00000027
Pt       6.62216148       4.68257446      11.46991999       0.00000050      -0.00000077      -0.00000020
Ta      -0.00000126      -0.00000026       0.00000048       0.00001024       0.00000433      -0.00000775
I        2.23415709       1.57978725       7.64661351      -0.00240688      -0.00170093      -0.00000154
I        6.59539218       4.66364667       7.64661375       0.00239581       0.00169358      -0.00000095
I        5.50508269       1.57978739       5.75814412       0.00120415      -0.00170073      -0.00208461
I        3.32446598       4.66364515       9.53508213      -0.00120736       0.00170857       0.00209108
I        3.32446593       4.66364574       5.75814439      -0.00120435       0.00170421      -0.00208759
I        5.50508216       1.57978843       9.53508220       0.00120905      -0.00170667       0.00209128
