9
Lattice="6.077763776777781 8.30818533971966e-08 3.50899852274702 2.025921346055678 5.730170416422219 3.508998507505962 -8.971839205039719e-08 -8.210686597568334e-08 7.017997200890871" Properties=species:S:1:pos:R:3:forces:R:3 energy=-31.84332275390625 free_energy=-31.84332275390625 stress="0.0002697609015740454 2.415891309226481e-08 -6.615437364576593e-11 2.415891309226481e-08 0.00026971963234245777 -9.726055516523502e-09 -6.615437364576593e-11 -9.726055516523502e-09 0.0002697177405934781" pbc="T T T"
Pt       2.02592168       1.43254323       3.50899857       0.00000106       0.00000134      -0.00000009
Pt       6.07776410       4.29762760      10.52699627       0.00000148      -0.00000090       0.00000315
Ta      -0.00000004      -0.00000011      -0.00000011      -0.00000362      -0.00000145      -0.00000459
Br       2.04235074       1.44416051       7.01799724      -0.00742061      -0.00524728      -0.00000069
Br       6.06133388       4.28600990       7.01799697       0.00742427       0.00524974       0.00000019
Br       5.05658826       1.44416041       5.27772631       0.00370879      -0.00524603      -0.00642624
Br       3.04709639       4.28600992       8.75826761      -0.00371131       0.00524746       0.00642732
Br       3.04709706       4.28601012       5.27772626      -0.00371010       0.00524561      -0.00642569
Br       5.05658809       1.44416010       8.75826778       0.00371008      -0.00524852       0.00642672
