9
Lattice="5.284263120328923 -8.68263223341302e-08 3.0508709835931542 1.7614210971155055 4.982050290856582 3.050870743069258 2.1097521778676127e-07 -1.4539842588366018e-07 6.10174160176656" Properties=species:S:1:pos:R:3:forces:R:3 energy=-48.41420364379883 free_energy=-48.41420364379883 stress="0.0002584904432296753 -8.341914536913464e-08 -4.840260459104684e-08 -8.341914536913464e-08 0.000258425046922639 5.664884028533379e-08 -4.840260459104684e-08 5.664884028533379e-08 0.00025855741114355624" pbc="T T T"
Pt       1.76141766       1.24551212       3.05086854      -0.00000599       0.00000097       0.00000037
Pt       5.28426516       3.73653624       9.15261036       0.00000572      -0.00000001       0.00000046
Ta       0.00000023       0.00000054       0.00000160       0.00000710      -0.00001255       0.00000520
F        1.56826698       1.10893220       6.10174150       0.00063592       0.00045177       0.00000255
F        5.47741841       3.87311855       6.10174167      -0.00063831      -0.00045377       0.00000258
F        4.50012921       1.10893239       4.40903071      -0.00031209       0.00044578       0.00054622
F        2.54555403       3.87311958       7.79445429       0.00031638      -0.00044754      -0.00054517
F        2.54555552       3.87311837       4.40903030       0.00031278      -0.00044259       0.00054467
F        4.50013037       1.10893021       7.79445467      -0.00032160       0.00045818      -0.00055671
