9
Lattice="5.7017724967898245 1.8805008090079724e-07 3.29192003166869 1.9005909660181446 5.375683060561154 3.291920107083011 1.8731368664313954e-08 1.056083788943043e-07 6.583840030893678" Properties=species:S:1:pos:R:3:forces:R:3 energy=-35.84113311767578 free_energy=-35.84113311767578 stress="5.683366907760501e-05 6.031297772324251e-08 -3.3802923127268514e-08 6.031297772324251e-08 5.6763848988339305e-05 -3.7268883090746385e-08 -3.3802923127268514e-08 -3.7268883090746385e-08 5.6761546147754416e-05" pbc="T T T"
Pt       1.90058994       1.34392187       3.29192053      -0.00000193       0.00000277       0.00000106
Pt       5.70177255       4.03176245       9.87576010       0.00000026       0.00000151      -0.00000125
Ta       0.00000004      -0.00000032      -0.00000015      -0.00000053       0.00000695      -0.00000110
Cl       1.92096468       1.35832712       6.58384052      -0.00015720      -0.00011221       0.00000072
Cl       5.68139915       4.01735554       6.58384074       0.00015373       0.00010901       0.00000027
Cl       4.74129039       1.35832748       4.95552359       0.00007653      -0.00010850      -0.00013240
Cl       2.86107282       4.01735608       8.21215590      -0.00007595       0.00010521       0.00012784
Cl       2.86107333       4.01735612       4.95552342      -0.00007272       0.00010475      -0.00012674
Cl       4.74129101       1.35832712       8.21215603       0.00007769      -0.00010948       0.00013156
