9
Lattice="6.698417670250845 -2.855408638632338e-07 3.8673334475985692 2.2328056416586493 6.315328516287189 3.867333411596906 2.8300722872607308e-08 -2.4081399694534873e-08 7.734666846178917" Properties=species:S:1:pos:R:3:forces:R:3 energy=-26.06201171875 free_energy=-26.06201171875 stress="0.00010557720815995708 -1.3423152367408875e-08 8.326118461354781e-09 -1.3423152367408875e-08 0.00010558118083281443 -1.2785149827720943e-08 8.326118461354781e-09 -1.2785149827720943e-08 0.00010559166548773646" pbc="T T T"
Rb       2.23280573       1.57883207       3.86733356       0.00000002       0.00000054      -0.00000000
Rb       6.69841765       4.73649617      11.60200014      -0.00000001      -0.00000062      -0.00000003
As      -0.00000006       0.00000021      -0.00000247      -0.00000101       0.00000067       0.00002224
Br       2.14690086       1.51808759       7.73466720      -0.00221758      -0.00156722      -0.00000110
Br       6.78432256       4.79724000       7.73466722       0.00221737       0.00156861      -0.00000134
Br       5.62496726       1.51808814       5.72660477       0.00111160      -0.00157188      -0.00192729
Br       3.30625607       4.79724060       9.74272999      -0.00110656       0.00156454       0.00191548
Br       3.30625616       4.79724016       5.72660497      -0.00111169       0.00157206      -0.00192684
Br       5.62496715       1.51808788       9.74272934       0.00110782      -0.00156667       0.00191882
