9
Lattice="5.330928926156937 -5.551788675997785e-08 3.0778132092365946 1.7769762782978629 5.02604770003743 3.07781317126703 9.063652304109663e-08 1.75868436773573e-08 6.155626261486116" Properties=species:S:1:pos:R:3:forces:R:3 energy=-40.62028884887695 free_energy=-40.62028884887695 stress="-7.119993097148836e-05 -3.657379465948907e-08 -4.053272206760994e-08 -3.657379465948907e-08 -7.11349566699937e-05 5.1155428337779085e-08 -4.053272206760994e-08 5.1155428337779085e-08 -7.11092579877004e-05" pbc="T T T"
Rb       1.77697664       1.25651180       3.07781306      -0.00000069      -0.00000011      -0.00000069
Rb       5.33092889       3.76953609       9.23343802       0.00000034       0.00000013       0.00000162
As       0.00000005      -0.00000009       0.00000004       0.00000535       0.00000117       0.00000614
F        1.57533998       1.11393370       6.15562657      -0.00017613      -0.00012526      -0.00000058
F        5.53256548       3.91211410       6.15562699       0.00017321       0.00012338      -0.00000156
F        4.54325844       1.11393353       4.44209791       0.00009030      -0.00012854      -0.00015801
F        2.56464649       3.91211375       7.86915501      -0.00009051       0.00012788       0.00015563
F        2.56464625       3.91211401       4.44209779      -0.00008833       0.00012538      -0.00015360
F        4.54325894       1.11393362       7.86915529       0.00008622      -0.00012413       0.00015074
