9
Lattice="6.3364425865848135 7.409187374729282e-08 3.6583469560966493 2.1121475921177844 5.974054940926653 3.6583469675253517 4.0548622569962184e-08 4.266935333277958e-08 7.316693841961355" Properties=species:S:1:pos:R:3:forces:R:3 energy=-29.101215362548828 free_energy=-29.101215362548828 stress="5.4029878810979426e-05 -1.5589142421390534e-08 -5.651695111907884e-09 -1.5589142421390534e-08 5.402907117968425e-05 7.650331923514386e-09 -5.651695111907884e-09 7.650331923514386e-09 5.405752744991332e-05" pbc="T T T"
Rb       2.11214777       1.49351395       3.65834681      -0.00000018      -0.00000014       0.00000007
Rb       6.33644279       4.48054121      10.97504033      -0.00000025       0.00000013       0.00000016
As      -0.00000095       0.00000202       0.00000263       0.00000917      -0.00001581      -0.00002142
Cl       1.99982853       1.41409211       7.31669331       0.00605163       0.00428125       0.00000183
Cl       6.44876213       4.55996281       7.31669388      -0.00605279      -0.00427830       0.00000147
Cl       5.33652840       1.41409202       5.39024909      -0.00302853       0.00428367       0.00524604
Cl       3.11206249       4.55996152       9.24313759       0.00302093      -0.00427189      -0.00523281
Cl       3.11206202       4.55996215       5.39024912       0.00302570      -0.00427812       0.00524294
Cl       5.33652780       1.41409252       9.24313855      -0.00302564       0.00427940      -0.00523856
