9
Lattice="7.172113191344034 2.9584750030855693e-08 4.140821278842001 2.3907042772980325 6.761933148288854 4.140821534681741 -7.039370841956497e-08 2.6356270171178674e-07 8.281642679609304" Properties=species:S:1:pos:R:3:forces:R:3 energy=-22.922801971435547 free_energy=-22.922801971435547 stress="0.0001330832310486585 1.3574802615323733e-08 5.404680702980613e-09 1.3574802615323733e-08 0.00013306588516570628 -5.078346188014393e-09 5.404680702980613e-09 -5.078346188014393e-09 0.00013305940956342965" pbc="T T T"
Rb       2.39070338       1.69048414       4.14082083      -0.00000049       0.00000011       0.00000006
Rb       7.17211398       5.07144934      12.42246442       0.00000063       0.00000015      -0.00000003
As       0.00000184      -0.00000067       0.00000143      -0.00001012       0.00000274      -0.00000969
I        2.32238848       1.64217689       8.28164272      -0.00478314      -0.00338252       0.00000031
I        7.24042852       5.11975640       8.28164294       0.00478734       0.00338446       0.00000051
I        6.01091884       1.64217628       6.15206794       0.00239067      -0.00338223      -0.00414088
I        3.55189832       5.11975683      10.41121741      -0.00238973       0.00338297       0.00414194
I        3.55189745       5.11975771       6.15206827      -0.00238924       0.00337916      -0.00413915
I        6.01091879       1.64217685      10.41121597       0.00239409      -0.00338482       0.00414692
