9
Lattice="7.37188830985135 2.651395653738457e-07 4.2561614478600145 2.4572963503510152 6.950282932896284 4.256161452898204 -2.791531965591048e-08 -1.3568559607561322e-08 8.512322944070617" Properties=species:S:1:pos:R:3:forces:R:3 energy=-23.21735382080078 free_energy=-23.21735382080078 stress="0.00016935152234509587 -1.8045624994300624e-09 -5.691390025930332e-09 -1.8045624994300624e-09 0.00016936330939643085 1.2491743639486685e-08 -5.691390025930332e-09 1.2491743639486685e-08 0.0001693716476438567" pbc="T T T"
Rb       2.45729627       1.73757071       4.25616148      -0.00000015       0.00000019       0.00000023
Rb       7.37188839       5.21271252      12.76848469       0.00000000      -0.00000003       0.00000003
Bi      -0.00000025      -0.00000003      -0.00000030       0.00000271      -0.00000145      -0.00000049
I        2.50772597       1.77322993       8.51232302      -0.00565153      -0.00399617      -0.00000018
I        7.32145870       5.17705314       8.51232278       0.00565054       0.00399601       0.00000038
I        6.11802521       1.77322990       6.42791604       0.00282550      -0.00399700      -0.00489551
I        3.71115932       5.17705345      10.59672954      -0.00282639       0.00399782       0.00489627
I        3.71115969       5.17705250       6.42791564      -0.00282599       0.00399623      -0.00489540
I        6.11802526       1.77323064      10.59673051       0.00282541      -0.00399562       0.00489464
