9
Lattice="6.584876863227772 -1.0538545420426707e-07 3.8017803297342314 2.194958890641342 6.208280852461333 3.8017802680899018 3.698608261572702e-08 -4.9345494920920526e-08 7.603560595406752" Properties=species:S:1:pos:R:3:forces:R:3 energy=-29.283960342407227 free_energy=-29.283960342407227 stress="0.00016146375855896622 1.1476322114845061e-09 4.993710334133539e-09 1.1476322114845061e-09 0.00016147356654983014 7.827276049532372e-10 4.993710334133539e-09 7.827276049532372e-10 0.0001614521606825292" pbc="T T T"
Rb       2.19495884       1.55207039       3.80178035      -0.00000060       0.00000039       0.00000000
Rb       6.58487693       4.65621041      11.40534093       0.00000038      -0.00000023       0.00000029
Bi      -0.00000026       0.00000026       0.00000110       0.00000320      -0.00000384      -0.00001051
Cl       2.17240886       1.53612505       7.60356072      -0.00256762      -0.00181603      -0.00000057
Cl       6.60742694       4.67215557       7.60356046       0.00256759       0.00181635       0.00000062
Cl       5.49867277       1.53612477       5.68314146       0.00128075      -0.00181311      -0.00221947
Cl       3.28116350       4.67215517       9.52397921      -0.00128520       0.00181885       0.00222644
Cl       3.28116339       4.67215595       5.68314132      -0.00128368       0.00181484      -0.00222200
Cl       5.49867223       1.53612534       9.52397935       0.00128514      -0.00181709       0.00222519
