9
Lattice="5.732279194338757 1.4833230062353752e-07 3.309533259338326 1.9107598379982769 5.404445016951952 3.309533317010459 3.3551613668672254e-08 9.435831425894498e-08 6.6190664605635146" Properties=species:S:1:pos:R:3:forces:R:3 energy=-39.394813537597656 free_energy=-39.394813537597656 stress="-7.273322353285039e-06 7.151870651256331e-09 -1.3614965155284153e-08 7.151870651256331e-09 -7.291602287295973e-06 -4.9263856993775335e-08 -1.3614965155284153e-08 -4.9263856993775335e-08 -7.2629977694305126e-06" pbc="T T T"
Rb       1.91075975       1.35111126       3.30953328      -0.00000028      -0.00000002      -0.00000021
Rb       5.73227916       4.05333406       9.92859893       0.00000039       0.00000019       0.00000004
Bi      -0.00000003      -0.00000001      -0.00000006      -0.00000028      -0.00000228       0.00000403
F        1.77196699       1.25296948       6.61906639       0.00024027       0.00016832      -0.00000062
F        5.87107224       4.15147544       6.61906694      -0.00023919      -0.00016981      -0.00000113
F        4.84629591       1.25296982       4.84410141      -0.00012028       0.00017083       0.00020826
F        2.79674330       4.15147572       8.39403186       0.00012109      -0.00017005      -0.00020915
F        2.79674323       4.15147540       4.84410194       0.00011864      -0.00016809       0.00020599
F        4.84629587       1.25296999       8.39403177      -0.00012004       0.00017095      -0.00020695
