9
Lattice="6.3721786571324275 1.393479101441116e-07 3.6789792356408024 2.124059622980151 6.00774826509757 3.6789793409084552 8.872322490779501e-08 1.9166261290815213e-07 7.357958317608579" Properties=species:S:1:pos:R:3:forces:R:3 energy=-28.767667770385742 free_energy=-28.767667770385742 stress="-7.724895112914965e-06 -5.213484310928607e-09 -1.4291098970886651e-08 -5.213484310928607e-09 -7.739496140857227e-06 1.0012279005877645e-08 -1.4291098970886651e-08 1.0012279005877645e-08 -7.713521881669294e-06" pbc="T T T"
Rb       2.12405977       1.50193733       3.67897902      -0.00000007      -0.00000008      -0.00000014
Rb       6.37217884       4.50581136      11.03693717      -0.00000022      -0.00000010       0.00000058
Ga      -0.00000038       0.00000080       0.00000160       0.00000500      -0.00000511      -0.00001710
Cl       1.93566974       1.36872478       7.35795855       0.00314182       0.00222281      -0.00000126
Cl       6.56056974       4.63902392       7.35795876      -0.00314814      -0.00222680      -0.00000221
Cl       5.40434383       1.36872448       5.35531770      -0.00157529       0.00223249       0.00272942
Cl       3.09189483       4.63902301       9.36059812       0.00156805      -0.00221586      -0.00271595
Cl       3.09189392       4.63902388       5.35531790       0.00157699      -0.00222722       0.00272632
Cl       5.40434332       1.36872517       9.36059827      -0.00156811       0.00222006      -0.00272006
