9
Lattice="5.583020204915331 3.6281821226402916e-07 3.22335804081698 1.8610068912212037 5.263723168790359 3.2233583626645603 -2.628175127590543e-07 2.0834112490436318e-07 6.4467165368472" Properties=species:S:1:pos:R:3:forces:R:3 energy=-39.63351821899414 free_energy=-39.63351821899414 stress="7.291662768693641e-05 2.6370260641783716e-08 3.2379880110511294e-08 2.6370260641783716e-08 7.303665188373998e-05 2.5492264299487033e-08 3.2379880110511294e-08 2.5492264299487033e-08 7.284143794095144e-05" pbc="T T T"
Rb       1.86100652       1.31593176       3.22335705       0.00000076      -0.00000047       0.00000170
Rb       5.58302045       3.94779302       9.67007707      -0.00000228       0.00000120      -0.00000227
Ga       0.00000023       0.00000008      -0.00000043      -0.00000167      -0.00000208       0.00000900
F        1.57509809       1.11376330       6.44671663      -0.00316358      -0.00223523       0.00000025
F        5.86892898       4.14996062       6.44671624       0.00316191       0.00223809      -0.00000017
F        4.79547038       1.11376356       4.58743338       0.00158650      -0.00224179      -0.00274312
F        2.64855559       4.14995984       8.30599954      -0.00158131       0.00223708       0.00273907
F        2.64855583       4.14996033       4.58743313      -0.00158066       0.00223726      -0.00273752
F        4.79547058       1.11376277       8.30599948       0.00158054      -0.00223452       0.00273323
