9
Lattice="7.084583433839923 -4.808126498204384e-09 4.090286143217398 2.3615278332048026 6.679409196413775 4.090286097390855 2.3840348814610824e-08 -3.926816140031533e-08 8.180572245142116" Properties=species:S:1:pos:R:3:forces:R:3 energy=-21.950117111206055 free_energy=-21.950117111206055 stress="-0.00010974395991070196 1.0039560294217154e-09 -5.736458863481175e-09 1.0039560294217154e-09 -0.00010974421456921846 -7.969589398137966e-12 -5.736458863481175e-09 -7.969589398137966e-12 -0.00010973255848512053" pbc="T T T"
Rb       2.36152777       1.66985227       4.09028618      -0.00000011       0.00000008      -0.00000010
Rb       7.08458347       5.00955687      12.27085833       0.00000015       0.00000010       0.00000006
Ga       0.00000010      -0.00000002       0.00000006       0.00000001      -0.00000114      -0.00000065
I        2.28678773       1.61700308       8.18057228      -0.00478853      -0.00338408       0.00000039
I        7.15932326       5.06240611       8.18057227       0.00479107       0.00338546      -0.00000053
I        5.94118966       1.61700302       6.07070230       0.00239417      -0.00338601      -0.00414580
I        3.50492181       5.06240605      10.29044201      -0.00239560       0.00338636       0.00414716
I        3.50492180       5.06240619       6.07070247      -0.00239406       0.00338467      -0.00414780
I        5.94118957       1.61700304      10.29044204       0.00239300      -0.00338549       0.00414725
