9
Lattice="6.334820750150175 2.8751533695863096e-06 3.657410031966855 2.111609294096879 5.972529109768167 3.6574106093289873 9.634319122725234e-07 1.3883709454395784e-06 7.314818395220617" Properties=species:S:1:pos:R:3:forces:R:3 energy=-24.82474136352539 free_energy=-24.82474136352539 stress="-1.104713010136038e-05 2.3468803078685596e-07 -9.961121349988389e-08 2.3468803078685596e-07 -1.0828413905983325e-05 5.628756127862289e-08 -9.961121349988389e-08 5.628756127862289e-08 -1.108214109990513e-05" pbc="T T T"
Rb       2.11160888       1.49313508       3.65741059      -0.00000063       0.00000007       0.00000020
Rb       6.33482380       4.47939687      10.97222627       0.00000007       0.00000030       0.00000090
N       -0.00000673       0.00000263       0.00001012       0.00002565      -0.00001404      -0.00003279
Cl       1.76888705       1.25079512       7.31481948       0.00062225       0.00041863      -0.00000400
Cl       6.67754697       4.72174013       7.31482498      -0.00063290      -0.00043663      -0.00001133
Cl       5.45038621       1.25079014       5.18929783      -0.00034202       0.00047104       0.00058657
Cl       2.99604776       4.72174133       9.44032994       0.00031901      -0.00043394      -0.00053255
Cl       2.99604180       4.72174467       5.18929824       0.00034777      -0.00046568       0.00057300
Cl       5.45038944       1.25078781       9.44033876      -0.00033933       0.00046030      -0.00058035
