9
Lattice="5.0325129380638165 2.1246871842778533e-09 2.905523043651487 1.6775042816639876 4.744698991665367 2.9055231008562155 -2.6306737814239098e-08 5.1459537778036085e-08 5.811046132867509" Properties=species:S:1:pos:R:3:forces:R:3 energy=-33.251041412353516 free_energy=-33.251041412353516 stress="0.00016197790682781488 -4.6635438621933645e-08 2.3864767939585363e-08 -4.6635438621933645e-08 0.0001620632247067988 2.8340684465888444e-08 2.3864767939585363e-08 2.8340684465888444e-08 0.00016197825607378036" pbc="T T T"
Rb       1.67750452       1.18617547       2.90552323      -0.00000209      -0.00000221      -0.00000025
Rb       5.03251298       3.55852399       8.71656949      -0.00000037       0.00000164      -0.00000126
N        0.00000008       0.00000016       0.00000015      -0.00000493      -0.00000109      -0.00000326
F        1.36067587       0.96214384       5.81104603      -0.00654936      -0.00463372       0.00000020
F        5.34934117       3.78255549       5.81104650       0.00654864       0.00463384      -0.00000194
F        4.35217458       0.96214366       4.08390306       0.00327623      -0.00463372      -0.00566721
F        2.35784208       3.78255545       7.53818917      -0.00327265       0.00463420       0.00566876
F        2.35784241       3.78255520       4.08390243      -0.00327301       0.00463682      -0.00566697
F        4.35217489       0.96214335       7.53818926       0.00327736      -0.00463456       0.00567114
