9
Lattice="5.510614346960847 -2.593910633918284e-07 3.181554487557431 1.836871236429693 5.195456108715455 3.181554432133624 1.328219705214738e-07 2.6039305104603332e-08 6.363108745060458" Properties=species:S:1:pos:R:3:forces:R:3 energy=-40.83077621459961 free_energy=-40.83077621459961 stress="-4.3887586798518896e-05 -8.244732185858084e-08 5.671954639296928e-08 -8.244732185858084e-08 -4.384440399007872e-05 -6.583241685120811e-08 5.671954639296928e-08 -6.583241685120811e-08 -4.377712684799917e-05" pbc="T T T"
Rb       1.83687156       1.29886408       3.18155473      -0.00000011      -0.00000031      -0.00000079
Rb       5.51061385       3.89659160       9.54466232      -0.00000019       0.00000099       0.00000097
Sb       0.00000015       0.00000014       0.00000018      -0.00000536       0.00000521       0.00000727
F        1.67829268       1.18673220       6.36310891       0.00086102       0.00060797      -0.00000061
F        5.66919283       4.00872384       6.36310891      -0.00085968      -0.00060827      -0.00000003
F        4.67146810       1.18673224       4.63499906      -0.00042690       0.00060332       0.00073904
F        2.67601801       4.00872369       8.09121877       0.00043033      -0.00060800      -0.00074518
F        2.67601783       4.00872357       4.63499931       0.00042588      -0.00060230       0.00073662
F        4.67146782       1.18673247       8.09121874      -0.00042486       0.00060141      -0.00073737
