9
Lattice="6.740751850917925 -3.494945998693949e-07 3.891775181718975 2.246916864029405 6.355242382851372 3.8917753377823057 -1.878415932091607e-07 5.831370953046523e-08 7.783550688789368" Properties=species:S:1:pos:R:3:forces:R:3 energy=-26.28367805480957 free_energy=-26.28367805480957 stress="4.802285911864601e-05 -4.006018627933372e-08 -1.7299559118555408e-08 -4.006018627933372e-08 4.80654816783499e-05 1.7464104828945892e-08 -1.7299559118555408e-08 1.7464104828945892e-08 4.808243102161214e-05" pbc="T T T"
Rb       2.24691692       1.58881049       3.89177518       0.00000048       0.00000003       0.00000022
Rb       6.74075142       4.76643106      11.67532570      -0.00000033       0.00000031       0.00000036
Sb      -0.00000220       0.00000055       0.00000159       0.00002484      -0.00000511      -0.00001755
Br       2.22971774       1.57664909       7.78355125      -0.00065208      -0.00046086       0.00000053
Br       6.75795203       4.77859396       7.78355088       0.00063983       0.00045379       0.00000000
Br       5.62589298       1.57664868       5.82276759       0.00032115      -0.00045621      -0.00055818
Br       3.36177699       4.77859205       9.74433191      -0.00033211       0.00046774       0.00057267
Br       3.36177536       4.77859323       5.82276770      -0.00032568       0.00046020      -0.00056162
Br       5.62589280       1.57664913       9.74433297       0.00032394      -0.00045991       0.00056349
