9
Lattice="7.372268126631594 -5.937329876117466e-07 4.256381507170909 2.4574220921514343 6.950641175672316 4.2563816058094766 -4.1553693506236165e-09 1.1786876367790362e-07 8.512763021539065" Properties=species:S:1:pos:R:3:forces:R:3 energy=-30.060361862182617 free_energy=-30.060361862182617 stress="0.00015876951511017978 1.1312188519241317e-08 -5.810001368899975e-09 1.1312188519241317e-08 0.0001587473670952022 1.0722439824917274e-08 -5.810001368899975e-09 1.0722439824917274e-08 0.0001587486476637423" pbc="T T T"
Rb       2.45742277       1.73765995       4.25638316      -0.00000001      -0.00000067      -0.00000000
Rb       7.37226712       5.21298075      12.76914332       0.00000010      -0.00000002      -0.00000019
Y        0.00000029       0.00000065       0.00000190      -0.00000005      -0.00000370      -0.00001309
I        2.46650566       1.74408284       8.51276366      -0.00529432      -0.00374363      -0.00000069
I        7.36318426       5.20655779       8.51276303       0.00529616       0.00374436      -0.00000010
I        6.13901600       1.74408146       6.39243711       0.00264340      -0.00373837      -0.00457884
I        3.69067529       5.20655812      10.63308740      -0.00264907       0.00374664       0.00458883
I        3.69067413       5.20655928       6.39243725      -0.00264452       0.00373957      -0.00458124
I        6.13901533       1.74408196      10.63308772       0.00264838      -0.00374420       0.00458530
