9
Lattice="6.643337694922495 -3.097960257274731e-07 3.835532439626764 2.2144455223902852 6.263399678608202 3.835532584839848 -6.259821687510465e-07 -2.6478731348991303e-07 7.671065963486543" Properties=species:S:1:pos:R:3:forces:R:3 energy=-37.34141540527344 free_energy=-37.34141540527344 stress="2.9322964110178873e-05 -2.9356288067106107e-08 1.0781495696221555e-08 -2.9356288067106107e-08 2.9366621674853377e-05 -1.5287911381278718e-08 1.0781495696221555e-08 -1.5287911381278718e-08 2.9371551136136986e-05" pbc="T T T"
Rb       2.21444556       1.56584987       3.83553265      -0.00000022      -0.00000020      -0.00000012
Rb       6.64333693       4.69754927      11.50659800       0.00000010       0.00000021       0.00000022
Y       -0.00000013       0.00000089       0.00000062      -0.00000150      -0.00000988      -0.00001385
Cl       2.13865958       1.51226082       7.67106645       0.00069310       0.00048932      -0.00000014
Cl       6.71912303       4.75113745       7.67106480      -0.00068757      -0.00048448      -0.00000046
Cl       5.57400688       1.51226131       5.68766653      -0.00034692       0.00048795       0.00059961
Cl       3.28377612       4.75113702       9.65446403       0.00034060      -0.00047950      -0.00058994
Cl       3.28377560       4.75113813       5.68766747       0.00034369      -0.00048602       0.00059599
Cl       5.57400673       1.51226164       9.65446325      -0.00034129       0.00048253      -0.00059140
