9
Lattice="6.887363227327677 4.993335595638454e-08 3.976421032930145 2.295787985004147 6.493467957254387 3.9764206943420044 2.18510364743273e-07 -2.6017396230625356e-07 7.952841687389223" Properties=species:S:1:pos:R:3:forces:R:3 energy=-34.100189208984375 free_energy=-34.100189208984375 stress="0.00012713405885733664 3.263443559831103e-08 4.250801310945462e-08 3.263443559831103e-08 0.00012710066221188754 -5.823668658422321e-08 4.250801310945462e-08 -5.823668658422321e-08 0.00012708910799119622" pbc="T T T"
Rb       2.29578773       1.62336686       3.97642077       0.00000024       0.00000121      -0.00000094
Rb       6.88736373       4.87010081      11.92926242      -0.00000068      -0.00000116       0.00000130
Y       -0.00000048       0.00000029       0.00000048       0.00000542      -0.00000185      -0.00000724
Br       2.27318501       1.60738401       7.95284146      -0.00208122      -0.00147170       0.00000052
Br       6.90996660       4.88608398       7.95284176       0.00207962       0.00146996       0.00000019
Br       5.75077129       1.60738331       5.94505564       0.00103655      -0.00146481      -0.00179436
Br       3.43238009       4.88608410       9.96062749      -0.00103930       0.00146772       0.00179975
Br       3.43238039       4.88608379       5.94505662      -0.00104168       0.00147204      -0.00180270
Br       5.75077140       1.60738385       9.96062703       0.00104104      -0.00147144       0.00180339
