9
Lattice="4.297613108312118 1.078968154952801e-07 2.4812282572265123 1.4325378038039822 4.051828894868998 2.481228258426484 5.976990204638768e-08 4.373338001557459e-08 4.962456410928521" Properties=species:S:1:pos:R:3:forces:R:3 energy=-58.80424499511719 free_energy=-58.80424499511719 stress="-1.1223995898035355e-05 -2.41789365418299e-07 -2.453868717111618e-07 -2.41789365418299e-07 -1.217699536937289e-05 -1.5635369265964982e-07 -2.453868717111618e-07 -1.5635369265964982e-07 -1.2024472198390868e-05" pbc="T T T"
Re       1.43254302       1.01295849       2.48123021       0.00018036       0.00001868       0.00006705
Re       4.29762504       3.03886829       7.44368969       0.00032351      -0.00008820       0.00013847
As      -0.00000025      -0.00000010      -0.00000045      -0.00000813       0.00000637       0.00001977
O        1.44740984       1.02347883       4.96245612      -0.00004518       0.00010979      -0.00002218
O        4.28273738       3.02835316       4.96245377      -0.00007486      -0.00001836      -0.00006454
O        3.57390356       1.02347600       3.73472287      -0.00010645       0.00003248      -0.00001699
O        2.15624033       3.02835386       6.19018607      -0.00009239      -0.00003088      -0.00010777
O        2.15624087       3.02835279       3.73472514      -0.00008184      -0.00004667       0.00003886
O        3.57390422       1.02347493       6.19018818      -0.00009429       0.00001746      -0.00005132
