9
Lattice="1.694205064939841 -0.2736861538347972 2.494064231320576 0.03595807139889803 2.9136241120907664 2.6564983190010456 -2.048778551860586 0.3760844079232046 4.029909261203642" Properties=species:S:1:pos:R:3:forces:R:3 energy=-61502684.0 free_energy=-61502684.0 stress="5934052.5 -47775.390625 2586597.5 -47775.390625 -39540.72265625 1568493.375 2586597.5 1568493.375 1714380.875" pbc="T T T"
Re      -2.02138337      -1.08414650       0.34934666 -84722096.00000000 -83166744.00000000 -10381480.00000000
Re      -2.18274035      -1.12631963       6.07740482 103234704.00000000 -14823882.00000000 -129420472.00000000
As      -0.38444774      -3.05655803      -1.75314678 -3630563.00000000 -23871582.00000000 -455348.50000000
Se      -1.57711145      -0.97802646       2.68305347 19988902.00000000 109038296.00000000 179734768.00000000
Se      -2.33324506       1.16059100       2.65718314 7403000.00000000 107912656.00000000 78027864.00000000
Se       0.73656490      -2.42778094      -0.30997780 -29551476.00000000 13387069.00000000 -33852076.00000000
Se      -1.77682546      -0.50085901       2.99719687 104617936.00000000 -184458976.00000000 -75627416.00000000
Se      -1.08764780      -0.56969821       2.69497686 -129835760.00000000 3104081.25000000 83154872.00000000
Se      -1.30121188      -0.95039495       3.43124527 12495305.00000000 72879024.00000000 -91180640.00000000
