9
Lattice="4.289416844246212 7.87900326196715e-08 2.4764963945556624 1.4298057521936445 4.044100592521458 2.476496285157752 2.608515384941755e-07 5.046531342412778e-08 4.952992337303251" Properties=species:S:1:pos:R:3:forces:R:3 energy=-54.09709930419922 free_energy=-54.09709930419922 stress="0.00036782847018912435 -7.229707534861518e-07 -1.4439621054407326e-06 -7.229707534861518e-07 0.00036968273343518376 -1.2279618886168464e-06 -1.4439621054407326e-06 -1.2279618886168464e-06 0.00036569792428053916" pbc="T T T"
Re       1.42980921       1.01101591       2.47649942       0.00015596      -0.00030772       0.00016631
Re       4.28942892       3.03307895       7.42950645       0.00041308       0.00008625       0.00061869
Ga       0.00000048      -0.00000023       0.00000074       0.00002009      -0.00000491       0.00002254
O        1.49446246       1.05674739       4.95299073       0.00581920       0.00422978      -0.00008533
O        4.22475635       2.98735764       4.95298430      -0.00597966      -0.00405735      -0.00028119
O        3.54218319       1.05674613       3.77073859      -0.00302309       0.00419259       0.00501484
O        2.17703184       2.98735938       6.13523784       0.00272804      -0.00403953      -0.00533754
O        2.17703761       2.98735674       3.77073999       0.00292784      -0.00411010       0.00508863
O        3.54218131       1.05674099       6.13524197      -0.00306201       0.00401145      -0.00520569
