9
Lattice="6.049171277146445 -1.0696128153649466e-07 3.492490557936568 2.016390319554928 5.703213480089175 3.492490567145009 -2.2891460222308476e-08 -4.908709244878215e-09 6.984981155522312" Properties=species:S:1:pos:R:3:forces:R:3 energy=-34.71696853637695 free_energy=-34.71696853637695 stress="8.003746916074306e-05 3.175456697590562e-08 -1.9607513390695885e-09 3.175456697590562e-08 7.994703628355637e-05 1.9880177504205676e-08 -1.9607513390695885e-09 1.9880177504205676e-08 8.009721204871312e-05" pbc="T T T"
Re       2.01639219       1.42580594       3.49249019       0.00001906       0.00002745      -0.00000251
Re       6.04916986       4.27740880      10.47747129      -0.00001478      -0.00001522      -0.00000380
Ga       0.00000006       0.00000008      -0.00000000      -0.00000287       0.00000042       0.00000340
Te       2.14070395       1.51370623       6.98498099      -0.00231000      -0.00163238       0.00000098
Te       5.92485732       4.18950644       6.98498128       0.00231533       0.00163249       0.00000095
Te       4.97881899       1.51370687       5.34639448       0.00115405      -0.00163254      -0.00200919
Te       3.08674266       4.18950596       8.62356836      -0.00115372       0.00162235       0.00200919
Te       3.08674247       4.18950611       5.34639417      -0.00115724       0.00162427      -0.00200975
Te       4.97881882       1.51370704       8.62356831       0.00115015      -0.00162676       0.00201062
