9
Lattice="5.060133502942218 1.9900847354697608e-07 2.921469985182621 1.6867114101415626 4.770739709782944 2.921469890149895 5.704503077370213e-07 2.869785270811499e-07 5.842938982316347" Properties=species:S:1:pos:R:3:forces:R:3 energy=-40.23932647705078 free_energy=-40.23932647705078 stress="-4.937252015224658e-05 -1.7773025717815472e-07 -7.483958484044706e-07 -1.7773025717815472e-07 -4.9615489842835814e-05 -5.37800758593221e-07 -7.483958484044706e-07 -5.37800758593221e-07 -4.964820254826918e-05" pbc="T T T"
Re       1.68670696       1.19268914       2.92146470      -0.00003770       0.00003428      -0.00001517
Re       5.06013143       3.57805730       8.76441995      -0.00002525       0.00002459       0.00005979
Ga      -0.00000121       0.00000002       0.00000246       0.00002948      -0.00001090      -0.00003922
Se       1.86600058       1.31945842       5.84294142       0.00049111       0.00032356       0.00000844
Se       4.88084846       3.45127839       5.84293491      -0.00049010      -0.00036365      -0.00002938
Se       4.12713755       1.31946033       4.53747098      -0.00023828       0.00036201       0.00043646
Se       2.61971010       3.45127921       7.14840570       0.00023644      -0.00033882      -0.00041580
Se       2.61971222       3.45127879       4.53747029       0.00025932      -0.00036183       0.00041616
Se       4.12713569       1.31945947       7.14840508      -0.00022446       0.00033075      -0.00042185
