9
Lattice="1.783660362971191 0.4720994892459387 0.29002069242508444 0.26333439801748565 4.702118000441587 0.89116057804275 -0.350229919656698 -0.5278884736024327 1.8073019414942635" Properties=species:S:1:pos:R:3:forces:R:3 energy=-17009555456.0 free_energy=-17009555456.0 stress="0.0 54926240.0 505670464.0 54926240.0 0.0 -162244208.0 505670464.0 -162244208.0 0.0" pbc="T T T"
Re      -0.45097413       2.54607854       0.86752608 5370448896.00000000 -8324743168.00000000 -2215956992.00000000
Re       1.80692949       2.22970163       2.09086223 -5211382784.00000000 13188253696.00000000 6248881152.00000000
N        0.57419926       1.00214175       0.05130272 4666742272.00000000 7665837056.00000000 -15080547328.00000000
O       -0.72884456       4.25409914       2.58706679 -6308882944.00000000 5388717056.00000000 -7578563584.00000000
O        0.91329943       6.19286573       0.98361618 -1092868864.00000000 -28874276864.00000000 -7401851904.00000000
O        0.13080688       0.35922907       1.42399573 12491871232.00000000 10848254976.00000000 19921080320.00000000
O       -0.30904857       1.83453541       2.72360220 2356363776.00000000 -9817929728.00000000 -2778659840.00000000
O        2.17383407       4.08222053       0.68616234 -4065414400.00000000 12036293632.00000000 3545516032.00000000
O       -0.86975756      -0.14863711       0.84848973 -8206871040.00000000 -2110405632.00000000 5340098048.00000000
