9
Lattice="6.39744219792137 5.775974971975646e-09 3.693564889986219 2.1324807412365074 6.031566283077714 3.6935648845295543 -1.3820481612687227e-08 -1.645554741443322e-08 7.387129803910191" Properties=species:S:1:pos:R:3:forces:R:3 energy=-20.702274322509766 free_energy=-20.702274322509766 stress="0.00019431080727372319 -3.1491143026585178e-09 -1.0942046158035623e-09 -3.1491143026585178e-09 0.00019431105465628207 1.2671517168882929e-09 -1.0942046158035623e-09 1.2671517168882929e-09 0.00019430801330599934" pbc="T T T"
Rh       2.13248090       1.50789144       3.69356500       0.00000063      -0.00000005       0.00000037
Rh       6.39744223       4.52367466      11.08069440      -0.00000016      -0.00000025      -0.00000037
Au      -0.00000006      -0.00000007      -0.00000020      -0.00000076       0.00000088       0.00000199
I        2.26383481       1.60077305       7.38712974      -0.00302197      -0.00213615       0.00000042
I        6.26608828       4.43079340       7.38712996       0.00302131       0.00213637       0.00000023
I        5.26552459       1.60077287       5.65410320       0.00151077      -0.00213720      -0.00261821
I        3.26439809       4.43079358       9.12015648      -0.00150941       0.00213570       0.00261591
I        3.26439804       4.43079338       5.65410328      -0.00151071       0.00213675      -0.00261720
I        5.26552482       1.60077274       9.12015640       0.00151028      -0.00213610       0.00261701
