9
Lattice="5.890260645318817 1.2640753107691896e-08 3.400743588129026 1.9634202508394145 5.553391044768093 3.4007435468796663 2.4313429756419988e-08 -3.332779551068083e-08 6.801487134145965" Properties=species:S:1:pos:R:3:forces:R:3 energy=-25.67798614501953 free_energy=-25.67798614501953 stress="0.00015572784468531609 2.1348606438209572e-08 -3.733130249372607e-09 2.1348606438209572e-08 0.0001557656069053337 7.182805461525277e-09 -3.733130249372607e-09 7.182805461525277e-09 0.00015570875257253647" pbc="T T T"
Rh       1.96342015       1.38834725       3.40074367      -0.00000117      -0.00000044       0.00000054
Rh       5.89026053       4.16504335      10.20223009      -0.00000046      -0.00000016       0.00000102
As       0.00000040      -0.00000009       0.00000021      -0.00000375       0.00000071       0.00000191
Br       2.01607378       1.42557935       6.80148728       0.00047317       0.00033515      -0.00000058
Br       5.83760705       4.12781156       6.80148722      -0.00046950      -0.00033048       0.00000006
Br       4.88222384       1.42557956       5.14671486      -0.00023462       0.00033163       0.00040749
Br       2.97145700       4.12781199       8.45625996       0.00023733      -0.00033578      -0.00041289
Br       2.97145706       4.12781160       5.14671445       0.00023632      -0.00033425       0.00041190
Br       4.88222389       1.42557954       8.45625931      -0.00023730       0.00033385      -0.00040947
