9
Lattice="5.486533964989318 4.9548797939235e-08 3.167651775524733 1.8288446943803294 5.172753854041353 3.1676517882227233 -1.4956550299738393e-08 4.9759086593280405e-09 6.3353035769549715" Properties=species:S:1:pos:R:3:forces:R:3 energy=-29.323455810546875 free_energy=-29.323455810546875 stress="0.00022694715880788863 4.425650956818572e-08 -1.109700331625163e-08 4.425650956818572e-08 0.000226942531298846 -4.934981312487707e-09 -1.109700331625163e-08 -4.934981312487707e-09 0.00022689740580972284" pbc="T T T"
Rh       1.82884473       1.29318847       3.16765189      -0.00000045       0.00000008       0.00000065
Rh       5.48653403       3.87956541       9.50295523       0.00000058       0.00000023      -0.00000019
As       0.00000003      -0.00000006      -0.00000056      -0.00000220       0.00000339       0.00000647
Cl       1.88564597       1.33335339       6.33530370      -0.00118631      -0.00083871       0.00000044
Cl       5.42973255       3.83940056       6.33530362       0.00118665       0.00084017       0.00000050
Cl       4.54371103       1.33335307       4.80066897       0.00059313      -0.00084025      -0.00102729
Cl       2.77166752       3.83940103       7.86993837      -0.00059036       0.00083444       0.00102144
Cl       2.77166755       3.83940086       4.80066893      -0.00059179       0.00083613      -0.00102498
Cl       4.54371118       1.33335286       7.86993842       0.00059075      -0.00083567       0.00102304
