9
Lattice="6.495012000586209 7.427810242308026e-09 3.7498969555394335 2.1650039840567787 6.12355598365111 3.7498969956219113 -1.7538542764111196e-08 3.668915377638664e-08 7.499793941456495" Properties=species:S:1:pos:R:3:forces:R:3 energy=-22.53868865966797 free_energy=-22.53868865966797 stress="4.845252988161519e-05 -4.128506425615797e-09 9.64991020424577e-09 -4.128506425615797e-09 4.845049625146203e-05 -3.354567068569736e-09 9.64991020424577e-09 -3.354567068569736e-09 4.844574868911877e-05" pbc="T T T"
Rh       2.16500398       1.53088918       3.74989698      -0.00000068       0.00000010       0.00000032
Rh       6.49501224       4.59266677      11.24969030       0.00000083      -0.00000111      -0.00000193
As      -0.00000003      -0.00000003      -0.00000045       0.00000064       0.00000028       0.00000192
I        2.27319282       1.60739076       7.49979356      -0.00079496      -0.00056068       0.00000030
I        6.38682330       4.51616548       7.49979427       0.00079381       0.00056140       0.00000095
I        5.35841517       1.60739036       5.71854019       0.00039720      -0.00056231      -0.00068873
I        3.30160042       4.51616608       9.28104838      -0.00039562       0.00056059       0.00068707
I        3.30160046       4.51616571       5.71854029      -0.00039757       0.00056344      -0.00068758
I        5.35841549       1.60738980       9.28104804       0.00039640      -0.00056170       0.00068775
