9
Lattice="5.400199901112608 -1.0088814497460609e-07 3.1178072604753417 1.8000662694358844 5.091359724940182 3.1178077266569906 -1.1165185239836807e-06 -2.1854431533654287e-07 6.235616454817625" Properties=species:S:1:pos:R:3:forces:R:3 energy=-35.44185256958008 free_energy=-35.44185256958008 stress="0.00036304074455983937 7.083912834104922e-08 3.228380762720917e-07 7.083912834104922e-08 0.00036201204056851566 1.792647168485928e-07 3.228380762720917e-07 1.792647168485928e-07 0.000362865423085168" pbc="T T T"
Rh       1.80006336       1.27282783       3.11780352      -0.00004002      -0.00017271      -0.00006416
Rh       5.40020224       3.81853557       9.35342765       0.00004774       0.00022262       0.00006248
As       0.00000029       0.00000050      -0.00000064      -0.00000188       0.00001194       0.00000180
S        1.90004723       1.34352754       6.23562048      -0.00609183      -0.00442040       0.00004557
S        5.30021631       3.74783499       6.23560913       0.00607002       0.00444639      -0.00006627
S        4.45017797       1.34352389       4.76330139       0.00307521      -0.00446045      -0.00523174
S        2.75008437       3.74782795       7.70793544      -0.00309491       0.00437772       0.00527614
S        2.75009075       3.74783555       4.76329920      -0.00302756       0.00445700      -0.00525433
S        4.45017773       1.34352372       7.70792954       0.00306341      -0.00446212       0.00523061
