9
Lattice="5.616781725229969 -1.6994678516698046e-08 3.2428505348403402 1.872260571297937 5.295552753651198 3.2428505136330723 1.3291818889250688e-08 -1.657475885472719e-08 6.485701046658588" Properties=species:S:1:pos:R:3:forces:R:3 energy=-24.846324920654297 free_energy=-24.846324920654297 stress="0.00017832283629104495 -3.9797309892009025e-10 -5.322394525109075e-09 -3.9797309892009025e-10 0.00017828465206548572 2.2199386773280594e-09 -5.322394525109075e-09 2.2199386773280594e-09 0.00017831310105975717" pbc="T T T"
Rh       1.87226067       1.32388817       3.24285060       0.00000019      -0.00000001      -0.00000060
Rh       5.61678161       3.97166435       9.72855168      -0.00000023      -0.00000157       0.00000104
Au       0.00000000      -0.00000009       0.00000017       0.00000145       0.00000252       0.00000108
Cl       1.95780714       1.38437876       6.48570090       0.00257388       0.00182074       0.00000059
Cl       5.53123523       3.91117409       6.48570106      -0.00257489      -0.00182046      -0.00000047
Cl       4.63787815       1.38437886       4.93836111      -0.00128713       0.00182050       0.00222930
Cl       2.85116401       3.91117410       8.03304079       0.00128727      -0.00182195      -0.00223103
Cl       2.85116422       3.91117398       4.93836126       0.00128733      -0.00182053       0.00223088
Cl       4.63787818       1.38437865       8.03304080      -0.00128765       0.00182062      -0.00223064
