9
Lattice="4.069859294529649 -3.338686744964983e-09 2.349734377807495 1.3566197407956377 3.8371002973697155 2.349734414007072 -5.718105864289895e-08 3.902131614743257e-09 4.699468854655488" Properties=species:S:1:pos:R:3:forces:R:3 energy=-46.45136260986328 free_energy=-46.45136260986328 stress="-4.911917494609952e-05 -2.2907784114067908e-07 -3.786895774737786e-08 -2.2907784114067908e-07 -4.913989323540591e-05 -4.485061566583681e-08 -3.786895774737786e-08 -4.485061566583681e-08 -4.9126359954243526e-05" pbc="T T T"
Rh       1.35661976       0.95927511       2.34973447       0.00000030      -0.00000166       0.00000332
Rh       4.06985927       2.87782519       7.04920325      -0.00000111       0.00000243      -0.00000216
As      -0.00000003       0.00000001       0.00000005      -0.00000632      -0.00000271      -0.00002409
O        1.42287654       1.00612577       4.69946888      -0.00071681      -0.00050569      -0.00000589
O        4.00360233       2.83097452       4.69946891       0.00071812       0.00050223      -0.00000976
O        3.35842094       1.00612573       3.58198170       0.00035840      -0.00049841      -0.00061882
O        2.06805814       2.83097437       5.81695568      -0.00037014       0.00052154       0.00064361
O        2.06805807       2.83097456       3.58198179      -0.00035250       0.00050259      -0.00062180
O        3.35842091       1.00612595       5.81695576       0.00036961      -0.00052011       0.00063610
