9
Lattice="5.966848565079993 5.351623156803832e-08 3.4449616420431473 1.9889495483268398 5.625598854015051 3.4449616833042023 -5.794182930137963e-09 4.643715830205432e-08 6.889923294122118" Properties=species:S:1:pos:R:3:forces:R:3 energy=-22.609859466552734 free_energy=-22.609859466552734 stress="0.0002325851673958823 1.2652480840813496e-08 -1.5529312946682694e-08 1.2652480840813496e-08 0.0002325416571693495 -2.1603877797815585e-08 -1.5529312946682694e-08 -2.1603877797815585e-08 0.00023255076666828245" pbc="T T T"
Rh       1.98894945       1.40639955       3.44496175      -0.00000067       0.00000020      -0.00000019
Rh       5.96684883       4.21919949      10.33488491       0.00000047      -0.00000014      -0.00000002
Au      -0.00000014      -0.00000011      -0.00000010       0.00000176      -0.00000116       0.00000259
Br       2.06422972       1.45963096       6.88992324       0.00419991       0.00296982      -0.00000046
Br       5.89156835       4.16596807       6.88992346      -0.00419851      -0.00296910       0.00000040
Br       4.93473380       1.45963073       5.23263716      -0.00210014       0.00296949       0.00363907
Br       3.02106441       4.16596823       8.54720952       0.00209985      -0.00296973      -0.00363930
Br       3.02106445       4.16596806       5.23263706       0.00209878      -0.00296943       0.00363640
Br       4.93473360       1.45963084       8.54720955      -0.00210141       0.00297013      -0.00363837
