9
Lattice="4.8590279051555365 -4.073331219662672e-07 2.8053612660784735 1.6196759154614981 4.581134764516334 2.8053606925728296 1.4248880532776142e-07 -6.016432906510213e-07 5.610722285359071" Properties=species:S:1:pos:R:3:forces:R:3 energy=-39.792728424072266 free_energy=-39.792728424072266 stress="-0.00014730657858308405 -3.209307664064909e-08 -4.5635701440005505e-08 -3.209307664064909e-08 -0.0001472643343731761 5.52096039996286e-08 -4.5635701440005505e-08 5.52096039996286e-08 -0.00014724275388289243" pbc="T T T"
Rh       1.61967560       1.14528341       2.80536302      -0.00000057      -0.00000062       0.00000102
Rh       4.85902723       3.43585171       8.41608355      -0.00000026      -0.00000014      -0.00000101
As       0.00000059      -0.00000036      -0.00000125      -0.00000228       0.00000053       0.00002092
F        1.48744581       1.05178340       5.61072259       0.00193444       0.00136667      -0.00000227
F        4.99125757       3.52935116       5.61072206      -0.00193238      -0.00136858      -0.00000069
F        4.11530540       1.05178200       4.09352638      -0.00096363       0.00136408       0.00166714
F        2.36339984       3.52934967       7.12791582       0.00096670      -0.00136578      -0.00167683
F        2.36339906       3.52935210       4.09352672       0.00096498      -0.00136557       0.00167030
F        4.11530446       1.05178228       7.12791717      -0.00096691       0.00136942      -0.00167874
