9
Lattice="6.17833268259331 -6.867641450331504e-08 3.5670620492628604 2.0594442099507586 5.824987890167735 3.56706196756475 4.611339827061485e-09 -9.679859486160256e-08 7.1341240905386645" Properties=species:S:1:pos:R:3:forces:R:3 energy=-23.41632080078125 free_energy=-23.41632080078125 stress="6.997453601798043e-05 3.8627208098773735e-09 -5.429987126603919e-09 3.8627208098773735e-09 6.999947800068185e-05 -1.9145888430216473e-08 -5.429987126603919e-09 -1.9145888430216473e-08 6.996819865889847e-05" pbc="T T T"
Rh       2.05944369       1.45624679       3.56706206      -0.00000189       0.00000041       0.00000113
Rh       6.17833282       4.36874086      10.70118618       0.00000023       0.00000096       0.00000112
B       -0.00000022       0.00000005       0.00000040       0.00000091      -0.00000134      -0.00000409
I        1.98955468       1.40682750       7.13412404      -0.00286739      -0.00202761       0.00000067
I        6.24822241       4.41816026       7.13412398       0.00286775       0.00202682       0.00000161
I        5.18355570       1.40682747       5.29006683       0.00143388      -0.00202757      -0.00248296
I        3.05422144       4.41816040       8.97818093      -0.00143316       0.00202834       0.00248233
I        3.05422174       4.41816010       5.29006669      -0.00143552       0.00202635      -0.00248360
I        5.18355531       1.40682742       8.97818132       0.00143511      -0.00202643       0.00248404
