9
Lattice="4.27279652792114 -7.238226210032525e-09 2.4669002778201095 1.4242655022475696 4.0284312154400554 2.4669002782275418 2.5589861073172283e-08 1.8593771353334898e-08 4.933800511317281" Properties=species:S:1:pos:R:3:forces:R:3 energy=-42.365447998046875 free_energy=-42.365447998046875 stress="0.0006113220006227493 -1.8712178473379026e-08 -2.6343700554321003e-08 -1.8712178473379026e-08 0.0006112324190326035 -6.080401249164424e-08 -2.6343700554321003e-08 -6.080401249164424e-08 0.0006113398703746498" pbc="T T T"
Rh       1.42426528       1.00710796       2.46690029       0.00000013      -0.00000054      -0.00000044
Rh       4.27279662       3.02132356       7.40070076      -0.00000008       0.00000027       0.00000074
Be       0.00000009      -0.00000028      -0.00000017      -0.00000012       0.00000069      -0.00000030
F        1.38700775       0.98076258       4.93380039       0.00111789       0.00078979       0.00000078
F        4.31005413       3.04766849       4.93380067      -0.00111657      -0.00078881      -0.00000059
F        3.57929269       0.98076264       3.66808443      -0.00055876       0.00079024       0.00096709
F        2.11776944       3.04766859       6.19951677       0.00055832      -0.00079024      -0.00096756
F        2.11776948       3.04766867       3.66808436       0.00056010      -0.00078946       0.00096732
F        3.57929265       0.98076283       6.19951678      -0.00056010       0.00078791      -0.00096607
