9
Lattice="6.205339113101129 1.5909384844374267e-08 3.5826541932478473 2.068446362350443 5.850449881773752 3.582654234267596 -3.774546085351841e-08 2.354862476666667e-08 7.165308451872736" Properties=species:S:1:pos:R:3:forces:R:3 energy=-22.817798614501953 free_energy=-22.817798614501953 stress="-0.0003270547604188323 -1.779801528378755e-09 -5.977399908374537e-09 -1.779801528378755e-09 -0.0003270688175689429 -2.5904158817979805e-09 -5.977399908374537e-09 -2.5904158817979805e-09 -0.00032706334604881704" pbc="T T T"
Rh       2.06844660       1.46261191       3.58265425       0.00000118      -0.00000170       0.00000004
Rh       6.20533883       4.38783774      10.74796325      -0.00000013       0.00000162       0.00000109
Be      -0.00000017      -0.00000002      -0.00000006       0.00000090      -0.00000034      -0.00000016
I        2.05637364       1.45407589       7.16530825       0.00731753       0.00517443      -0.00000035
I        6.21741197       4.39637444       7.16530832      -0.00731901      -0.00517510       0.00000057
I        5.17715213       1.45407570       5.36352585      -0.00365947       0.00517484       0.00633786
I        3.09663310       4.39637422       8.96709093       0.00365913      -0.00517391      -0.00633796
I        3.09663351       4.39637428       5.36352577       0.00365947      -0.00517411       0.00633760
I        5.17715214       1.45407553       8.96709094      -0.00365955       0.00517432      -0.00633863
