9
Lattice="5.732984127725328 -6.992675576102052e-08 3.309939974457941 1.9109946723297613 5.405109175663141 3.309939924201515 1.8625245656738388e-08 -4.8381224291742625e-08 6.619879916655964" Properties=species:S:1:pos:R:3:forces:R:3 energy=-26.27644157409668 free_energy=-26.27644157409668 stress="0.00021411347552202642 1.0081643075920965e-08 -2.5559192540214326e-09 1.0081643075920965e-08 0.0002141223376384005 5.2169562003712144e-09 -2.5559192540214326e-09 5.2169562003712144e-09 0.00021415446826722473" pbc="T T T"
Rh       1.91099466       1.35127717       3.30993990      -0.00000105      -0.00000069      -0.00000063
Rh       5.73298409       4.05383227       9.92981985       0.00000088       0.00000094       0.00000056
Be      -0.00000008       0.00000004       0.00000015       0.00000070      -0.00000088       0.00000027
Br       1.88095005       1.33003217       6.61987997       0.00219170       0.00154958       0.00000021
Br       5.76302886       4.07507665       6.61988004      -0.00219125      -0.00154931       0.00000053
Br       4.79250921       1.33003209       4.93889044      -0.00109744       0.00155140       0.00189839
Br       2.85146961       4.07507670       8.30086925       0.00109322      -0.00154918      -0.00189773
Br       2.85146965       4.07507683       4.93889041       0.00109816      -0.00154998       0.00189729
Br       4.79250922       1.33003228       8.30086930      -0.00109500       0.00154820      -0.00189896
