9
Lattice="5.252696259775789 -4.13003761685375e-08 3.0326455740230167 1.7508987075617566 4.952289480628129 3.03264558572897 2.9559943278677955e-08 3.523887998111067e-08 6.065291096846648" Properties=species:S:1:pos:R:3:forces:R:3 energy=-29.019285202026367 free_energy=-29.019285202026367 stress="0.00016536557814106345 -6.1455551758626825e-09 5.134311198418118e-09 -6.1455551758626825e-09 0.00016541978402528912 1.8721664218901424e-08 5.134311198418118e-09 1.8721664218901424e-08 0.00016540770593564957" pbc="T T T"
Rh       1.75089871       1.23807209       3.03264576      -0.00000022      -0.00000092       0.00000020
Rh       5.25269641       3.71421728       9.09793585       0.00000129      -0.00000001      -0.00000333
Be       0.00000024      -0.00000004      -0.00000013      -0.00000336       0.00000104       0.00000209
Cl       1.72943119       1.22289228       6.06529132      -0.00323482      -0.00228553       0.00000243
Cl       5.27416385       3.72939671       6.06529119       0.00323641       0.00229127       0.00000418
Cl       4.38798017       1.22289325       4.53037752       0.00161979      -0.00229330      -0.00280761
Cl       2.61561409       3.72939698       7.60020557      -0.00161699       0.00228591       0.00279861
Cl       2.61561461       3.72939681       4.53037679      -0.00162027       0.00228905      -0.00280089
Cl       4.38798074       1.22289253       7.60020518       0.00161831      -0.00228764       0.00280400
