9
Lattice="6.229193571279643 8.801743661057309e-09 3.5964265913010918 2.0763978661264226 5.872940028557357 3.596426590028287 5.548879820151974e-09 2.3647906630103693e-09 7.19285317299124" Properties=species:S:1:pos:R:3:forces:R:3 energy=-25.143274307250977 free_energy=-25.143274307250977 stress="0.00016544872778467834 -8.551320762606451e-11 -2.652104091893648e-09 -8.551320762606451e-11 0.00016544046229682863 1.1874619065821435e-09 -2.652104091893648e-09 1.1874619065821435e-09 0.00016545577091164887" pbc="T T T"
Rh       2.07639781       1.46823487       3.59642656       0.00000041      -0.00000004      -0.00000088
Rh       6.22919351       4.40470518      10.78927975      -0.00000000      -0.00000018       0.00000105
Co       0.00000002      -0.00000000      -0.00000000      -0.00000033      -0.00000012       0.00000006
I        2.07814069       1.46946735       7.19285317       0.00550000       0.00388990       0.00000070
I        6.22745076       4.40347263       7.19285321      -0.00550002      -0.00388914      -0.00000045
I        5.19012332       1.46946735       5.39614926      -0.00274943       0.00388908       0.00476339
I        3.11546821       4.40347272       8.98955714       0.00274984      -0.00388990      -0.00476515
I        3.11546821       4.40347271       5.39614921       0.00275041      -0.00388876       0.00476453
I        5.19012324       1.46946736       8.98955711      -0.00275076       0.00388917      -0.00476342
