9
Lattice="4.464414589417283 -3.554601939198185e-08 2.577530965178582 1.4881381638048932 4.2090903409697065 2.5775309637139947 3.9628924777976395e-08 2.6228117361164846e-08 5.155061861717876" Properties=species:S:1:pos:R:3:forces:R:3 energy=-40.72650909423828 free_energy=-40.72650909423828 stress="1.0164031891690684e-06 8.526895101113041e-08 -2.3270314564172168e-09 8.526895101113041e-08 9.326213898930291e-07 7.369230115017444e-09 -2.3270314564172168e-09 7.369230115017444e-09 8.881460757947934e-07" pbc="T T T"
Rh       1.48813828       1.05227232       2.57753112       0.00000095      -0.00000064      -0.00000043
Rh       4.46441418       3.15681780       7.73259285      -0.00000018       0.00000040      -0.00000130
Co       0.00000009       0.00000006      -0.00000029      -0.00000018       0.00000090       0.00001976
F        1.48159991       1.04764927       5.15506177      -0.00012589      -0.00008866       0.00000080
F        4.47095292       3.16144112       5.15506191       0.00012649       0.00008916       0.00000034
F        3.72361478       1.04764910       3.86063387       0.00006388      -0.00009024      -0.00010979
F        2.22893816       3.16144121       6.44948997      -0.00005822       0.00008165       0.00009923
F        2.22893821       3.16144116       3.86063392      -0.00006482       0.00009003      -0.00010956
F        3.72361476       1.04764919       6.44948999       0.00005788      -0.00008269       0.00010073
