9
Lattice="5.488767326267128 -1.9551109597357544e-08 3.16894134669427 1.829589096641955 5.174859355267995 3.1689413357490914 -3.7758990844530915e-08 -4.010470841404959e-08 6.337882758789035" Properties=species:S:1:pos:R:3:forces:R:3 energy=-34.97262954711914 free_energy=-34.97262954711914 stress="0.0001516497868578881 1.9509215576363204e-08 1.4830686678735105e-09 1.9509215576363204e-08 0.0001516973425168544 -4.93707519311215e-09 1.4830686678735105e-09 -4.93707519311215e-09 0.0001516950287623331" pbc="T T T"
Rh       1.82958878       1.29371483       3.16894116      -0.00000139       0.00000021      -0.00000027
Rh       5.48876745       3.88114431       9.50682447       0.00000120      -0.00000123       0.00000075
Cr      -0.00000006      -0.00000000      -0.00000007       0.00000056      -0.00000129      -0.00000056
Cl       1.83805396       1.29970048       6.33788274      -0.00065860      -0.00046696      -0.00000015
Cl       5.48030227       3.87515910       6.33788281       0.00065923       0.00046828       0.00000081
Cl       4.56974068       1.29970082       4.76074271       0.00033001      -0.00046414      -0.00057185
Cl       2.74861588       3.87515860       7.91502263      -0.00032980       0.00046547       0.00057252
Cl       2.74861605       3.87515892       4.76074300      -0.00032955       0.00046767      -0.00057180
Cl       4.56974055       1.29970012       7.91502235       0.00032814      -0.00046785       0.00057016
