9
Lattice="4.611538140420296 -1.5012143636024538e-07 2.6624726619490318 1.537179291268284 4.347799616486535 2.6624725707322945 6.141110006021564e-08 -6.82930682418956e-08 5.324945217530936" Properties=species:S:1:pos:R:3:forces:R:3 energy=-44.816673278808594 free_energy=-44.816673278808594 stress="-0.0007077480549924076 -1.5944334563755547e-07 -3.372378643007323e-08 -1.5944334563755547e-07 -0.0007076651672832668 9.111400345318543e-08 -3.372378643007323e-08 9.111400345318543e-08 -0.0007074646418914199" pbc="T T T"
Rh       1.53717909       1.08694964       2.66247189      -0.00000198       0.00000029      -0.00000087
Rh       4.61153820       3.26084934       7.98741692       0.00000135      -0.00000177      -0.00000255
Cr       0.00000003       0.00000010      -0.00000008       0.00000351      -0.00000455      -0.00000492
F        1.54976800       1.09585095       5.32494586       0.00694232       0.00490800      -0.00000083
F        4.59894988       3.25194855       5.32494543      -0.00694307      -0.00490892       0.00000035
F        3.83665427       1.09585147       4.00461162      -0.00346794       0.00490539       0.00600661
F        2.31206317       3.25194814       6.64527915       0.00346403      -0.00489773      -0.00599956
F        2.31206327       3.25194815       4.00461105       0.00346849      -0.00490645       0.00600778
F        3.83665428       1.09585165       6.64527976      -0.00346656       0.00490595      -0.00600593
