9
Lattice="5.387459807353519 -8.550057102719036e-08 3.1104513532645286 1.795819833680172 5.079345867639743 3.1104513904925826 -5.2902216932176576e-08 8.1873685550359e-09 6.220902798158365" Properties=species:S:1:pos:R:3:forces:R:3 energy=-28.080623626708984 free_energy=-28.080623626708984 stress="0.00028196992934681475 -1.7422394193999935e-08 1.3166114420926078e-08 -1.7422394193999935e-08 0.00028198366635479033 -1.4943200454808903e-08 1.3166114420926078e-08 -1.4943200454808903e-08 0.00028195802588015795" pbc="T T T"
Rh       1.79581977       1.26983632       3.11045118      -0.00000063      -0.00000115      -0.00000465
Rh       5.38745974       3.80950939       9.33135391       0.00000012      -0.00000024      -0.00000456
C        0.00000300       0.00000304       0.00002048       0.00005757       0.00005848       0.00040627
Cl       1.74040811       1.23065437       6.22090196       0.00004539       0.00003199      -0.00001436
Cl       5.44286887       3.84868941       6.22090178      -0.00010182      -0.00007118      -0.00001283
Cl       4.51725713       1.23065201       4.61768567       0.00000668      -0.00001571      -0.00003122
Cl       2.66602678       3.84868682       7.82411063       0.00008284      -0.00011940      -0.00015874
Cl       2.66602229       3.84869341       4.61768578      -0.00000732       0.00000535      -0.00002566
Cl       4.51725263       1.23065828       7.82411084      -0.00008258       0.00011198      -0.00015387
