9
Lattice="5.830427166225292 -3.0183916026092625e-08 3.366198675692833 1.9434757229744186 5.496979354182682 3.3661986248449742 1.0167666560161584e-08 -5.508598187580847e-08 6.732397333774722" Properties=species:S:1:pos:R:3:forces:R:3 energy=-24.754493713378906 free_energy=-24.754493713378906 stress="0.00017010362353175879 -1.1736674965234783e-09 1.0760153879019185e-09 -1.1736674965234783e-09 0.00017012462194543332 7.339753249624437e-09 1.0760153879019185e-09 7.339753249624437e-09 0.00017014403420034796" pbc="T T T"
Rh       1.94347564       1.37424486       3.36619874      -0.00000002      -0.00000037       0.00000096
Rh       5.83042708       4.12273446      10.09859581       0.00000068       0.00000038      -0.00000129
Cu       0.00000014      -0.00000008      -0.00000005       0.00000003       0.00000068      -0.00000279
Br       1.96345250       1.38837058       6.73239728       0.00044471       0.00031398      -0.00000129
Br       5.81045039       4.10860883       6.73239731      -0.00044486      -0.00031385       0.00000060
Br       4.84870097       1.38837049       5.06659836      -0.00022274       0.00031358       0.00038525
Br       2.92520184       4.10860875       8.39819620       0.00022236      -0.00031359      -0.00038388
Br       2.92520201       4.10860870       5.06659855       0.00022191      -0.00031389       0.00038558
Br       4.84870100       1.38837048       8.39819634      -0.00022189       0.00031300      -0.00038338
