9
Lattice="6.215220172782323 -7.204074005813246e-09 3.5883590399062513 2.0717400530212897 5.859765813546225 3.588359036062346 2.8261800273957932e-08 1.527635339377862e-08 7.176718030861624" Properties=species:S:1:pos:R:3:forces:R:3 energy=-22.324481964111328 free_energy=-22.324481964111328 stress="-3.532063419697806e-05 -1.7342898228633885e-09 -1.0706234510049484e-10 -1.7342898228633885e-09 -3.5333650885149837e-05 -5.9893512371900215e-09 -1.0706234510049484e-10 -5.9893512371900215e-09 -3.532884147716686e-05" pbc="T T T"
Rh       2.07173981       1.46494128       3.58835900      -0.00000091       0.00000029       0.00000005
Rh       6.21522085       4.39482433      10.76507738       0.00000239      -0.00000010       0.00000160
Cu       0.00000016      -0.00000012       0.00000029      -0.00000097      -0.00000084      -0.00000367
I        2.12954584       1.50581668       7.17671834      -0.00163749      -0.00115695      -0.00000048
I        6.15741394       4.35394909       7.17671788       0.00163860       0.00115865      -0.00000177
I        5.15044729       1.50581622       5.43260014       0.00081770      -0.00115697      -0.00141704
I        3.13651312       4.35394928       8.92083568      -0.00082062       0.00116012       0.00141920
I        3.13651302       4.35394976       5.43260016      -0.00081839       0.00115651      -0.00141732
I        5.15044699       1.50581677       8.92083558       0.00081968      -0.00116073       0.00141947
