9
Lattice="4.48006551296054 -3.4021979067979848e-09 2.586567150941922 1.4933551616689742 4.223846358332837 2.5865671615251786 4.494232996002668e-08 4.474082192558308e-08 5.1731342240414095" Properties=species:S:1:pos:R:3:forces:R:3 energy=-37.09498596191406 free_energy=-37.09498596191406 stress="-0.0004561418609227985 2.5636641698412177e-09 1.7466220469941618e-08 2.5636641698412177e-09 -0.0004561145033221692 2.708565283171538e-08 1.7466220469941618e-08 2.708565283171538e-08 -0.0004560431989375502" pbc="T T T"
Rh       1.49335530       1.05596166       2.58656716      -0.00000061       0.00000098      -0.00000030
Rh       4.48006526       3.16788469       7.75970131       0.00000024      -0.00000087      -0.00000107
Cu      -0.00000000      -0.00000002      -0.00000006      -0.00000030      -0.00000172      -0.00000135
F        1.52011576       1.07488418       5.17313411       0.00370741       0.00262240       0.00000031
F        4.45330481       3.14896210       5.17313442      -0.00370179      -0.00261861       0.00000052
F        3.72000771       1.07488413       3.90302626      -0.00185405       0.00261912       0.00320891
F        2.25341308       3.14896229       6.44324247       0.00185126      -0.00261997      -0.00320801
F        2.25341329       3.14896215       3.90302614       0.00185187      -0.00262113       0.00320871
F        3.72000758       1.07488444       6.44324240      -0.00185401       0.00261967      -0.00320777
