9
Lattice="5.861000619806535 3.5601869468640425e-08 3.3838503120527452 1.9536669290532678 5.525804377893771 3.383850273568879 1.3052223789822532e-08 -3.7903593207795564e-08 6.767700601498353" Properties=species:S:1:pos:R:3:forces:R:3 energy=-32.236026763916016 free_energy=-32.236026763916016 stress="0.0003947411314584315 -6.744852676376922e-09 3.788375391167165e-09 -6.744852676376922e-09 0.0003947288205381483 -2.9157943615132353e-08 3.788375391167165e-09 -2.9157943615132353e-08 0.0003947613586205989" pbc="T T T"
Rh       1.95366716       1.38145141       3.38385016      -0.00000018       0.00000093      -0.00000094
Rh       5.86100043       4.14435306      10.15155105       0.00000003      -0.00000103       0.00000064
Cr      -0.00000001      -0.00000022       0.00000002      -0.00000208       0.00000138      -0.00000255
Br       1.94466653       1.37508697       6.76770059      -0.00392978      -0.00277795      -0.00000108
Br       5.87000106       4.15071743       6.76770053       0.00393075       0.00278048       0.00000018
Br       4.88866736       1.37508690       5.06798105       0.00196402      -0.00277736      -0.00340525
Br       2.92600015       4.15071743       8.46742018      -0.00196417       0.00277763       0.00340341
Br       2.92600025       4.15071765       5.06798109      -0.00196446       0.00277771      -0.00340265
Br       4.88866731       1.37508687       8.46742007       0.00196585      -0.00278181       0.00340811
