9
Lattice="5.758323856705082 2.6286993472217368e-08 3.3245698203647565 1.9194413159665418 5.428999808016533 3.3245698106400563 -4.2510067101714925e-08 -4.196946710721799e-08 6.649139714359124" Properties=species:S:1:pos:R:3:forces:R:3 energy=-25.51144027709961 free_energy=-25.51144027709961 stress="0.00014378239575307816 2.2947089561853318e-08 -1.3183958813556274e-08 2.2947089561853318e-08 0.00014381860091816634 4.652353169376511e-09 -1.3183958813556274e-08 4.652353169376511e-09 0.00014379245112650096" pbc="T T T"
Rh       1.91944128       1.35725013       3.32456989       0.00000034       0.00000199       0.00000028
Rh       5.75832375       4.07174969       9.97370948      -0.00000046      -0.00000110      -0.00000132
C        0.00000017      -0.00000096      -0.00000018       0.00000059      -0.00000567      -0.00000286
Br       1.88287893       1.33139611       6.64913977       0.00115211       0.00081433       0.00000030
Br       5.79488663       4.09760340       6.64913984      -0.00114909      -0.00081119       0.00000007
Br       4.81688448       1.33139687       4.95519043      -0.00057675       0.00081538       0.00099868
Br       2.86088050       4.09760368       8.34308883       0.00057459      -0.00081327      -0.00099494
Br       2.86088036       4.09760360       4.95519047       0.00057574      -0.00081424       0.00099698
Br       4.81688441       1.33139661       8.34308884      -0.00057704       0.00081374      -0.00099718
