9
Lattice="5.8323924498286726 2.1627882873755767e-08 3.3673332502495055 1.944130832859728 5.49883218115201 3.3673332574215467 -2.2529032680910665e-08 -7.146502682986634e-09 6.734666539520444" Properties=species:S:1:pos:R:3:forces:R:3 energy=-27.64440155029297 free_energy=-27.64440155029297 stress="0.00024034451053012162 3.760165068200649e-09 -3.0026547914729917e-09 3.760165068200649e-09 0.0002403350081294775 -1.1671019706227526e-09 -3.0026547914729917e-09 -1.1671019706227526e-09 0.00024033682711888105" pbc="T T T"
Rh       1.94413073       1.37470802       3.36733320       0.00000022      -0.00000004       0.00000013
Rh       5.83239234       4.12412422      10.10199958      -0.00000029       0.00000024      -0.00000067
Co       0.00000001      -0.00000005       0.00000006       0.00000036      -0.00000027       0.00000109
Br       1.94795554       1.37741225       6.73466651      -0.00015424      -0.00010891      -0.00000001
Br       5.82856795       4.12141985       6.73466641       0.00015275       0.00010838      -0.00000086
Br       4.85841481       1.37741236       5.05431203       0.00007674      -0.00010825      -0.00013350
Br       2.91810876       4.12141974       8.41502122      -0.00007600       0.00010835       0.00013304
Br       2.91810827       4.12141984       5.05431211      -0.00007685       0.00010806      -0.00013302
Br       4.85841462       1.37741253       8.41502108       0.00007730      -0.00010754       0.00013380
