9
Lattice="4.24007394489599 -1.2625142014152724e-07 2.448007430230035 1.4133579153149414 3.9975788492312865 2.448007338926737 -1.9206411325654465e-08 -1.254041829091541e-07 4.896014893726484" Properties=species:S:1:pos:R:3:forces:R:3 energy=-40.84271240234375 free_energy=-40.84271240234375 stress="1.035430068441201e-05 1.7413962893897406e-07 -2.0072583595265314e-07 1.7413962893897406e-07 1.0113864846061915e-05 -1.5590574387047695e-09 -2.0072583595265314e-07 -1.5590574387047695e-09 1.0663194188964553e-05" pbc="T T T"
Rh       1.41335851       0.99939395       2.44800686      -0.00000358       0.00000471      -0.00000084
Rh       4.24007246       2.99818396       7.34402262       0.00000088      -0.00000025      -0.00000313
C       -0.00000175       0.00000021      -0.00000147       0.00000775      -0.00000289       0.00001235
F        1.27906795       0.90443803       4.89601512       0.00053304       0.00038862      -0.00000717
F        4.37436587       3.09314152       4.89601593      -0.00054061      -0.00038615      -0.00000879
F        3.60053968       0.90443736       3.55571245      -0.00026524       0.00038317       0.00046799
F        2.05289138       3.09314251       6.23631648       0.00026852      -0.00039274      -0.00045976
F        2.05289236       3.09314186       3.55571290       0.00027069      -0.00038967       0.00046924
F        3.60054073       0.90443521       6.23631805      -0.00027072       0.00039563      -0.00046924
