9
Lattice="5.406490645028692 -4.423822130055992e-09 3.1214388250972283 1.8021635350936087 5.09728830701537 3.1214388408215568 6.745622369224303e-10 1.9735295854146028e-08 6.242877649026071" Properties=species:S:1:pos:R:3:forces:R:3 energy=-30.155242919921875 free_energy=-30.155242919921875 stress="0.00025684983120299876 -1.4421830396571522e-09 -1.0395933003337632e-09 -1.4421830396571522e-09 0.00025686336448416114 -2.7046214157167014e-09 -1.0395933003337632e-09 -2.7046214157167014e-09 0.00025685300352051854" pbc="T T T"
Rh       1.80216343       1.27432206       3.12143882       0.00000098      -0.00000014      -0.00000049
Rh       5.40649096       3.82296621       9.36431676       0.00000028      -0.00000019       0.00000126
Co       0.00000016       0.00000010      -0.00000015      -0.00000194       0.00000010       0.00000220
Cl       1.82091954       1.28758453       6.24287772      -0.00269565      -0.00190635      -0.00000034
Cl       5.38773449       3.80970372       6.24287759       0.00269753       0.00190721      -0.00000138
Cl       4.49603094       1.28758446       4.69840134       0.00134882      -0.00190687      -0.00233504
Cl       2.71262303       3.80970391       7.78735389      -0.00134851       0.00190555       0.00233400
Cl       2.71262315       3.80970382       4.69840140      -0.00134841       0.00190671      -0.00233492
Cl       4.49603098       1.28758449       7.78735390       0.00134701      -0.00190595       0.00233477
