9
Lattice="5.9286314540307705 -1.3710544395075197e-07 3.42289698881244 1.976210337668879 5.589567322193358 3.422897019545613 -3.123742247603388e-08 1.555212490297049e-08 6.845794031729663" Properties=species:S:1:pos:R:3:forces:R:3 energy=-30.79901885986328 free_energy=-30.79901885986328 stress="0.00019686164159793407 -3.079877686218424e-08 2.399352494464324e-09 -3.079877686218424e-08 0.00019690558838192374 4.680858367578367e-09 2.399352494464324e-09 4.680858367578367e-09 0.0001969592849491164" pbc="T T T"
Rh       1.97621035       1.39739158       3.42289675      -0.00000019      -0.00000060       0.00000074
Rh       5.92863126       4.19217549      10.26869079       0.00000040       0.00000048       0.00000201
Fe       0.00000018      -0.00000002       0.00000054      -0.00000319       0.00000267      -0.00002431
Br       1.84510635       1.30468750       6.84579299       0.00117150       0.00082835       0.00000218
Br       6.05973544       4.28487974       6.84579299      -0.00117204      -0.00082720       0.00000199
Br       5.00607841       1.30468680       5.02080658      -0.00058687       0.00082935       0.00101335
Br       2.89876368       4.28487956       8.67078243       0.00058246      -0.00082297      -0.00100794
Br       2.89876342       4.28488040       5.02080643       0.00058936      -0.00083186       0.00101653
Br       5.00607796       1.30468772       8.67078247      -0.00058120       0.00082184      -0.00100479
