9
Lattice="6.273616563357282 -8.843263320212996e-08 3.62207424997402 2.091205408158221 5.914822509803648 3.6220743012180994 -6.133712991242961e-08 1.9389033446887032e-08 7.244148606187088" Properties=species:S:1:pos:R:3:forces:R:3 energy=-27.481653213500977 free_energy=-27.481653213500977 stress="-1.2368578609311953e-05 -3.0847338905459765e-08 -2.4662920594664683e-09 -3.0847338905459765e-08 -1.2354595128272194e-05 8.026367348534791e-10 -2.4662920594664683e-09 8.026367348534791e-10 -1.232560407515848e-05" pbc="T T T"
Rh       2.09120568       1.47870550       3.62207432       0.00000001      -0.00000037       0.00000003
Rh       6.27361624       4.43611677      10.86622291      -0.00000009      -0.00000004       0.00000053
Fe      -0.00000003      -0.00000002      -0.00000015      -0.00000053      -0.00000000      -0.00000275
I        1.93985333       1.37168325       7.24414855       0.00583761       0.00412727      -0.00000032
I        6.42496894       4.54313937       7.24414863      -0.00583740      -0.00412723      -0.00000022
I        5.30368977       1.37168358       5.30203661      -0.00291677       0.00412673       0.00505216
I        3.06113193       4.54313882       9.18626051       0.00291616      -0.00412491      -0.00505101
I        3.06113195       4.54313892       5.30203664       0.00291731      -0.00412672       0.00505247
I        5.30368979       1.37168349       9.18626054      -0.00291621       0.00412502      -0.00505087
