9
Lattice="5.4735358623262815 -4.9664876097734885e-08 3.1601475127368217 1.8245118896225045 5.160499155282318 3.160147543327935 3.582646945521537e-08 6.27994281924632e-08 6.320294963420384" Properties=species:S:1:pos:R:3:forces:R:3 energy=-32.480865478515625 free_energy=-32.480865478515625 stress="0.00026275537675246596 -6.675159980318313e-09 -1.5000279907084746e-09 -6.675159980318313e-09 0.00026275007985532284 -2.5705508832629675e-09 -1.5000279907084746e-09 -2.5705508832629675e-09 0.00026278055156581104" pbc="T T T"
Rh       1.82451190       1.29012480       3.16014747       0.00000098      -0.00000017      -0.00000085
Rh       5.47353585       3.87037431       9.48044243       0.00000051      -0.00000071      -0.00000081
Fe      -0.00000018       0.00000003       0.00000009      -0.00000026       0.00000020       0.00000038
Cl       1.80173829       1.27402149       6.32029514      -0.00107047      -0.00075494      -0.00000004
Cl       5.49630975       3.88647771       6.32029524       0.00106931       0.00075509      -0.00000043
Cl       4.57266660       1.27402136       4.72049880       0.00053491      -0.00075644      -0.00092641
Cl       2.72538114       3.88647772       7.92009110      -0.00053497       0.00075732       0.00092661
Cl       2.72538121       3.88647772       4.72049872      -0.00053491       0.00075665      -0.00092566
Cl       4.57266660       1.27402149       7.92009115       0.00053506      -0.00075716       0.00092706
