9
Lattice="4.680833218636811 2.430638692821967e-08 2.7024803420529775 1.5602778627588574 4.413131494474003 2.702480168333513 2.6856025388784276e-07 -2.2861256058868255e-08 5.404960218946033" Properties=species:S:1:pos:R:3:forces:R:3 energy=-41.56293869018555 free_energy=-41.56293869018555 stress="4.72019155495218e-06 6.075699054974848e-09 1.6003911085249456e-08 6.075699054974848e-09 4.665538654080592e-06 -5.441825656760102e-09 1.6003911085249456e-08 -5.441825656760102e-09 4.669792815548135e-06" pbc="T T T"
Rh       1.56027650       1.10328249       2.70247986      -0.00000074      -0.00000113      -0.00000015
Rh       4.68083423       3.30984871       8.10744003       0.00000215       0.00000002      -0.00000084
Ge      -0.00000010       0.00000018       0.00000015      -0.00000550       0.00000312       0.00000416
F        1.50199530       1.06207040       5.40496032       0.00102293       0.00072595       0.00000002
F        4.73911632       3.35106085       5.40496031      -0.00102168      -0.00072217       0.00000050
F        3.92983587       1.06207074       4.00324668      -0.00051065       0.00072229       0.00088096
F        2.31127584       3.35106090       6.80667499       0.00051272      -0.00072590      -0.00088981
F        2.31127542       3.35106077       4.00324565       0.00051129      -0.00072518       0.00088742
F        3.92983607       1.06207073       6.80667470      -0.00051023       0.00072315      -0.00088215
