9
Lattice="5.874847060384448 -8.937067854034606e-08 3.3918445212611497 1.9582823005248506 5.538858776855374 3.3918444670083683 8.075798725851776e-08 -9.341296194548469e-09 6.783688902645353" Properties=species:S:1:pos:R:3:forces:R:3 energy=-25.382741928100586 free_energy=-25.382741928100586 stress="6.742466939613223e-05 -5.9894635917601136e-09 -7.525380318895714e-09 -5.9894635917601136e-09 6.745025893906131e-05 -1.1794345944338147e-08 -7.525380318895714e-09 -1.1794345944338147e-08 6.744047277607024e-05" pbc="T T T"
Rh       1.95828184       1.38471456       3.39184443      -0.00000450       0.00000075       0.00000077
Rh       5.87484717       4.15414371      10.17553340      -0.00000221      -0.00000169      -0.00000041
Ga       0.00000001       0.00000003       0.00000017       0.00000284      -0.00000200      -0.00000065
Br       2.00660368       1.41888307       6.78368881       0.00054052       0.00038026      -0.00000103
Br       5.82652593       4.11997578       6.78368888      -0.00053915      -0.00038338       0.00000096
Br       4.87154532       1.41888296       5.12961411      -0.00027005       0.00038329       0.00046986
Br       2.96158420       4.11997566       8.43776368       0.00027008      -0.00037992      -0.00046551
Br       2.96158427       4.11997603       5.12961425       0.00027154      -0.00038017       0.00046557
Br       4.87154543       1.41888290       8.43776374      -0.00026907       0.00038294      -0.00046977
