9
Lattice="5.520321354885381 -1.6862799149925956e-08 3.187159032758003 1.8401070913001982 5.204608758198454 3.1871590519777815 2.516036564667841e-08 4.1330391148295394e-08 6.374318021936983" Properties=species:S:1:pos:R:3:forces:R:3 energy=-29.909120559692383 free_energy=-29.909120559692383 stress="0.0003106359508819878 -3.6329986130567704e-08 -4.066723846563036e-09 -3.6329986130567704e-08 0.0003106767835561186 1.2075661359745027e-08 -4.066723846563036e-09 1.2075661359745027e-08 0.00031070783734321594" pbc="T T T"
Rh       1.84010711       1.30115219       3.18715899      -0.00000073       0.00000093       0.00000013
Rh       5.52032148       3.90345666       9.56147703       0.00000032       0.00000010      -0.00000076
Ge      -0.00000014      -0.00000008      -0.00000006       0.00000107       0.00000163      -0.00000385
Cl       1.84574650       1.30513975       6.37431790      -0.00124986      -0.00088425       0.00000037
Cl       5.51468217       3.89946894       6.37431784       0.00124668       0.00088219       0.00000076
Cl       4.59744795       1.30513979       4.78562253       0.00062639      -0.00088625      -0.00108474
Cl       2.76298029       3.89946892       7.96301388      -0.00062480       0.00088643       0.00108497
Cl       2.76298030       3.89946910       4.78562253      -0.00062553       0.00088500      -0.00108278
Cl       4.59744824       1.30513992       7.96301377       0.00062650      -0.00088572       0.00108580
