9
Lattice="4.521888035319553 1.24963968963156e-07 2.6107133684748405 1.5072961179535989 4.26327720615963 2.6107133886302956 1.275380077988309e-07 1.1486827754834742e-07 5.22142651604734" Properties=species:S:1:pos:R:3:forces:R:3 energy=-40.41118240356445 free_energy=-40.41118240356445 stress="0.0002888725430238992 4.9679133695690325e-08 -1.1540231881213003e-08 4.9679133695690325e-08 0.00028895423747599125 5.150446824586652e-08 -1.1540231881213003e-08 5.150446824586652e-08 0.0002889003953896463" pbc="T T T"
Rh       1.50729623       1.06581938       2.61071322       0.00000146      -0.00000041      -0.00000045
Rh       4.52188797       3.19745798       7.83214029      -0.00000202      -0.00000038       0.00000194
Ga       0.00000001       0.00000004       0.00000012      -0.00000028       0.00000062      -0.00000225
F        1.52324727       1.07709851       5.22142651       0.00586191       0.00414513      -0.00000020
F        4.50593705       3.18617881       5.22142636      -0.00586066      -0.00414588      -0.00000080
F        3.76026464       1.07709859       3.92988400      -0.00293049       0.00414422       0.00507656
F        2.26891966       3.18617885       6.51296912       0.00293021      -0.00414306      -0.00507534
F        2.26891964       3.18617877       3.92988407       0.00293013      -0.00414532       0.00507599
F        3.76026452       1.07709881       6.51296937      -0.00293043       0.00414483      -0.00507572
