9
Lattice="5.895319714484363 4.173706968526819e-08 3.4036643608657102 1.9651066073666759 5.558160638707726 3.4036643668901374 -1.8586549333012454e-08 -5.764320956030101e-09 6.807328753924284" Properties=species:S:1:pos:R:3:forces:R:3 energy=-26.3648738861084 free_energy=-26.3648738861084 stress="0.00011157642438774928 8.152283292872653e-09 -4.039973688918508e-09 8.152283292872653e-09 0.00011158045526826754 -4.145628285101566e-09 -4.039973688918508e-09 -4.145628285101566e-09 0.0001116050043492578" pbc="T T T"
Rh       1.96510639       1.38953995       3.40366447      -0.00000037      -0.00000123      -0.00000020
Rh       5.89531983       4.16862117      10.21099303       0.00000091       0.00000121      -0.00000131
Ge      -0.00000012      -0.00000008      -0.00000020       0.00000084      -0.00000063       0.00000321
Br       1.96416435       1.38887388       6.80732876       0.00083971       0.00059355       0.00000045
Br       5.89626213       4.16928684       6.80732887      -0.00084020      -0.00059380       0.00000006
Br       4.91323741       1.38887385       5.10468049      -0.00041998       0.00059187       0.00072912
Br       2.94718884       4.16928681       8.50997710       0.00042177      -0.00059493      -0.00072884
Br       2.94718886       4.16928665       5.10468042       0.00041924      -0.00059178       0.00072809
Br       4.91323753       1.38887365       8.50997704      -0.00042203       0.00059565      -0.00073062
