9
Lattice="5.499732919971065 -3.8765748357144954e-08 3.1752724110715773 1.8332442966950382 5.18519781318102 3.1752723650220154 9.119586437784568e-08 8.086276442686673e-09 6.350544664187278" Properties=species:S:1:pos:R:3:forces:R:3 energy=-28.38728141784668 free_energy=-28.38728141784668 stress="0.00022804552281741053 -1.0804000361019916e-08 9.798047095888052e-11 -1.0804000361019916e-08 0.00022804179752711207 4.217859839172888e-09 9.798047095888052e-11 4.217859839172888e-09 0.00022804462059866637" pbc="T T T"
Rh       1.83324443       1.29629944       3.17527216      -0.00000006       0.00000065      -0.00000202
Rh       5.49973284       3.88889825       9.52581733       0.00000050      -0.00000004       0.00000060
Ga      -0.00000015      -0.00000021       0.00000015       0.00000222       0.00000331      -0.00000175
Cl       1.88735201       1.33455964       6.35054482      -0.00243321      -0.00171894      -0.00000059
Cl       5.44562566       3.85063844       6.35054442       0.00242782       0.00171503       0.00000085
Cl       4.55605681       1.33455924       4.80976720       0.00121483      -0.00171810      -0.00210306
Cl       2.77692060       3.85063841       7.89132227      -0.00121450       0.00171962       0.00210360
Cl       2.77692075       3.85063856       4.80976729      -0.00121401       0.00171840      -0.00210392
Cl       4.55605630       1.33455935       7.89132216       0.00121649      -0.00171971       0.00210592
