9
Lattice="6.382021197751704 -2.0665515454878784e-08 3.6846616938569903 2.1273403894770375 6.017027339498558 3.684661677038596 -2.583596426385578e-08 -3.8867034783568075e-08 7.369323432463189" Properties=species:S:1:pos:R:3:forces:R:3 energy=-21.859088897705078 free_energy=-21.859088897705078 stress="7.48188904253766e-05 -8.109489080254662e-09 -2.5609421250294417e-09 -8.109489080254662e-09 7.483204535674304e-05 5.0671555840153815e-09 -2.5609421250294417e-09 5.0671555840153815e-09 7.482703949790448e-05" pbc="T T T"
Rh       2.12734035       1.50425714       3.68466160      -0.00000005       0.00000095      -0.00000007
Rh       6.38202126       4.51277014      11.05398505       0.00000040      -0.00000059      -0.00000142
Ga       0.00000000      -0.00000008      -0.00000013       0.00000115       0.00000104       0.00000183
I        2.22263931       1.57164350       7.36932335      -0.00009130      -0.00006331       0.00000006
I        6.28672213       4.44538386       7.36932338       0.00009014       0.00006233       0.00000104
I        5.27070153       1.57164347       5.60952419       0.00004607      -0.00006498      -0.00007954
I        3.23866008       4.44538383       9.12912281      -0.00004469       0.00006307       0.00007866
I        3.23866015       4.44538387       5.60952422      -0.00004705       0.00006384      -0.00007927
I        5.27070142       1.57164341       9.12912275       0.00004543      -0.00006237       0.00007874
