9
Lattice="4.735185371561149 3.2458627840467254e-08 2.733860844634147 1.5783951547058392 4.464375762160587 2.7338608442014354 -8.727746797796575e-08 -6.22444667655558e-08 5.467721840437325" Properties=species:S:1:pos:R:3:forces:R:3 energy=-41.02444076538086 free_energy=-41.02444076538086 stress="-0.00034479450550861657 4.674071973909122e-08 1.117337444789257e-09 4.674071973909122e-08 -0.00034475396387279034 -1.4201748221864818e-08 1.117337444789257e-09 -1.4201748221864818e-08 -0.00034479700843803585" pbc="T T T"
Rh       1.57839537       1.11609403       2.73386078      -0.00000002       0.00000014       0.00000024
Rh       4.73518562       3.34828208       8.20158276       0.00000087       0.00000007       0.00000057
Ir      -0.00000020      -0.00000011       0.00000029      -0.00000017      -0.00000366      -0.00001604
F        1.61449653       1.14162121       5.46772154       0.00179891       0.00127185       0.00000141
F        4.69908333       3.32275419       5.46772164      -0.00179542      -0.00126843       0.00000088
F        3.92793724       1.14162183       4.13205599      -0.00090227       0.00127543       0.00156253
F        2.38564319       3.32275427       6.80338761       0.00089695      -0.00127157      -0.00155620
F        2.38564326       3.32275415       4.13205594       0.00089981      -0.00127373       0.00156209
F        3.92793726       1.14162146       6.80338733      -0.00089856       0.00127001      -0.00155548
