9
Lattice="5.586769014619206 1.9947923001317576e-08 3.2255225658596625 1.8622563575778457 5.2672563364807825 3.22552256488216 1.8697141584841403e-08 1.2023680431434643e-08 6.451045099334928" Properties=species:S:1:pos:R:3:forces:R:3 energy=-32.58238220214844 free_energy=-32.58238220214844 stress="6.776164082111791e-05 3.500508682918735e-08 5.694381854937092e-09 3.500508682918735e-08 6.771098560420796e-05 -2.039952873289508e-09 5.694381854937092e-09 -2.039952873289508e-09 6.771051994292066e-05" pbc="T T T"
Rh       1.86225636       1.31681404       3.22552266      -0.00000036      -0.00000068       0.00000045
Rh       5.58676900       3.95044231       9.67656777      -0.00000016       0.00000010       0.00000077
Ir      -0.00000004       0.00000005      -0.00000017      -0.00000159      -0.00000027       0.00000510
Cl       1.86783703       1.32076003       6.45104516       0.00150388       0.00106362       0.00000016
Cl       5.58118840       3.94649637       6.45104526      -0.00150132      -0.00106153      -0.00000043
Cl       4.65285050       1.32076031       4.84311668      -0.00075181       0.00106385       0.00130233
Cl       2.79617489       3.94649614       8.05897342       0.00075264      -0.00106579      -0.00130561
Cl       2.79617482       3.94649607       4.84311689       0.00075176      -0.00106433       0.00130230
Cl       4.65285062       1.32076015       8.05897337      -0.00075316       0.00106511      -0.00130498
