9
Lattice="5.959431448029344 -2.524432272513535e-08 3.440679356928104 1.9864771431348405 5.618605796241913 3.440679326457338 3.3108021569504837e-08 -1.3908038343533086e-08 6.8813586565114635" Properties=species:S:1:pos:R:3:forces:R:3 energy=-29.743730545043945 free_energy=-29.743730545043945 stress="0.0002932584611698985 -2.295706202914971e-08 -6.592752566092486e-09 -2.295706202914971e-08 0.0002932384959422052 -5.723812090963065e-09 -6.592752566092486e-09 -5.723812090963065e-09 0.0002932583156507462" pbc="T T T"
Rh       1.98647726       1.40465134       3.44067914       0.00000149      -0.00000174      -0.00000054
Rh       5.95943157       4.21395453      10.32203821       0.00000075       0.00000208       0.00000192
Ir       0.00000007       0.00000009       0.00000012      -0.00000167       0.00000135      -0.00000031
Br       1.98996948       1.40712079       6.88135865       0.00068050       0.00048218       0.00000009
Br       5.95593912       4.21148495       6.88135853      -0.00068145      -0.00048230      -0.00000099
Br       4.96444673       1.40712083       5.16404341      -0.00033998       0.00048133       0.00058819
Br       2.98146179       4.21148478       8.59867403       0.00033930      -0.00048105      -0.00059010
Br       2.98146183       4.21148481       5.16404337       0.00034093      -0.00048169       0.00058971
Br       4.96444665       1.40712089       8.59867386      -0.00033982       0.00047992      -0.00058797
