9
Lattice="6.445892691257427 4.472687013324272e-08 3.72153783711471 2.14863091523478 6.077245822219451 3.721537878718476 -3.3949255234948894e-08 2.694825512877283e-08 7.443075733031252" Properties=species:S:1:pos:R:3:forces:R:3 energy=-28.926681518554688 free_energy=-28.926681518554688 stress="9.139994654105976e-05 -3.3909046681657173e-09 -9.849986382093334e-10 -3.3909046681657173e-09 9.139153553405777e-05 8.244539273505325e-09 -9.849986382093334e-10 8.244539273505325e-09 9.14029442355968e-05" pbc="T T T"
Rh       2.14863083       1.51931137       3.72153781      -0.00000034      -0.00000015      -0.00000077
Rh       6.44589280       4.55793428      11.16461364       0.00000025      -0.00000060       0.00000054
Mo       0.00000020      -0.00000033      -0.00000032      -0.00000167       0.00000549       0.00000193
I        2.21125199       1.56359129       7.44307575       0.00678918       0.00480185       0.00000015
I        6.38327148       4.51365443       7.44307570      -0.00679037      -0.00480171      -0.00000078
I        5.34026662       1.56359153       5.63653825      -0.00339339       0.00479962       0.00587788
I        3.25425687       4.51365461       9.24961350       0.00339541      -0.00480220      -0.00588162
I        3.25425680       4.51365510       5.63653805       0.00339603      -0.00480200       0.00588243
I        5.34026669       1.56359130       9.24961344      -0.00339521       0.00479969      -0.00587989
