9
Lattice="5.490101340788087 2.0183373154522476e-08 3.169711434276241 1.8300337978235752 5.1761171601889275 3.1697114368192 -4.156866593133551e-08 -2.627900005523043e-08 6.339422940551526" Properties=species:S:1:pos:R:3:forces:R:3 energy=-27.124794006347656 free_energy=-27.124794006347656 stress="0.0003482118190731853 3.186799801824236e-08 1.1119446696739033e-08 3.186799801824236e-08 0.00034814263926818967 3.989068242393756e-10 1.1119446696739033e-08 3.989068242393756e-10 0.0003481512831058353" pbc="T T T"
Rh       1.83003360       1.29402991       3.16971146      -0.00000042       0.00000281      -0.00000057
Rh       5.49010170       3.88208751       9.50913478       0.00000171      -0.00000068       0.00000427
Mg      -0.00000004       0.00000007      -0.00000020       0.00000106       0.00000179       0.00000000
Cl       1.91423439       1.35356805       6.33942282      -0.00490499      -0.00346602      -0.00000062
Cl       5.40590077       3.82254901       6.33942276       0.00490176       0.00346475      -0.00000155
Cl       4.53298434       1.35356805       4.82748689       0.00245235      -0.00346593      -0.00424645
Cl       2.78715045       3.82254897       7.85135903      -0.00245152       0.00346538       0.00424495
Cl       2.78715089       3.82254903       4.82748666      -0.00245127       0.00346517      -0.00424536
Cl       4.53298427       1.35356797       7.85135903       0.00245132      -0.00346740       0.00424534
