9
Lattice="5.912971984733025 -1.8861960035987016e-08 3.4138559834321627 1.9709906612059034 5.57480351564902 3.413855953274623 8.556191411348253e-09 -3.088512955050301e-08 6.827711952044538" Properties=species:S:1:pos:R:3:forces:R:3 energy=-24.319955825805664 free_energy=-24.319955825805664 stress="6.958514131838456e-05 -6.128963558893474e-09 9.249682797474179e-09 -6.128963558893474e-09 6.95998314768076e-05 7.553177638897068e-09 9.249682797474179e-09 7.553177638897068e-09 6.956938887014985e-05" pbc="T T T"
Rh       1.97099075       1.39370115       3.41385603      -0.00000045       0.00000071       0.00000091
Rh       5.91297194       4.18110259      10.24156774       0.00000095       0.00000093      -0.00000163
Mg       0.00000013       0.00000012      -0.00000027      -0.00000069      -0.00000067       0.00000348
Br       2.03305866       1.43758945       6.82771170       0.00124553       0.00087934       0.00000054
Br       5.85090398       4.13721398       6.82771185      -0.00124512      -0.00088094       0.00000076
Br       4.89644244       1.43758952       5.17453662      -0.00062084       0.00087918       0.00107681
Br       2.98751980       4.13721368       8.48088776       0.00062302      -0.00088130      -0.00107810
Br       2.98751995       4.13721382       5.17453664       0.00062094      -0.00087823       0.00107634
Br       4.89644297       1.43758961       8.48088745      -0.00062336       0.00088088      -0.00107890
