9
Lattice="5.952822792811446 2.934285348549876e-08 3.436863888191911 1.9842743144415507 5.612375233689255 3.4368638492097303 1.7425496800619136e-08 -3.5421534978050794e-08 6.873727746202001" Properties=species:S:1:pos:R:3:forces:R:3 energy=-32.79117965698242 free_energy=-32.79117965698242 stress="0.00020492456678766757 1.187475096031676e-08 -1.4091270372773579e-08 1.187475096031676e-08 0.00020486459834501147 9.885003926513036e-09 -1.4091270372773579e-08 9.885003926513036e-09 0.00020487277652136981" pbc="T T T"
Rh       1.98427467       1.40309380       3.43686429       0.00000118       0.00000045       0.00000165
Rh       5.95282284       4.20928118      10.31059130      -0.00000057      -0.00000149       0.00000006
Mo      -0.00000011       0.00000003      -0.00000016      -0.00000037       0.00000124       0.00000128
Br       2.01862038       1.42738035       6.87372780      -0.00089485      -0.00063284       0.00000088
Br       5.91847665       4.18499536       6.87372772       0.00089315       0.00063360       0.00000028
Br       4.94351262       1.42738021       5.18504030       0.00044690      -0.00063238      -0.00077453
Br       2.99358432       4.18499503       8.56241535      -0.00044618       0.00063150       0.00077208
Br       2.99358442       4.18499486       5.18504023      -0.00044614       0.00063003      -0.00077394
Br       4.94351268       1.42738008       8.56241514       0.00044685      -0.00063016       0.00077218
