9
Lattice="6.300424330644636 -1.860140023228306e-08 3.6375516421651692 2.1001414066345223 5.940097092605749 3.637551675725581 -7.200200822152483e-08 -9.81014089130049e-09 7.275103409041464" Properties=species:S:1:pos:R:3:forces:R:3 energy=-28.083606719970703 free_energy=-28.083606719970703 stress="0.00012886631884612143 3.76466591234248e-09 -1.3912105911728645e-09 3.76466591234248e-09 0.0001288688654312864 4.550746002252026e-09 -1.3912105911728645e-09 4.550746002252026e-09 0.00012885921751149" pbc="T T T"
Rh       2.10014168       1.48502431       3.63755181       0.00000051       0.00000002       0.00000038
Rh       6.30042413       4.45507272      10.91265457      -0.00000019       0.00000031      -0.00000083
Mn      -0.00000027      -0.00000012       0.00000008       0.00000226       0.00000107       0.00000010
I        2.09661021       1.48252723       7.27510339      -0.00137138      -0.00097036      -0.00000030
I        6.30395548       4.45756997       7.27510352       0.00136924       0.00096879      -0.00000063
I        5.25211916       1.48252719       5.45326927       0.00068520      -0.00096800      -0.00118707
I        3.14844669       4.45756980       9.09693725      -0.00068603       0.00096982       0.00118800
I        3.14844644       4.45756969       5.45326957      -0.00068517       0.00096774      -0.00118740
I        5.25211914       1.48252747       9.09693742       0.00068562      -0.00096942       0.00118782
