9
Lattice="5.5100115289144265 -1.0475945040541857e-08 3.1812066844778895 1.8366704949092776 5.19488860721423 3.1812066928818554 -1.406315886476467e-08 3.4859389285965493e-10 6.362413393313883" Properties=species:S:1:pos:R:3:forces:R:3 energy=-34.357261657714844 free_energy=-34.357261657714844 stress="8.967992471298203e-05 4.733118785793522e-09 1.2762341405903044e-08 4.733118785793522e-09 8.969964255811647e-05 -1.4700022532565526e-08 1.2762341405903044e-08 -1.4700022532565526e-08 8.967848407337442e-05" pbc="T T T"
Rh       1.83667043       1.29872237       3.18120670      -0.00000029       0.00000118      -0.00000009
Rh       5.51001166       3.89616653       9.54361987       0.00000085       0.00000017      -0.00000022
Mn       0.00000007      -0.00000004       0.00000013      -0.00000142      -0.00000169      -0.00000123
Cl       1.83464151       1.29728810       6.36241345      -0.00001562      -0.00001015      -0.00000058
Cl       5.51204039       3.89760093       6.36241344       0.00001460       0.00001127      -0.00000039
Cl       4.59269075       1.29728723       4.77005328       0.00000599      -0.00001025      -0.00001280
Cl       2.75399134       3.89760085       7.95477381      -0.00000621       0.00001190       0.00001311
Cl       2.75399148       3.89760093       4.77005282      -0.00000560       0.00001038      -0.00001302
Cl       4.59269038       1.29728744       7.95477360       0.00000753      -0.00001281       0.00001508
