9
Lattice="6.410663572001075 -6.725521898860024e-08 3.7011983789666947 2.1368877810542712 6.044031812833235 3.7011984012592047 8.56996610484977e-09 3.3362516164927384e-08 7.402396743089784" Properties=species:S:1:pos:R:3:forces:R:3 energy=-21.149944305419922 free_energy=-21.149944305419922 stress="8.582291047787294e-05 -6.9290155835233236e-09 1.5308171397165893e-09 -6.9290155835233236e-09 8.581684960518032e-05 -1.5577847345404905e-10 1.5308171397165893e-09 -1.5577847345404905e-10 8.584016177337617e-05" pbc="T T T"
Rh       2.13688772       1.51100850       3.70119833      -0.00000074       0.00000097       0.00000006
Rh       6.41066347       4.53302355      11.10359536       0.00000056      -0.00000057       0.00000142
Mg      -0.00000010      -0.00000018      -0.00000007       0.00000184       0.00000197       0.00000054
I        2.25749567       1.59629050       7.40239654      -0.00031753      -0.00022461       0.00000016
I        6.29005624       4.44774133       7.40239673       0.00031428       0.00022137      -0.00000085
I        5.28191586       1.59629056       5.65624691       0.00015938      -0.00022309      -0.00027502
I        3.26563544       4.44774116       9.14854658      -0.00015871       0.00022358       0.00027399
I        3.26563551       4.44774119       5.65624700      -0.00015811       0.00022388      -0.00027437
I        5.28191565       1.59629050       9.14854669       0.00015891      -0.00022351       0.00027397
