9
Lattice="4.401015177427392 -9.520069073687859e-09 2.5409273276755404 1.4670050518913678 4.149316827738656 2.540927324688579 1.9229359127864433e-08 9.938958951192518e-09 5.081854622044877" Properties=species:S:1:pos:R:3:forces:R:3 energy=-39.69577407836914 free_energy=-39.69577407836914 stress="0.00011265802459092811 2.175366908829801e-08 6.04456440456147e-09 2.175366908829801e-08 0.00011278169404249638 -4.2290576374170996e-08 6.04456440456147e-09 -4.2290576374170996e-08 0.00011275591532466933" pbc="T T T"
Rh       1.46700510       1.03732929       2.54092721       0.00000066       0.00000023      -0.00000074
Rh       4.40101517       3.11198775       7.62278198       0.00000214       0.00000309      -0.00000078
Mg       0.00000009       0.00000002      -0.00000012       0.00000311       0.00000228      -0.00000682
F        1.49680167       1.05839845       5.08185463       0.00273986       0.00193747      -0.00000082
F        4.37121867       3.09091845       5.08185463      -0.00274581      -0.00194108      -0.00000035
F        3.65261439       1.05839814       3.83719562      -0.00137258       0.00193931       0.00237617
F        2.21540570       3.09091833       6.32651389       0.00136865      -0.00193727      -0.00237186
F        2.21540577       3.09091838       3.83719534       0.00137199      -0.00194182       0.00237628
F        3.65261452       1.05839843       6.32651394      -0.00136818       0.00193749      -0.00237113
