9
Lattice="4.469640430098021 1.105706863989938e-08 2.5805481967595814 1.489880174144651 4.214017531267459 2.5805481615055204 3.21652077066871e-08 -2.0432991576218083e-08 5.161096337807386" Properties=species:S:1:pos:R:3:forces:R:3 energy=-37.59005355834961 free_energy=-37.59005355834961 stress="0.0002325012319488451 2.623678829749565e-09 3.207160048646074e-08 2.623678829749565e-09 0.0002325267851119861 5.8048290618728515e-09 3.207160048646074e-08 5.8048290618728515e-09 0.00023259186127688736" pbc="T T T"
Rh       1.48988005       1.05350432       2.58054820      -0.00000198      -0.00000107       0.00000047
Rh       4.46964063       3.16051311       7.74164460       0.00000253       0.00000109      -0.00000007
Ni      -0.00000006      -0.00000002      -0.00000024       0.00000193       0.00000230       0.00000344
F        1.49353307       1.05608731       5.16109641       0.00212415       0.00150159      -0.00000101
F        4.46598764       3.15793021       5.16109628      -0.00212622      -0.00150296       0.00000051
F        3.72287394       1.05608730       3.87398585      -0.00106269       0.00150096       0.00183810
F        2.23664661       3.15793027       6.44820694       0.00106293      -0.00150234      -0.00184025
F        2.23664672       3.15793018       3.87398568       0.00106040      -0.00150101       0.00183780
F        3.72287395       1.05608741       6.44820702      -0.00106102       0.00150141      -0.00183892
