9
Lattice="4.1123675422614365 -1.2421682849687354e-09 2.3742764805732923 1.3707891921123607 3.877177244105659 2.3742764588712757 2.744047603236287e-08 -7.176104672851745e-09 4.748552913618301" Properties=species:S:1:pos:R:3:forces:R:3 energy=-33.7569580078125 free_energy=-33.7569580078125 stress="-0.00034369612694717944 -3.001510506805971e-08 5.742498743188662e-08 -3.001510506805971e-08 -0.00034374144161120057 1.2631864443335417e-09 5.742498743188662e-08 1.2631864443335417e-09 -0.00034371958463452756" pbc="T T T"
Rh       1.37078922       0.96929434       2.37427636       0.00000042      -0.00000035      -0.00000008
Rh       4.11236754       2.90788299       7.12282925       0.00000022       0.00000046      -0.00000100
N        0.00000057      -0.00000001       0.00000051      -0.00000192       0.00000130      -0.00000499
F        1.34639914       0.95204804       4.74855302      -0.00536227      -0.00379121       0.00000133
F        4.13675708       2.92512868       4.74855267       0.00536811       0.00379574       0.00000288
F        3.43916768       0.95204824       3.54029278       0.00268364      -0.00379956      -0.00464964
F        2.04398885       2.92512911       5.95681315      -0.00268286       0.00379181       0.00464749
F        2.04398908       2.92512920       3.54029262      -0.00268698       0.00379539      -0.00464690
F        3.43916786       0.95204832       5.95681309       0.00268096      -0.00379443       0.00465083
