9
Lattice="5.823039799539636 -4.797645243822375e-08 3.361933498358014 1.9410131927832628 5.490014624118823 3.3619335477167915 -7.152730458965663e-08 9.87447809873659e-09 6.723867120604947" Properties=species:S:1:pos:R:3:forces:R:3 energy=-27.199180603027344 free_energy=-27.199180603027344 stress="0.00010020402260124683 1.2001144966689026e-08 1.1066922489533226e-08 1.2001144966689026e-08 0.00010017849126597866 -6.888992043485587e-09 1.1066922489533226e-08 -6.888992043485587e-09 0.00010016897431341931" pbc="T T T"
Rh       1.94101321       1.37250344       3.36193355       0.00000095      -0.00000056       0.00000042
Rh       5.82303950       4.11751096      10.08580047      -0.00000049       0.00000028      -0.00000054
Ni       0.00000005       0.00000012      -0.00000013      -0.00000167       0.00000098       0.00000312
Br       1.92115116       1.35845905       6.72386717       0.00062701       0.00044303      -0.00000007
Br       5.84290196       4.13155572       6.72386738      -0.00063011      -0.00044535       0.00000051
Br       4.86246426       1.35845900       5.02569898      -0.00031406       0.00044449       0.00054437
Br       2.90158865       4.13155582       8.42203508       0.00031739      -0.00044626      -0.00054687
Br       2.90158864       4.13155550       5.02569911       0.00031576      -0.00044397       0.00054458
Br       4.86246419       1.35845875       8.42203499      -0.00031500       0.00044724      -0.00054571
