9
Lattice="5.437016289211771 -3.8884676130493555e-08 3.1390628101952225 1.8123387346686486 5.126068163263964 3.139062795890414 1.6394017842772007e-08 -5.927411690291048e-09 6.2781255919951695" Properties=species:S:1:pos:R:3:forces:R:3 energy=-28.91874885559082 free_energy=-28.91874885559082 stress="0.0002108523331116885 -6.416912778917094e-09 1.1478007433396442e-09 -6.416912778917094e-09 0.00021082702733110636 4.461490288321102e-09 1.1478007433396442e-09 4.461490288321102e-09 0.00021083762112539262" pbc="T T T"
Rh       1.81233894       1.28151689       3.13906243       0.00000065      -0.00000074      -0.00000150
Rh       5.43701641       3.84455135       9.41718949       0.00000000       0.00000106       0.00000325
Ni      -0.00000005       0.00000048       0.00000009      -0.00000182      -0.00000975      -0.00000350
Cl       1.82465742       1.29022775       6.27812569      -0.00103444      -0.00073262      -0.00000055
Cl       5.42469708       3.83584009       6.27812555       0.00104299       0.00073783      -0.00000093
Cl       4.52468759       1.29022788       4.71926234       0.00051667      -0.00073132      -0.00089605
Cl       2.72466764       3.83584000       7.83698824      -0.00052288       0.00073744       0.00090155
Cl       2.72466772       3.83584042       4.71926273      -0.00051945       0.00073378      -0.00089939
Cl       4.52468734       1.29022757       7.83698821       0.00051841      -0.00073567       0.00089714
