9
Lattice="5.340299999803634 -7.558121112658247e-09 3.083223624252392 1.7801000110733014 5.034883078300647 3.0832235926171085 6.160186540000559e-08 4.813980352093041e-09 6.166447141807127" Properties=species:S:1:pos:R:3:forces:R:3 energy=-27.374267578125 free_energy=-27.374267578125 stress="9.741429676068947e-05 1.184741282855839e-08 -5.559708693425591e-09 1.184741282855839e-08 9.73844580585137e-05 -1.4751063481810434e-08 -5.559708693425591e-09 -1.4751063481810434e-08 9.743201371748e-05" pbc="T T T"
Rh       1.78009986       1.25872073       3.08322358      -0.00000096       0.00000039       0.00000029
Rh       5.34030003       3.77616230       9.24967074      -0.00000007       0.00000023       0.00000049
N       -0.00000012      -0.00000006       0.00000004      -0.00000008      -0.00000012       0.00000061
Cl       1.75573515       1.24149179       6.16644714       0.00000997       0.00000660       0.00000001
Cl       5.36466500       3.79339132       6.16644713      -0.00000903      -0.00000660      -0.00000075
Cl       4.46243276       1.24149177       4.60373439      -0.00000487       0.00000739       0.00000848
Cl       2.65796751       3.79339132       7.72915997       0.00000423      -0.00000742      -0.00000821
Cl       2.65796743       3.79339122       4.60373449       0.00000517      -0.00000858       0.00000811
Cl       4.46243265       1.24149189       7.72915998      -0.00000454       0.00000808      -0.00000922
