9
Lattice="4.1670976930309624 -3.010774782985664e-08 2.405874976312237 1.3890325492500752 3.9287773593782367 2.4058749532893327 3.596818932041304e-08 -2.7638408867451993e-09 4.8117498903257525" Properties=species:S:1:pos:R:3:forces:R:3 energy=-40.01911163330078 free_energy=-40.01911163330078 stress="4.0276412619277835e-05 -6.205272029546904e-08 -1.5583042056732666e-07 -6.205272029546904e-08 4.0520990296499804e-05 -4.252071139632108e-09 -1.5583042056732666e-07 -4.252071139632108e-09 4.0545506635680795e-05" pbc="T T T"
Rh       1.38903276       0.98219436       2.40587516      -0.00000092      -0.00000305      -0.00000402
Rh       4.16709754       2.94658273       7.21762488       0.00000171       0.00000340       0.00000286
P        0.00000000      -0.00000001      -0.00000013      -0.00000311      -0.00000986       0.00000539
F        1.40938573       0.99658649       4.81174979       0.00002986       0.00002405      -0.00000184
F        4.14674438       2.93219104       4.81174995      -0.00002503      -0.00001734       0.00000165
F        3.46240469       0.99658642       3.62643888      -0.00001523       0.00001967       0.00002182
F        2.09372562       2.93219088       5.99706093       0.00001398      -0.00001913      -0.00002208
F        2.09372563       2.93219096       3.62643883       0.00001234      -0.00001958       0.00002140
F        3.46240475       0.99658642       5.99706093      -0.00001374       0.00002098      -0.00002462
