9
Lattice="6.3719168325109035 6.164149790134691e-09 3.678827847668009 2.1239722893854167 6.007500605134631 3.678827837154216 -2.5730459293146136e-09 -1.4696169780230697e-08 7.35765569979264" Properties=species:S:1:pos:R:3:forces:R:3 energy=-22.91849136352539 free_energy=-22.91849136352539 stress="8.099792466964573e-05 -1.1641786201721516e-08 6.228809912300903e-09 -1.1641786201721516e-08 8.099854312604293e-05 -1.0034940878256293e-08 6.228809912300903e-09 -1.0034940878256293e-08 8.101780258584768e-05" pbc="T T T"
Rh       2.12397216       1.50187543       3.67882773      -0.00000033       0.00000040      -0.00000018
Rh       6.37191710       4.50562547      11.03648379       0.00000064       0.00000056       0.00000072
P        0.00000014      -0.00000005      -0.00000023      -0.00000010      -0.00000037      -0.00000001
I        2.21178929       1.56397107       7.35765575       0.00255013       0.00180406      -0.00000014
I        6.28409982       4.44352920       7.35765565      -0.00255053      -0.00180378       0.00000000
I        5.26602215       1.56397114       5.59429355      -0.00127504       0.00180328       0.00220866
I        3.22986664       4.44352941       9.12101794       0.00127532      -0.00180428      -0.00220897
I        3.22986699       4.44352957       5.59429343       0.00127472      -0.00180271       0.00220836
I        5.26602221       1.56397114       9.12101791      -0.00127487       0.00180294      -0.00220843
