9
Lattice="5.481512468614348 -1.1997860028710933e-09 3.16475268105856 1.8271708434513776 5.168019371472236 3.164752643453813 2.9765370166519237e-08 -2.5008910963759544e-08 6.329505310561948" Properties=species:S:1:pos:R:3:forces:R:3 energy=-30.123550415039062 free_energy=-30.123550415039062 stress="0.00015509976947214454 1.2612268562861573e-08 -1.5246872209218054e-08 1.2612268562861573e-08 0.0001550002198200673 1.5318725843371794e-08 -1.5246872209218054e-08 1.5318725843371794e-08 0.0001551119494251907" pbc="T T T"
Rh       1.82717073       1.29200480       3.16475283      -0.00000026      -0.00000082       0.00000012
Rh       5.48151251       3.87601458       9.49425782       0.00000043       0.00000062      -0.00000077
P       -0.00000002       0.00000001      -0.00000011      -0.00000118       0.00000134       0.00000157
Cl       1.80572233       1.27683845       6.32950530       0.00019576       0.00013846      -0.00000025
Cl       5.50296087       3.89118103       6.32950537      -0.00019333      -0.00013836      -0.00000034
Cl       4.57865155       1.27683816       4.72855401      -0.00009894       0.00014026       0.00016846
Cl       2.73003201       3.89118108       7.93045671       0.00009829      -0.00014082      -0.00016941
Cl       2.73003177       3.89118122       4.72855409       0.00009914      -0.00014171       0.00017041
Cl       4.57865166       1.27683807       7.93045656      -0.00009979       0.00014085      -0.00016981
