9
Lattice="5.832080672182804 -2.74714580186044e-08 3.3671533855978053 1.9440268820905082 5.498538303213399 3.367153355696951 4.207971110990593e-08 -6.866034678694594e-09 6.734306698311349" Properties=species:S:1:pos:R:3:forces:R:3 energy=-25.98359489440918 free_energy=-25.98359489440918 stress="9.68384338193573e-05 5.851158668690459e-09 -2.989055891688963e-09 5.851158668690459e-09 9.683430835139006e-05 -6.069192259872125e-09 -2.989055891688963e-09 -6.069192259872125e-09 9.680223593022674e-05" pbc="T T T"
Rh       1.94402723       1.37463455       3.36715357       0.00000162       0.00000048       0.00000188
Rh       5.83208048       4.12390361      10.10146025      -0.00000177       0.00000001       0.00000174
P       -0.00000010      -0.00000005       0.00000015       0.00000008      -0.00000050      -0.00000075
Br       1.95521644       1.38254676       6.73430657       0.00092542       0.00065418       0.00000071
Br       5.82089125       4.11599175       6.73430657      -0.00092725      -0.00065482       0.00000024
Br       4.85447229       1.38254676       5.06042034      -0.00046242       0.00065346       0.00080015
Br       2.92163501       4.11599154       8.40819297       0.00046410      -0.00065368      -0.00080257
Br       2.92163517       4.11599131       5.06042021       0.00046323      -0.00065525       0.00080072
Br       4.85447262       1.38254689       8.40819309      -0.00046293       0.00065615      -0.00080209
