9
Lattice="5.574613200363919 1.6195850454909354e-08 3.2185044694308416 1.8582044162917868 5.255795904607145 3.21850446787044 1.8468773786972556e-08 1.1148317759424052e-08 6.437008906872791" Properties=species:S:1:pos:R:3:forces:R:3 energy=-32.84244155883789 free_energy=-32.84244155883789 stress="7.445111259585246e-05 -6.636211136168413e-09 1.8487149588963803e-08 -6.636211136168413e-09 7.446124800480902e-05 8.104643178796778e-09 1.8487149588963803e-08 8.104643178796778e-09 7.444414222845808e-05" pbc="T T T"
Rh       1.85820447       1.31394895       3.21850403      -0.00000053       0.00000037      -0.00000185
Rh       5.57461327       3.94184694       9.65551357       0.00000058       0.00000054       0.00000179
Ru       0.00000012       0.00000002      -0.00000018       0.00000084      -0.00000089      -0.00000191
Cl       1.87701311       1.32724881       6.43700899       0.00098789       0.00069928      -0.00000109
Cl       5.55580436       3.92854725       6.43700899      -0.00098729      -0.00069803      -0.00000062
Cl       4.63610680       1.32724871       4.84404556      -0.00049487       0.00069931       0.00085595
Cl       2.79671087       3.92854698       8.02997247       0.00049254      -0.00069812      -0.00085309
Cl       2.79671096       3.92854738       4.84404556       0.00049365      -0.00069982       0.00085515
Cl       4.63610654       1.32724870       8.02997237      -0.00049314       0.00069740      -0.00085393
