9
Lattice="5.9618298415518005 6.6956897726128684e-09 3.4420641630730935 1.987276596872996 5.620867060068225 3.442064203413183 3.663059620073729e-08 7.530806496451841e-08 6.884128262700131" Properties=species:S:1:pos:R:3:forces:R:3 energy=-30.145471572875977 free_energy=-30.145471572875977 stress="0.00030478608096018434 -1.9450800081699526e-08 -2.0182703508453415e-08 -1.9450800081699526e-08 0.0003048038634005934 2.075298510817447e-08 -2.0182703508453415e-08 2.075298510817447e-08 0.00030478404369205236" pbc="T T T"
Rh       1.98727666       1.40521663       3.44206395      -0.00000134       0.00000048       0.00000005
Rh       5.96182976       4.21565044      10.32619223      -0.00000020       0.00000032      -0.00000238
Ru      -0.00000002       0.00000006       0.00000015       0.00000315      -0.00000265      -0.00000023
Br       1.99659571       1.41180635       6.88412841       0.00025491       0.00017948       0.00000064
Br       5.95251063       4.20906077       6.88412847      -0.00025593      -0.00018122       0.00000050
Br       4.96353206       1.41180621       5.17116693      -0.00012721       0.00017919       0.00022076
Br       2.98557471       4.20906078       8.59708984       0.00012616      -0.00017657      -0.00021757
Br       2.98557442       4.20906078       5.17116689       0.00012749      -0.00018002       0.00022021
Br       4.96353197       1.41180658       8.59708974      -0.00012709       0.00018103      -0.00022186
