9
Lattice="4.210822984313034 -2.418930045544767e-08 2.4311198205298603 1.403607673948702 3.9700018636175742 2.431119759359172 3.7361982649706545e-08 -4.849957559864947e-08 4.8622395763468615" Properties=species:S:1:pos:R:3:forces:R:3 energy=-36.765594482421875 free_energy=-36.765594482421875 stress="0.0005772957229055464 1.2027106777168228e-07 1.5309456102841068e-07 1.2027106777168228e-07 0.0005772265139967203 -7.160969062169897e-08 1.5309456102841068e-07 -7.160969062169897e-08 0.0005771295400336385" pbc="T T T"
Rh       1.40360769       0.99250057       2.43111986      -0.00000239      -0.00000077       0.00000248
Rh       4.21082312       2.97750120       7.29335975       0.00000119       0.00000101       0.00000307
S        0.00000004      -0.00000000      -0.00000015      -0.00000075      -0.00000008       0.00000140
F        1.47779973       1.04496216       4.86223965       0.00628978       0.00444514       0.00000146
F        4.13663106       2.92503956       4.86223960      -0.00629044      -0.00444812       0.00000131
F        3.47192319       1.04496211       3.71093182      -0.00314692       0.00445014       0.00545126
F        2.14250733       2.92503992       6.01354714       0.00314945      -0.00444877      -0.00545496
F        2.14250752       2.92503945       3.71093162       0.00314474      -0.00444859       0.00544530
F        3.47192313       1.04496213       6.01354733      -0.00314561       0.00445062      -0.00545114
