9
Lattice="5.54742895163232 1.5664870480467055e-08 3.2028096334595273 1.8491429865417681 5.23016610553237 3.2028096544253652 -3.21662958364246e-08 2.932813879700604e-09 6.405619322632694" Properties=species:S:1:pos:R:3:forces:R:3 energy=-26.835979461669922 free_energy=-26.835979461669922 stress="-1.1393311979190912e-05 -1.233632485053704e-08 -2.311321622983087e-08 -1.233632485053704e-08 -1.1429226105974521e-05 3.1227401109390485e-08 -2.311321622983087e-08 3.1227401109390485e-08 -1.1429444384702947e-05" pbc="T T T"
Rh       1.84914271       1.30754160       3.20280964      -0.00000085      -0.00000078      -0.00000018
Rh       5.54742909       3.92262461       9.60842882      -0.00000057       0.00000122       0.00000015
S       -0.00000017      -0.00000006       0.00000027      -0.00000090       0.00000028      -0.00000518
Cl       1.88032025       1.32958711       6.40561932      -0.00110441      -0.00077964       0.00000171
Cl       5.51625164       3.90057902       6.40561919       0.00110443       0.00078087       0.00000049
Cl       4.60726895       1.32958712       4.83121481       0.00055379      -0.00078116      -0.00095701
Cl       2.78930323       3.90057900       7.98002390      -0.00055333       0.00078118       0.00095736
Cl       2.78930289       3.90057917       4.83121461      -0.00055136       0.00077872      -0.00095424
Cl       4.60726896       1.32958695       7.98002388       0.00055306      -0.00078072       0.00095683
