9
Lattice="5.868450913001174 -4.163810745914038e-08 3.38815175520408 1.9561502408031224 5.532828667882834 3.3881517972476387 -5.2621817935466056e-08 1.4283359793299625e-08 6.776303601551877" Properties=species:S:1:pos:R:3:forces:R:3 energy=-23.862987518310547 free_energy=-23.862987518310547 stress="9.902216697810218e-05 4.927224406259256e-09 6.079873937636648e-09 4.927224406259256e-09 9.903032332658768e-05 -2.437977819624848e-09 6.079873937636648e-09 -2.437977819624848e-09 9.90598346106708e-05" pbc="T T T"
Rh       1.95615020       1.38320706       3.38815163      -0.00000126       0.00000023       0.00000044
Rh       5.86845075       4.14962166      10.16445584      -0.00000069      -0.00000011       0.00000083
S        0.00000002       0.00000017       0.00000027      -0.00000027       0.00000056      -0.00000162
Br       1.99046852       1.40747388       6.77630343       0.00136772       0.00096728      -0.00000070
Br       5.83413257       4.12535483       6.77630339      -0.00136724      -0.00096720       0.00000006
Br       4.87321659       1.40747385       5.11194825      -0.00068316       0.00096624       0.00118470
Br       2.95138448       4.12535453       8.44065867       0.00068393      -0.00096717      -0.00118321
Br       2.95138480       4.12535480       5.11194837       0.00068437      -0.00096634       0.00118396
Br       4.87321645       1.40747379       8.44065874      -0.00068335       0.00096649      -0.00118439
