9
Lattice="4.982452767431827 1.072743952688272e-08 2.876620022739481 1.6608174961021827 4.697501276359589 2.8766202014104434 -3.249183395465209e-07 -1.09255628612447e-08 5.753240608254051" Properties=species:S:1:pos:R:3:forces:R:3 energy=-52.44972229003906 free_energy=-52.44972229003906 stress="0.0006301253451965749 3.2216448175859114e-08 -7.2865797839938296e-09 3.2216448175859114e-08 0.0006300215027295053 -2.2177019332048076e-08 -7.2865797839938296e-09 -2.2177019332048076e-08 0.0006300014210864902" pbc="T T T"
Rh       1.66081642       1.17437275       2.87662032      -0.00000194       0.00000094      -0.00000091
Rh       4.98245409       3.52312276       8.62986200       0.00000265      -0.00000063       0.00000118
Ta      -0.00000036       0.00000321      -0.00000084      -0.00000207       0.00000352       0.00000841
F        1.59184291       1.12560115       5.75324079      -0.00077051      -0.00054139       0.00000067
F        5.05143085       3.57190052       5.75324092       0.00076681       0.00054133      -0.00000131
F        4.18653166       1.12560186       4.25519620       0.00038597      -0.00054294      -0.00066614
F        2.45673736       3.57190029       7.25128803      -0.00038156       0.00053763       0.00065804
F        2.45673695       3.57190026       4.25519269      -0.00038365       0.00054312      -0.00066334
F        4.18653070       1.12560283       7.25128457       0.00038451      -0.00054187       0.00066364
