9
Lattice="5.944769631944695 4.434211697612698e-08 3.4322144139903488 1.9815899413735694 5.604782410966542 3.4322143754478582 8.463098083497393e-08 1.2638426344029e-08 6.86442868139555" Properties=species:S:1:pos:R:3:forces:R:3 energy=-35.86957550048828 free_energy=-35.86957550048828 stress="9.774434874998406e-05 1.664013460356273e-08 3.8333901386522484e-08 1.664013460356273e-08 9.774357022251934e-05 -4.661412233986084e-08 3.8333901386522484e-08 -4.661412233986084e-08 9.775257058208808e-05" pbc="T T T"
Rh       1.98159001       1.40119542       3.43221505      -0.00000010      -0.00000008       0.00000169
Rh       5.94476965       4.20358654      10.29664237       0.00000001      -0.00000156      -0.00000271
Ta      -0.00000002       0.00000018      -0.00000016       0.00000083       0.00000150       0.00000368
Br       2.02704261       1.43333587       6.86442859       0.00044683       0.00031453      -0.00000146
Br       5.89931706       4.17144667       6.86442912      -0.00044751      -0.00031519       0.00000132
Br       4.93124845       1.43333573       5.18768471      -0.00022534       0.00031671       0.00038975
Br       2.99511134       4.17144696       8.54117264       0.00022621      -0.00031766      -0.00039001
Br       2.99511113       4.17144688       5.18768491       0.00022212      -0.00031434       0.00038451
Br       4.93124842       1.43333561       8.54117271      -0.00022313       0.00031614      -0.00038692
