9
Lattice="5.543975606886174 -3.2932761188356954e-09 3.2008157442365017 1.8479918980933425 5.226910159889333 3.2008156884017054 7.785167230922701e-08 -1.3333901104008655e-08 6.401631353629937" Properties=species:S:1:pos:R:3:forces:R:3 energy=-40.26709747314453 free_energy=-40.26709747314453 stress="0.00041958451038226485 2.2565554758102735e-08 9.710320547640094e-09 2.2565554758102735e-08 0.0004195687943138182 4.0987582217155705e-09 9.710320547640094e-09 4.0987582217155705e-09 0.0004195760120637715" pbc="T T T"
Rh       1.84799198       1.30672756       3.20081554       0.00000020      -0.00000014      -0.00000047
Rh       5.54397568       3.92018253       9.60244708       0.00000085      -0.00000034       0.00000041
Ta       0.00000010      -0.00000008       0.00000017      -0.00000101      -0.00000130      -0.00000211
Cl       1.91824718       1.35640540       6.40163146      -0.00611030      -0.00432003       0.00000055
Cl       5.47372059       3.87050473       6.40163136       0.00611109       0.00432051      -0.00000030
Cl       4.58485201       1.35640536       4.86206619       0.00305504      -0.00431969      -0.00529016
Cl       2.80711551       3.87050487       7.94119649      -0.00305638       0.00432090       0.00529213
Cl       2.80711518       3.87050471       4.86206608      -0.00305488       0.00432036      -0.00529106
Cl       4.58485216       1.35640547       7.94119675       0.00305528      -0.00432037       0.00529103
