9
Lattice="6.348035716559686 6.251636921147534e-08 3.6650400957412566 2.1160119372588904 5.984985564165733 3.6650401428565402 -1.894703835053768e-08 4.430660022050962e-08 7.330080224299774" Properties=species:S:1:pos:R:3:forces:R:3 energy=-28.35901641845703 free_energy=-28.35901641845703 stress="6.289498560363427e-05 -1.1642649067056254e-09 1.185727516173074e-08 -1.1642649067056254e-09 6.291467434493825e-05 4.109347084835235e-09 1.185727516173074e-08 4.109347084835235e-09 6.289836892392486e-05" pbc="T T T"
Rh       2.11601174       1.49624616       3.66504007      -0.00000039      -0.00000129      -0.00000014
Rh       6.34803566       4.48873945      10.99512093       0.00000047       0.00000119       0.00000225
V        0.00000008      -0.00000005       0.00000040       0.00000015      -0.00000031      -0.00000313
I        2.14279896       1.51518772       7.33008028      -0.00005939      -0.00004109       0.00000052
I        6.32124875       4.46979808       7.33007991       0.00005864       0.00004206      -0.00000112
I        5.27663632       1.51518768       5.52075836       0.00002855      -0.00004060      -0.00005148
I        3.18741159       4.46979764       9.13940188      -0.00003011       0.00004329       0.00005116
I        3.18741139       4.46979804       5.52075813      -0.00002879       0.00004013      -0.00005075
I        5.27663606       1.51518798       9.13940189       0.00003092      -0.00004341       0.00005268
