9
Lattice="5.905536789969129 2.103852660189092e-08 3.4095632661297146 1.9685122824221633 5.567793409369663 3.4095632674048 2.270916006875866e-08 1.7619495965650425e-08 6.819126492925991" Properties=species:S:1:pos:R:3:forces:R:3 energy=-32.04949188232422 free_energy=-32.04949188232422 stress="0.00016682178829796612 1.5198545755268356e-09 2.0222047647511232e-10 1.5198545755268356e-09 0.00016679806867614388 -1.5080065196571013e-08 2.0222047647511232e-10 -1.5080065196571013e-08 0.00016682985005900264" pbc="T T T"
Rh       1.96851232       1.39194812       3.40956333       0.00000107      -0.00000007       0.00000090
Rh       5.90553684       4.17584555      10.22868926      -0.00000104       0.00000188      -0.00000290
V       -0.00000005       0.00000014      -0.00000003      -0.00000093       0.00000135      -0.00000065
Br       1.97021397       1.39315133       6.81912632      -0.00010788      -0.00007637       0.00000011
Br       5.90383521       4.17464190       6.81912668       0.00010672       0.00007673      -0.00000025
Br       4.92042971       1.39315152       5.11581858       0.00005438      -0.00007673      -0.00009336
Br       2.95361940       4.17464176       8.52243471      -0.00005342       0.00007562       0.00009292
Br       2.95361909       4.17464176       5.11581855      -0.00005420       0.00007641      -0.00009209
Br       4.92042993       1.39315169       8.52243467       0.00005523      -0.00007887       0.00009501
