9
Lattice="4.474837948043325 -1.4034322517728193e-08 2.583548908738819 1.4916125916752005 4.218917884863646 2.5835489857126768 -8.767650443390032e-08 3.2276713228162846e-08 5.167097969337786" Properties=species:S:1:pos:R:3:forces:R:3 energy=-35.551692962646484 free_energy=-35.551692962646484 stress="-1.739691697366652e-06 -6.578179778671256e-08 -2.5897323396861793e-08 -6.578179778671256e-08 -1.78021946339868e-06 -5.815332926317751e-08 -2.5897323396861793e-08 -5.815332926317751e-08 -1.6939034139795695e-06" pbc="T T T"
Rh       1.49161264       1.05472937       2.58354873       0.00000033      -0.00000083      -0.00000181
Rh       4.47483807       3.16418840       7.75064708       0.00000343      -0.00000038      -0.00000012
Zn       0.00000011       0.00000009      -0.00000005       0.00000192       0.00000019      -0.00000012
F        1.54127858       1.08984877       5.16709786       0.00148645       0.00105280      -0.00000045
F        4.42517185       3.12906920       5.16709787      -0.00149146      -0.00105149       0.00000063
F        3.70419859       1.08984864       3.91833581      -0.00074361       0.00105095       0.00128889
F        2.26225166       3.12906903       6.41586012       0.00074247      -0.00104934      -0.00128958
F        2.26225194       3.12906930       3.91833550       0.00074598      -0.00105396       0.00128967
F        3.70419839       1.08984878       6.41586044      -0.00074524       0.00105217      -0.00128710
