9
Lattice="5.872478851085432 7.787418659255766e-09 3.3904772349520913 1.957492967797402 5.5366261089895135 3.3904772174695568 8.674285358293493e-09 -1.52779955758246e-08 6.78095445487988" Properties=species:S:1:pos:R:3:forces:R:3 energy=-22.727127075195312 free_energy=-22.727127075195312 stress="0.0003443893510848284 1.3139861421151977e-09 3.936705628149184e-09 1.3139861421151977e-09 0.0003443880705162883 -5.963333826741746e-09 3.936705628149184e-09 -5.963333826741746e-09 0.0003443248278927058" pbc="T T T"
Rh       1.95749302       1.38415621       3.39047717       0.00000092      -0.00000121      -0.00000064
Rh       5.87247874       4.15246993      10.17143177      -0.00000078       0.00000125      -0.00000073
Zn      -0.00000005       0.00000002       0.00000029      -0.00000006      -0.00000152      -0.00000026
Br       2.00194198       1.41558642       6.78095427      -0.00065748      -0.00046617       0.00000042
Br       5.82802973       4.12103974       6.78095418       0.00065915       0.00046667      -0.00000080
Br       4.87150792       1.41558662       5.12420989       0.00032893      -0.00046524      -0.00056840
Br       2.95846412       4.12103922       8.43769919      -0.00033037       0.00046603       0.00057091
Br       2.95846396       4.12103941       5.12420994      -0.00032935       0.00046606      -0.00056995
Br       4.87150793       1.41558680       8.43769888       0.00032899      -0.00046587       0.00056951
