9
Lattice="5.944871398878453 -1.7101719573936833e-07 3.4322730543894586 1.98162370420094 5.604878146488645 3.432272940400832 9.02599570498273e-08 -7.578355077611304e-08 6.864545952444085" Properties=species:S:1:pos:R:3:forces:R:3 energy=-27.06637954711914 free_energy=-27.06637954711914 stress="0.000185564742423594 -4.087172822409002e-09 -1.0858729915241838e-08 -4.087172822409002e-09 0.00018552971596363932 1.9063287837184362e-08 -1.0858729915241838e-08 1.9063287837184362e-08 0.00018553418340161443" pbc="T T T"
Ru       1.98162450       1.40121933       3.43227312       0.00000444      -0.00000029       0.00000006
Ru       5.94487092       4.20365899      10.29681824      -0.00000267       0.00000368      -0.00000505
As       0.00000011       0.00000001       0.00000005      -0.00000025       0.00000007       0.00000088
Br       2.03265919       1.43730745       6.86454526       0.00662829       0.00468797      -0.00000253
Br       5.89383582       4.16756999       6.86454587      -0.00662675      -0.00468834       0.00000219
Br       4.92854112       1.43730670       5.19260806      -0.00331808       0.00468341       0.00573988
Br       2.99795434       4.16757062       8.53648475       0.00331657      -0.00468755      -0.00573864
Br       2.99795401       4.16757134       5.19260797       0.00331513      -0.00468524       0.00574236
Br       4.92854079       1.43730705       8.53648442      -0.00331662       0.00468631      -0.00573910
