9
Lattice="5.38839057418572 -8.276308603252018e-08 3.1109886501245883 1.7961301305734 5.080223331637058 3.1109886203195853 -6.636085104642814e-08 -8.342778030743365e-08 6.221977415189567" Properties=species:S:1:pos:R:3:forces:R:3 energy=-37.123111724853516 free_energy=-37.123111724853516 stress="0.00015691187581978738 5.1197279304915355e-08 -1.1711535741198986e-08 5.1197279304915355e-08 0.00015694109606556594 4.579689161232636e-08 -1.1711535741198986e-08 4.579689161232636e-08 0.00015696157061029226" pbc="T T T"
Ru       1.79613082       1.27005558       3.11098842       0.00000319      -0.00000106      -0.00000424
Ru       5.38838839       3.81016712       9.33296410      -0.00001291      -0.00000322      -0.00001269
As      -0.00000009       0.00000007      -0.00000021       0.00000006      -0.00000288       0.00000210
Se       1.99394286       1.40993025       6.22197755       0.00172403       0.00121617       0.00000267
Se       5.19057774       3.67029298       6.22197752      -0.00171864      -0.00121567       0.00000382
Se       4.39141882       1.40993006       4.83779388      -0.00086239       0.00121772       0.00149369
Se       2.79310275       3.67029271       7.60616171       0.00086549      -0.00121668      -0.00148430
Se       2.79310181       3.67029316       4.83779381       0.00086246      -0.00121802       0.00149056
Se       4.39141941       1.40993077       7.60616189      -0.00086111       0.00122347      -0.00149149
