9
Lattice="6.603360155943334 7.598955720734987e-08 3.8124518276268917 2.201120086732481 6.225707978920072 3.8124518915262593 -4.269186366038433e-08 4.807269258854868e-08 7.62490372919824" Properties=species:S:1:pos:R:3:forces:R:3 energy=-23.86772918701172 free_energy=-23.86772918701172 stress="-0.0001849496184149757 1.75108763045273e-08 7.199897122944776e-09 1.75108763045273e-08 -0.00018497277051210403 -3.139140947183705e-09 7.199897122944776e-09 -3.139140947183705e-09 -0.0001849684922490269" pbc="T T T"
Ru       2.20111940       1.55642738       3.81245196      -0.00000175       0.00000064       0.00000048
Ru       6.60335942       4.66928066      11.43735467      -0.00000459      -0.00000160      -0.00000275
As       0.00000032       0.00000026       0.00000026      -0.00000072      -0.00000169       0.00000161
I        2.30428083       1.62937266       7.62490374      -0.00570712      -0.00403576       0.00000033
I        6.50019947       4.59633532       7.62490394       0.00571010       0.00403579       0.00000155
I        5.45121980       1.62937243       5.80801788       0.00285479      -0.00403509      -0.00494181
I        3.35326069       4.59633579       9.44178992      -0.00285192       0.00403555       0.00494296
I        3.35326080       4.59633513       5.80801734      -0.00285234       0.00403477      -0.00494475
I        5.45122008       1.62937285       9.44179015       0.00285359      -0.00403264       0.00494235
