9
Lattice="5.5422305039756825 8.004510137595538e-09 3.1998082141196074 1.8474101523405815 5.225265170342748 3.199808254299788 -2.6163281600721964e-08 3.071023340254512e-08 6.399616473555355" Properties=species:S:1:pos:R:3:forces:R:3 energy=-30.644081115722656 free_energy=-30.644081115722656 stress="0.00011945541336899623 1.2290410467130641e-08 7.543152769073913e-09 1.2290410467130641e-08 0.0001194217475131154 1.3197748449655933e-09 7.543152769073913e-09 1.3197748449655933e-09 0.00011938292300328612" pbc="T T T"
Ru       1.84740989       1.30631626       3.19980804      -0.00000102      -0.00000059      -0.00000072
Ru       5.54223032       3.91894895       9.59942462      -0.00000115       0.00000041      -0.00000120
As       0.00000007      -0.00000000      -0.00000012      -0.00000076       0.00000279       0.00000413
Cl       1.88815166       1.33512445       6.39961661       0.00273706       0.00193424      -0.00000025
Cl       5.50148922       3.89014072       6.39961671      -0.00273841      -0.00193670       0.00000073
Cl       4.59815496       1.33512487       4.83499511      -0.00136696       0.00193620       0.00237209
Cl       2.79148556       3.89014029       7.96423792       0.00137138      -0.00193772      -0.00237415
Cl       2.79148578       3.89014060       4.83499537       0.00136916      -0.00193720       0.00237218
Cl       4.59815511       1.33512469       7.96423747      -0.00136934       0.00193859      -0.00237290
