9
Lattice="4.590438479176697 9.180226323316241e-08 2.6502907989813838 1.5301461492597135 4.32790717626629 2.6502909670212564 -5.4085210194644305e-08 1.6756194137351554e-07 5.3005816916411" Properties=species:S:1:pos:R:3:forces:R:3 energy=-51.7313117980957 free_energy=-51.7313117980957 stress="9.332784975413233e-05 -1.023123772370127e-07 -1.4820196270193264e-07 -1.023123772370127e-07 9.334772767033428e-05 -3.727931741082102e-08 -1.4820196270193264e-07 -3.727931741082102e-08 9.30867827264592e-05" pbc="T T T"
Ru       1.53014963       1.08197056       2.65029021       0.00004708      -0.00009214      -0.00001043
Ru       4.59042919       3.24592697       7.95086703      -0.00013293      -0.00005745      -0.00007690
As       0.00000016       0.00000006       0.00000030       0.00000208       0.00002514      -0.00000673
O        1.46408467       1.03526178       5.30058260       0.00443351       0.00311279       0.00001212
O        4.65650003       3.29264792       5.30058325      -0.00444651      -0.00308567       0.00002421
O        3.85839683       1.03526551       3.91822229      -0.00220639       0.00315464       0.00380957
O        2.26219083       3.29264439       6.68294192       0.00225794      -0.00311333      -0.00380075
O        2.26218804       3.29264632       3.91822521       0.00223094      -0.00310433       0.00384629
O        3.85839898       1.03526625       6.68294117      -0.00218582       0.00315964      -0.00379491
