9
Lattice="4.6649468776623655 2.201604056416889e-06 2.693310921217874 1.5549840532991184 4.398152881200678 2.693311466723178 2.1727526993011234e-06 2.2044729021214527e-06 5.3866180791203435" Properties=species:S:1:pos:R:3:forces:R:3 energy=-42.31645584106445 free_energy=-42.31645584106445 stress="5.490381590789184e-05 -2.354684284000541e-06 -1.172705992757983e-06 -2.354684284000541e-06 5.332418004400097e-05 -8.476547463942552e-07 -1.172705992757983e-06 -8.476547463942552e-07 4.749735671794042e-05" pbc="T T T"
Ru       1.55490593       1.09953054       2.69334839      -0.00093824      -0.00010997       0.00047074
Ru       4.66490907       3.29861755       8.07998130      -0.00052142      -0.00000226       0.00061129
As       0.00000897       0.00000081      -0.00000588       0.00040669       0.00003464      -0.00031440
S        1.71167866       1.21033244       5.38664351      -0.00100505      -0.00088066      -0.00013033
S        4.50827435       3.18783336       5.38662371       0.00141072       0.00092465      -0.00022197
S        3.80911483       1.21033547       4.17563692       0.00079900      -0.00085068      -0.00121510
S        2.41081345       3.18783076       6.59756362      -0.00035793       0.00082976       0.00096160
S        2.41084934       3.18782143       4.17563211      -0.00054234       0.00087279      -0.00113875
S        3.80917581       1.21032702       6.59754309       0.00074899      -0.00081760       0.00097668
