9
Lattice="5.757881958418048 2.089465592523649e-07 3.3243144870629453 1.9192941459583088 5.4285830528199615 3.324314551456795 4.363685909395164e-08 1.0972196877370111e-07 6.64862889854462" Properties=species:S:1:pos:R:3:forces:R:3 energy=-28.462791442871094 free_energy=-28.462791442871094 stress="2.193312866438646e-05 2.5597175934422012e-08 -1.4550336935315045e-08 2.5597175934422012e-08 2.1980824385536835e-05 -3.4839238161055164e-09 -1.4550336935315045e-08 -3.4839238161055164e-09 2.192762440245133e-05" pbc="T T T"
Ru       1.91929401       1.35714581       3.32431434      -0.00000061      -0.00000050      -0.00000031
Ru       5.75788223       4.07143747       9.97294346       0.00000013      -0.00000104      -0.00000044
Be      -0.00000007       0.00000004      -0.00000009      -0.00000076      -0.00000021      -0.00000026
Br       1.89102513       1.33715668       6.64862889      -0.00046380      -0.00032858      -0.00000029
Br       5.78615102       4.09142655       6.64862917       0.00046647       0.00033029      -0.00000052
Br       4.81236986       1.33715651       4.96198971       0.00023151      -0.00032832      -0.00040157
Br       2.86480651       4.09142676       8.33526820      -0.00023223       0.00032806       0.00040178
Br       2.86480612       4.09142702       4.96198971      -0.00023197       0.00032883      -0.00040043
Br       4.81236983       1.33715653       8.33526827       0.00023129      -0.00032862       0.00040200
