9
Lattice="5.395903586969605 9.487775499344499e-09 3.1153264250983352 1.7986346488998592 5.087306459383003 3.1153262329015905 8.605247880186807e-08 -1.7454370502953548e-07 6.2306527011495465" Properties=species:S:1:pos:R:3:forces:R:3 energy=-31.92534828186035 free_energy=-31.92534828186035 stress="0.00012033709936076775 -1.2361049961384651e-08 -3.874041709650555e-08 -1.2361049961384651e-08 0.00012034467363264412 3.906095003003429e-08 -3.874041709650555e-08 3.906095003003429e-08 0.0001203864230774343" pbc="T T T"
Ru       1.79863447       1.27182651       3.11532675      -0.00000065      -0.00000017       0.00000062
Ru       5.39590370       3.81547977       9.34597960       0.00000027      -0.00000018       0.00000141
B        0.00000026      -0.00000145       0.00000053       0.00000398      -0.00002042       0.00000571
Cl       1.66845428       1.17977476       6.23065263       0.00014639       0.00010502      -0.00000005
Cl       5.52608471       3.90753179       6.23065244      -0.00014479      -0.00009778      -0.00000022
Cl       4.56167708       1.17977487       4.56024929      -0.00007306       0.00010452       0.00012545
Cl       2.63286093       3.90753197       7.90105618       0.00007188      -0.00009975      -0.00012523
Cl       2.63286114       3.90753176       4.56024898       0.00007125      -0.00009853       0.00012234
Cl       4.56167675       1.17977509       7.90105518      -0.00007509       0.00010741      -0.00012988
