9
Lattice="6.304482631696058 -2.30846557425045e-07 3.6398945953463673 2.101493984509116 5.943923107486306 3.6398946099164027 1.0863298882450262e-08 2.5526038695381292e-08 7.279789171876979" Properties=species:S:1:pos:R:3:forces:R:3 energy=-24.381908416748047 free_energy=-24.381908416748047 stress="-0.00012348064046818763 -3.3143815469927063e-10 1.6097725374919492e-09 -3.3143815469927063e-10 -0.00012348013115115464 -7.880401220461408e-09 1.6097725374919492e-09 -7.880401220461408e-09 -0.0001234862138517201" pbc="T T T"
Ru       2.10149522       1.48598203       3.63989427       0.00000449       0.00000449      -0.00000144
Ru       6.30448210       4.45794227      10.91968443      -0.00000094       0.00000244       0.00000379
Be      -0.00000010      -0.00000014       0.00000014      -0.00000010       0.00000020      -0.00000006
I        2.09179224       1.47912044       7.27978962      -0.00587321      -0.00415364       0.00000174
I        6.31418437       4.46480220       7.27978860       0.00587368       0.00415141      -0.00000297
I        5.25858611       1.47912032       5.45144026       0.00293521      -0.00415392      -0.00508710
I        3.14739058       4.46480212       9.10813808      -0.00293672       0.00415212       0.00508768
I        3.14739033       4.46480193       5.45144017      -0.00293695       0.00415082      -0.00508916
I        5.25858557       1.47912044       9.10813784       0.00293459      -0.00415393       0.00508760
