9
Lattice="5.782392875719072 7.932310785412879e-08 3.338465960975579 1.9274643360994985 5.451692201743488 3.3384660139649065 2.3168865980443668e-08 8.128130661773943e-08 6.676931881821511" Properties=species:S:1:pos:R:3:forces:R:3 energy=-28.60858154296875 free_energy=-28.60858154296875 stress="-1.734081524773501e-05 3.091194855642243e-08 7.579994409923074e-09 3.091194855642243e-08 -1.7343434592476115e-05 3.070174559027805e-09 7.579994409923074e-09 3.070174559027805e-09 -1.7332071365672164e-05" pbc="T T T"
Ru       1.92746408       1.36292316       3.33846601       0.00000027       0.00000072      -0.00000039
Ru       5.78239274       4.08876916      10.01539762       0.00000033      -0.00000038       0.00000116
B       -0.00000134       0.00000092      -0.00000209      -0.00001070       0.00000592      -0.00001420
Br       1.85999445       1.31521452       6.67693219       0.00252018       0.00177974       0.00000113
Br       5.84986383       4.13647817       6.67693207      -0.00251883      -0.00178346       0.00000108
Br       4.85239585       1.31521427       4.94926797      -0.00125962       0.00178387       0.00218377
Br       2.85746117       4.13647802       8.40459647       0.00126133      -0.00178204      -0.00218141
Br       2.85746173       4.13647744       4.94926839       0.00126350      -0.00178419       0.00218717
Br       4.85239650       1.31521375       8.40459675      -0.00125649       0.00177988      -0.00217815
