9
Lattice="5.321416235326259 3.0526434653743372e-09 3.0723211202040996 1.773805450773235 5.0170793737361015 3.072321057642821 7.591494918723619e-08 -2.2941608462165507e-08 6.1446421089196095" Properties=species:S:1:pos:R:3:forces:R:3 energy=-31.380611419677734 free_energy=-31.380611419677734 stress="0.0003081614850088954 7.336309781891259e-09 1.7315734623934986e-08 7.336309781891259e-09 0.0003081149188801646 -5.131602254238032e-09 1.7315734623934986e-08 -5.131602254238032e-09 0.0003081608738284558" pbc="T T T"
Ru       1.77380561       1.25427005       3.07232122       0.00000089       0.00000084       0.00000158
Ru       5.32141637       3.76280953       9.21696363      -0.00000072      -0.00000010       0.00000205
Be      -0.00000005      -0.00000002       0.00000002      -0.00000096      -0.00000070      -0.00000101
Cl       1.73874079       1.22947543       6.14464203       0.00215667       0.00152478      -0.00000089
Cl       5.35648069       3.78760376       6.14464199      -0.00215412      -0.00152314      -0.00000166
Cl       4.45204589       1.22947537       4.57811463      -0.00107945       0.00152579       0.00186719
Cl       2.64317602       3.78760380       7.71116948       0.00107690      -0.00152501      -0.00186669
Cl       2.64317588       3.78760395       4.57811460       0.00107818      -0.00152675       0.00186674
Cl       4.45204583       1.22947552       7.71116945      -0.00107754       0.00152435      -0.00186766
