9
Lattice="6.308652458405712 3.016766699333564e-08 3.6423018459172045 2.1028842115236355 5.947854268574595 3.642301793471776 3.0215805770793753e-07 1.4942566115135247e-07 7.28460316848133" Properties=species:S:1:pos:R:3:forces:R:3 energy=-24.49242401123047 free_energy=-24.49242401123047 stress="-0.00016558368224650621 6.328620738571544e-09 -1.6202689190336628e-09 6.328620738571544e-09 -0.000165559773449786 -1.3501296969309351e-08 -1.6202689190336628e-09 -1.3501296969309351e-08 -0.00016557014896534383" pbc="T T T"
Ru       2.10288459       1.48696314       3.64230168       0.00000279       0.00000040       0.00000076
Ru       6.30865178       4.46088928      10.92690979      -0.00000428      -0.00000851       0.00002081
C        0.00000009      -0.00000054       0.00000007       0.00000009      -0.00000142       0.00000011
I        2.12925533       1.50561077       7.28460304       0.00087163       0.00061561      -0.00000102
I        6.28228195       4.44224414       7.28460213      -0.00087270      -0.00061505      -0.00000853
I        5.24402542       1.50561315       5.48628907      -0.00043386       0.00062424       0.00074965
I        3.16751139       4.44224371       9.08291590       0.00043304      -0.00061595      -0.00075635
I        3.16751201       4.44224372       5.48628965       0.00043876      -0.00061396       0.00075188
I        5.24402532       1.50561043       9.08291590      -0.00043543       0.00061454      -0.00075728
