9
Lattice="5.507159486452581 5.824364225642475e-08 3.1795602855719847 1.8357198087883677 5.192200224750706 3.1795604153750503 1.0328765445480968e-07 2.3201099008353067e-07 6.35912039224449" Properties=species:S:1:pos:R:3:forces:R:3 energy=-28.489452362060547 free_energy=-28.489452362060547 stress="-0.0001574404741404578 1.4688968263953939e-08 -9.470152662061082e-09 1.4688968263953939e-08 -0.00015742462710477412 -3.6287570281956505e-08 -9.470152662061082e-09 -3.6287570281956505e-08 -0.0001574388734297827" pbc="T T T"
Ru       1.83571908       1.29804927       3.17956096      -0.00000497      -0.00000020       0.00000359
Ru       5.50715941       3.89415025       9.53868043      -0.00000263       0.00000329      -0.00000213
C        0.00000376      -0.00000724      -0.00000059       0.00007084      -0.00013317      -0.00001080
Cl       1.80162351       1.27394128       6.35912039      -0.00021744      -0.00014989       0.00000062
Cl       5.54125631       3.91826083       6.35912100       0.00022745       0.00016559       0.00000111
Cl       4.60634672       1.27394218       4.73981361       0.00009073      -0.00012825      -0.00016052
Cl       2.73653092       3.91826190       7.97843067      -0.00012821       0.00018784       0.00022585
Cl       2.73653052       3.91826177       4.73981090      -0.00012919       0.00018559      -0.00022129
Cl       4.60634733       1.27394169       7.97842703       0.00009338      -0.00013090       0.00016370
