9
Lattice="4.394736922479021 1.5570000275508694e-07 2.5373022209853144 1.4649123426913984 4.143397986054007 2.537302414276937 4.559481568795518e-08 2.6897335916965113e-07 5.07460436299809" Properties=species:S:1:pos:R:3:forces:R:3 energy=-41.17708969116211 free_energy=-41.17708969116211 stress="0.0002503256837371737 4.633991679270366e-08 -1.0856589938157413e-07 4.633991679270366e-08 0.00025007041404023767 1.73491656596525e-07 -1.0856589938157413e-07 1.73491656596525e-07 0.0002502628485672176" pbc="T T T"
Ru       1.46490351       1.03584052       2.53729633      -0.00007969      -0.00009182      -0.00007001
Ru       4.39473253       3.10754319       7.61189831      -0.00005786      -0.00007477      -0.00008170
C       -0.00001234      -0.00001580      -0.00001405       0.00011373       0.00013804       0.00012029
F        1.28074384       0.90562271       5.07460348       0.00350344       0.00248051       0.00001091
F        4.57894068       3.23780011       5.07460405      -0.00350910      -0.00247854       0.00000694
F        3.75436681       0.90561821       3.64645472      -0.00174114       0.00248295       0.00302929
F        2.10526818       3.23779679       6.50277604       0.00176120      -0.00247753      -0.00303376
F        2.10527732       3.23778298       3.64644675       0.00176230      -0.00247425       0.00304508
F        3.75437656       0.90560495       6.50276966      -0.00175297       0.00249636      -0.00302631
