9
Lattice="5.886000048027681 -2.6856820640120227e-07 3.3982839716890236 1.9619997739680723 5.549373853926665 3.3982839523465036 -6.052998255090283e-09 -2.7969731484931665e-08 6.79656795386205" Properties=species:S:1:pos:R:3:forces:R:3 energy=-26.768386840820312 free_energy=-26.768386840820312 stress="-3.2675582133379066e-06 3.3540384691832514e-08 9.736857542463895e-09 3.3540384691832514e-08 -3.2620100682834163e-06 2.8858941902853985e-09 9.736857542463895e-09 2.8858941902853985e-09 -3.2690873013052624e-06" pbc="T T T"
Ru       1.96200026       1.38734360       3.39828486       0.00000302       0.00000226       0.00000133
Ru       5.88599942       4.16202956      10.19485120      -0.00000404      -0.00000328      -0.00000283
C       -0.00000158      -0.00000175       0.00001033      -0.00000865      -0.00001033       0.00005631
Br       1.94464568       1.37507254       6.79656673      -0.00059375      -0.00041945      -0.00000481
Br       5.90335569       4.17430210       6.79656698       0.00060241       0.00042493      -0.00000077
Br       4.91367806       1.37507200       5.08239427       0.00030448      -0.00042976      -0.00053138
Br       2.93432416       4.17430045       8.51073735      -0.00029174       0.00042011       0.00050750
Br       2.93432191       4.17430235       5.08239422      -0.00030605       0.00043045      -0.00053048
Br       4.91367574       1.37507340       8.51073740       0.00029428      -0.00041509       0.00050509
