9
Lattice="6.456564486610102 -2.0157259738103037e-08 3.7276992205684345 2.1521881074028277 6.087307405581343 3.72769928256911 -7.963173118957918e-08 1.962686927098577e-08 7.455398579063081" Properties=species:S:1:pos:R:3:forces:R:3 energy=-23.41253089904785 free_energy=-23.41253089904785 stress="7.530425500590354e-05 -5.991748430744792e-09 5.815659953611885e-09 -5.991748430744792e-09 7.528178684879094e-05 4.465960490307452e-09 5.815659953611885e-09 4.465960490307452e-09 7.529270078521222e-05" pbc="T T T"
Ru       2.15218841       1.52182715       3.72769909       0.00000064       0.00000193      -0.00000089
Ru       6.45656454       4.56548025      11.18309657       0.00000103      -0.00000135      -0.00000475
Ga       0.00000011       0.00000020      -0.00000014      -0.00000003       0.00000003      -0.00000016
I        2.23569523       1.58087578       7.45539858       0.00095206       0.00067395       0.00000012
I        6.37305726       4.50643162       7.45539911      -0.00095226      -0.00067416       0.00000236
I        5.33871675       1.58087520       5.66386847      -0.00047602       0.00067309       0.00082491
I        3.27003572       4.50643196       9.24692904       0.00047666      -0.00067368      -0.00082393
I        3.27003536       4.50643194       5.66386848       0.00047509      -0.00067371       0.00082584
I        5.33871668       1.58087550       9.24692908      -0.00047713       0.00067393      -0.00082363
