9
Lattice="4.808308269705162 6.419925240789435e-07 2.776079257949685 1.6027700860698397 4.533320245454281 2.7760791582558775 4.046486550904691e-07 1.6403019819047116e-07 5.552157815027316" Properties=species:S:1:pos:R:3:forces:R:3 energy=-39.67317199707031 free_energy=-39.67317199707031 stress="-0.00012855853128712624 2.8300266308178834e-07 -8.963709774434392e-07 2.8300266308178834e-07 -0.00013161120295990258 -1.6384346679387818e-07 -8.963709774434392e-07 -1.6384346679387818e-07 -0.00012950593372806907" pbc="T T T"
Ru       1.60277598       1.13334670       2.77608200       0.00006202       0.00014851       0.00003794
Ru       4.80831723       3.39998639       8.32825282       0.00007319      -0.00003199       0.00014684
Ga      -0.00000232       0.00000140      -0.00000469      -0.00004872      -0.00004982      -0.00003296
S        1.73816293       1.22907715       5.55216066      -0.00515497      -0.00354385       0.00001325
S        4.67290874       3.30424467       5.55215556       0.00513309       0.00361603      -0.00003059
S        3.93922933       1.22907289       4.28137744       0.00258487      -0.00360477      -0.00442606
S        2.47184787       3.30424345       6.82293755      -0.00262475       0.00357434       0.00439578
S        2.47185509       3.30424098       4.28136406      -0.00253305       0.00350711      -0.00450957
S        3.93922056       1.22907133       6.82293906       0.00250876      -0.00361523       0.00440553
