9
Lattice="4.70497596929707 3.627536812499456e-08 2.716419484462816 1.5683253599969347 4.435893777298735 2.7164194797912002 1.4153304541976711e-07 9.435743855246519e-08 5.432838723783198" Properties=species:S:1:pos:R:3:forces:R:3 energy=-42.81965255737305 free_energy=-42.81965255737305 stress="0.0004304465255700052 -2.0993914162659166e-08 -1.0276050943502923e-07 -2.0993914162659166e-08 0.0004302792076487094 -8.659122840981581e-08 -1.0276050943502923e-07 -8.659122840981581e-08 0.0004303336318116635" pbc="T T T"
Ru       1.56832423       1.10897419       2.71641725      -0.00000528       0.00000399      -0.00000928
Ru       4.70497775       3.32691893       8.14926049       0.00000799      -0.00000694       0.00000972
Ga      -0.00000020       0.00000010      -0.00000030       0.00000250      -0.00000525       0.00000775
F        1.53501144       1.08541812       5.43283939      -0.00262585      -0.00185168       0.00000390
F        4.73828989       3.35047619       5.43283834       0.00262770       0.00185475      -0.00000270
F        3.93747031       1.08541765       4.04577886       0.00131518      -0.00185620      -0.00227275
F        2.33583117       3.35047687       6.81989872      -0.00131510       0.00185325       0.00227161
F        2.33583157       3.35047649       4.04577874      -0.00131508       0.00186077      -0.00227673
F        3.93746994       1.08541717       6.81989904       0.00130793      -0.00185262       0.00226872
