9
Lattice="5.885914113335009 -2.2018208576342263e-08 3.3982341510027716 1.9619713668959455 5.54929297957874 3.398234122349021 1.3926768472048345e-08 -2.5245777213165683e-08 6.796468277883654" Properties=species:S:1:pos:R:3:forces:R:3 energy=-27.464387893676758 free_energy=-27.464387893676758 stress="0.0003926365461666137 2.091911888157938e-08 1.2648697200745573e-08 2.091911888157938e-08 0.00039264463703148067 -1.6389803292327088e-08 1.2648697200745573e-08 -1.6389803292327088e-08 0.00039266099338419735" pbc="T T T"
Ru       1.96197137       1.38732316       3.39823408      -0.00000112      -0.00000124      -0.00000005
Ru       5.88591399       4.16196977      10.19470223      -0.00000171      -0.00000009      -0.00000078
Ga       0.00000009      -0.00000017      -0.00000019       0.00000002       0.00000022       0.00000113
Br       2.01471037       1.42461510       6.79646834      -0.00031492      -0.00022529      -0.00000032
Br       5.83317525       4.12467777       6.79646827       0.00031722       0.00022468       0.00000071
Br       4.87855901       1.42461522       5.14302451       0.00015874      -0.00022407      -0.00027433
Br       2.96932650       4.12467772       8.44991235      -0.00015728       0.00022340       0.00027415
Br       2.96932640       4.12467782       5.14302470      -0.00015998       0.00022525      -0.00027403
Br       4.87855902       1.42461535       8.44991194       0.00015888      -0.00022276       0.00027344
