9
Lattice="4.552054992203112 -9.969231931889477e-08 2.628129848277599 1.51735159099657 4.291718463589633 2.6281298120436873 -8.310662074735794e-08 -1.0314258491279476e-07 5.2562598405000465" Properties=species:S:1:pos:R:3:forces:R:3 energy=-46.93011474609375 free_energy=-46.93011474609375 stress="-7.000290224823402e-06 1.0349869405956724e-08 2.345506544543241e-07 1.0349869405956724e-08 -6.763299097656272e-06 1.18558531880808e-07 2.345506544543241e-07 1.18558531880808e-07 -6.725669663865119e-06" pbc="T T T"
Ru       1.51735576       1.07292129       2.62813270       0.00008372      -0.00016680       0.00004858
Ru       4.55205538       3.21878238       7.88438506       0.00001536      -0.00013336      -0.00008261
Ga      -0.00000004      -0.00000037      -0.00000007       0.00000706      -0.00000706      -0.00001188
O        1.51981891       1.07467796       5.25625681      -0.00129455      -0.00083894      -0.00005029
O        4.54958389       3.21704628       5.25626441       0.00120616       0.00096253       0.00007016
O        3.79214339       1.07467871       3.94433016       0.00059992      -0.00084186      -0.00113964
O        2.27726190       3.21704312       6.56818636      -0.00061440       0.00092992       0.00108379
O        2.27726293       3.21704703       3.94433554      -0.00062907       0.00095248      -0.00104511
O        3.79214380       1.07467633       6.56818681       0.00062540      -0.00085667       0.00112790
