9
Lattice="5.519473044023749 3.0245022764914404e-08 3.186669201404108 1.8398243572237116 5.203809050701899 3.1866692348317787 -2.727443824085706e-08 2.1654438316793555e-08 6.373338450048922" Properties=species:S:1:pos:R:3:forces:R:3 energy=-30.512065887451172 free_energy=-30.512065887451172 stress="0.00030617188895121217 1.3344823024397101e-08 4.5153386585283783e-10 1.3344823024397101e-08 0.00030614034039899707 -1.2053572362447085e-08 4.5153386585283783e-10 -1.2053572362447085e-08 0.000306190486298874" pbc="T T T"
Ru       1.83982412       1.30095210       3.18666929       0.00000012      -0.00000111      -0.00000010
Ru       5.51947287       3.90285677       9.56000758      -0.00000162       0.00000016       0.00000074
Ga      -0.00000007      -0.00000012      -0.00000012      -0.00000058      -0.00000041       0.00000094
Cl       1.88494207       1.33285504       6.37333841       0.00036523       0.00025782      -0.00000011
Cl       5.47435527       3.87095402       6.37333849      -0.00036469      -0.00025678      -0.00000094
Cl       4.57700205       1.33285536       4.81907692      -0.00018050       0.00025710       0.00031564
Cl       2.78229546       3.87095386       7.92760002       0.00018100      -0.00025749      -0.00031587
Cl       2.78229559       3.87095386       4.81907683       0.00018257      -0.00025636       0.00031558
Cl       4.57700209       1.33285545       7.92760010      -0.00018138       0.00025716      -0.00031593
