9
Lattice="5.443553976976567 1.7918012262502666e-07 3.1428374125025584 1.8145180729982877 5.132232474845189 3.142837565373137 -3.179545179563849e-08 1.647447039366273e-07 6.28567488007645" Properties=species:S:1:pos:R:3:forces:R:3 energy=-35.78882598876953 free_energy=-35.78882598876953 stress="6.691089765809011e-06 -2.610151916826453e-08 -5.7262550257064504e-08 -2.610151916826453e-08 6.630343705182895e-06 -2.764913631381205e-08 -5.7262550257064504e-08 -2.764913631381205e-08 6.7024816416960675e-06" pbc="T T T"
Ru       1.81451924       1.28305991       3.14283845       0.00000965       0.00001540       0.00001250
Ru       5.44355565       3.84917502       9.42851622       0.00001466       0.00000361       0.00002946
Ga       0.00000002      -0.00000023      -0.00000070       0.00000146       0.00000293       0.00000586
Se       1.98217371       1.40160904       6.28567363      -0.00354107      -0.00250100      -0.00000738
Se       5.27589868       3.73062366       6.28567357       0.00353712       0.00249696      -0.00001111
Se       4.45246642       1.40160984       4.85945009       0.00176973      -0.00250182      -0.00307494
Se       2.80560357       3.73062339       7.71189947      -0.00177882       0.00249417       0.00305754
Se       2.80560450       3.73062323       4.85944978      -0.00177421       0.00249907      -0.00306982
Se       4.45246630       1.40160750       7.71189892       0.00176147      -0.00250910       0.00305749
