9
Lattice="5.391844671791376 1.5302727191354114e-06 3.1129854352958604 1.7972826416460417 5.083477753803745 3.1129860560155533 2.071699219046642e-06 2.225135888938674e-06 6.225967282303513" Properties=species:S:1:pos:R:3:forces:R:3 energy=-28.171775817871094 free_energy=-28.171775817871094 stress="-0.00013675201626028866 -3.5109149365553094e-08 2.11124078219882e-08 -3.5109149365553094e-08 -0.00013689925253856927 2.5565572769892242e-08 2.11124078219882e-08 2.5565572769892242e-08 -0.00013703912554774433" pbc="T T T"
Ru       1.79728898       1.27087215       3.11298114       0.00001824       0.00000523      -0.00001349
Ru       5.39184445       3.81261083       9.33895490      -0.00001570      -0.00000045       0.00000245
N        0.00001642       0.00001459      -0.00002310       0.00015705       0.00010584      -0.00018507
Cl       1.77180578       1.25285593       6.22597151       0.00252700       0.00180629       0.00001528
Cl       5.41730632       3.83061113       6.22596953      -0.00263047      -0.00185913       0.00000802
Cl       4.50593658       1.25286512       4.64742299      -0.00133914       0.00185035       0.00227168
Cl       2.68319282       3.83062467       7.80453358       0.00127946      -0.00182979      -0.00220969
Cl       2.68318663       3.83061849       4.64742478       0.00129698      -0.00187191       0.00230923
Cl       4.50593901       1.25285483       7.80452459      -0.00129354       0.00179362      -0.00219831
