9
Lattice="4.173810928182136 3.006826346282077e-07 2.4097510986705113 1.3912705216732162 3.9351077462895256 2.4097512220048998 -2.1238949961074095e-07 8.71092525498125e-10 4.819502565210365" Properties=species:S:1:pos:R:3:forces:R:3 energy=-47.946144104003906 free_energy=-47.946144104003906 stress="-1.3272691830934491e-05 -4.923347773910791e-07 5.405694309956743e-07 -4.923347773910791e-07 -1.555669769004453e-05 4.2468565197850694e-07 5.405694309956743e-07 4.2468565197850694e-07 -1.4730977454746608e-05" pbc="T T T"
Ru       1.39128111       0.98378217       2.40976948       0.00023253       0.00020866       0.00058642
Ru       4.17381073       2.95134535       7.22927831       0.00007074       0.00035160       0.00068204
N        0.00001790       0.00003373       0.00008233       0.00051459       0.00096005       0.00232855
O        1.30884211       0.92548625       4.81949311       0.00006473      -0.00007153      -0.00029504
O        4.25621274       3.00959744       4.81949196      -0.00080407      -0.00061619      -0.00030645
O        3.51939132       0.92548119       3.54322227       0.00001884      -0.00026584      -0.00049996
O        2.04570704       3.00958615       6.09572376       0.00046092      -0.00088096      -0.00118029
O        2.04568893       3.00961504       3.54323087      -0.00006759      -0.00012100      -0.00028801
O        3.51937369       0.92550528       6.09572837      -0.00049078       0.00043595      -0.00102580
