9
Lattice="4.502170909065444 -1.6126476357586037e-07 2.599329688972854 1.5007235596967197 4.244687284832745 2.599329558404906 3.732418068716182e-08 -1.335202579183602e-07 5.198659313298323" Properties=species:S:1:pos:R:3:forces:R:3 energy=-36.35142517089844 free_energy=-36.35142517089844 stress="-0.0001746427151374519 -1.5403912811962073e-08 -8.686681596259405e-09 -1.5403912811962073e-08 -0.00017474011110607535 1.3389437469868426e-07 -8.686681596259405e-09 1.3389437469868426e-07 -0.0001746005000313744" pbc="T T T"
Ru       1.50072441       1.06116924       2.59932444       0.00000565      -0.00001520      -0.00003721
Ru       4.50217112       3.18351563       7.79798693       0.00000144      -0.00000054      -0.00002016
N       -0.00000016       0.00000026       0.00000088      -0.00000214       0.00000449       0.00001004
F        1.40484910       0.99337859       5.19866076      -0.00155216      -0.00109613       0.00001060
F        4.59804509       3.25130905       5.19866050       0.00155109       0.00110114       0.00001039
F        3.79974655       0.99337834       3.81596555       0.00077996      -0.00110120      -0.00134057
F        2.20314808       3.25130832       6.58135449      -0.00077522       0.00109696       0.00135231
F        2.20314819       3.25130988       3.81596583      -0.00077900       0.00110298      -0.00133508
F        3.79974564       0.99337855       6.58135494       0.00077075      -0.00109261       0.00134993
