9
Lattice="5.873356386117568 1.5930718920648715e-08 3.390983846036735 1.9577854248779143 5.537453378139523 3.3909839364166676 -1.0096281646627476e-07 3.930086606603903e-08 6.78196786694615" Properties=species:S:1:pos:R:3:forces:R:3 energy=-27.332050323486328 free_energy=-27.332050323486328 stress="0.0001493471208959818 5.5278004396086544e-09 -1.035808683269579e-08 5.5278004396086544e-09 0.0001493382005719468 5.74679748233109e-10 -1.035808683269579e-08 5.74679748233109e-10 0.0001493630843469873" pbc="T T T"
Ru       1.95778489       1.38436346       3.39098391      -0.00000155       0.00000091      -0.00000031
Ru       5.87335595       4.15308993      10.17295243      -0.00000127      -0.00000039       0.00000513
P        0.00000007      -0.00000009      -0.00000013       0.00000090       0.00000039      -0.00000093
Br       1.98478837       1.40345736       6.78196745       0.00461566       0.00326359       0.00000060
Br       5.84635357       4.13399577       6.78196768      -0.00461436      -0.00326530      -0.00000120
Br       4.88096211       1.40345762       5.10986133      -0.00230603       0.00326351       0.00399740
Br       2.95017962       4.13399621       8.45407424       0.00230714      -0.00326388      -0.00399664
Br       2.95018008       4.13399628       5.10986120       0.00230876      -0.00326324       0.00399610
Br       4.88096215       1.40345722       8.45407452      -0.00230935       0.00326448      -0.00400002
