9
Lattice="5.548835061467004 1.2112992220594694e-07 3.203621429118832 1.8496118150589123 5.2314917999828445 3.2036214053882106 1.8664327207629698e-08 -1.586627511601824e-08 6.4072428259101315" Properties=species:S:1:pos:R:3:forces:R:3 energy=-30.828720092773438 free_energy=-30.828720092773438 stress="-7.658765389351174e-05 -1.0248176529614739e-08 2.9336396423218503e-08 -1.0248176529614739e-08 -7.662383723072708e-05 -4.911510131933028e-08 2.9336396423218503e-08 -4.911510131933028e-08 -7.660275150556117e-05" pbc="T T T"
Ru       1.84961164       1.30787277       3.20362170      -0.00000066      -0.00000031      -0.00000009
Ru       5.54883502       3.92361923       9.61086437      -0.00000114       0.00000215       0.00000053
P       -0.00000004      -0.00000008      -0.00000000       0.00000044       0.00000321      -0.00000225
Cl       1.82986239       1.29390778       6.40724287      -0.00367226      -0.00259690      -0.00000010
Cl       5.56858489       3.93758400       6.40724285       0.00367048       0.00259558       0.00000087
Cl       4.63390425       1.29390815       4.78832855       0.00183484      -0.00259577      -0.00318089
Cl       2.76454263       3.93758410       8.02615707      -0.00183370       0.00259420       0.00317664
Cl       2.76454271       3.93758383       4.78832840      -0.00183430       0.00259676      -0.00317749
Cl       4.63390412       1.29390785       8.02615685       0.00183622      -0.00259884       0.00318260
