9
Lattice="5.125564714393402 3.249368155877069e-07 2.959245426993342 1.7085217652252 4.832428690573108 2.9592456220093992 -4.911648134830792e-08 2.0411433693780846e-07 5.918490939058867" Properties=species:S:1:pos:R:3:forces:R:3 energy=-43.0662727355957 free_energy=-43.0662727355957 stress="8.668847294757143e-05 -2.1183353737797006e-08 -6.199004332074765e-08 -2.1183353737797006e-08 8.663246262585744e-05 7.974716886849365e-09 -6.199004332074765e-08 7.974716886849365e-09 8.676735160406679e-05" pbc="T T T"
Ru       1.70852385       1.20810347       2.95924446      -0.00000084       0.00000410       0.00000044
Ru       5.12556370       3.62432267       8.87773672      -0.00000101       0.00000207      -0.00000054
P       -0.00000016       0.00000042      -0.00000012      -0.00000573      -0.00000050      -0.00000741
F        1.36321597       0.96394049       5.91849075       0.00289133       0.00204444       0.00000075
F        5.47087025       3.86848964       5.91849107      -0.00288787      -0.00204590       0.00000209
F        4.44395599       0.96394047       4.13982569      -0.00144058       0.00204057       0.00249612
F        2.39012980       3.86848960       7.69715650       0.00144328      -0.00204179      -0.00249523
F        2.39012963       3.86848969       4.13982558       0.00144614      -0.00204852       0.00250500
F        4.44395628       0.96394054       7.69715615      -0.00144495       0.00204560      -0.00250164
