9
Lattice="5.613369824488188 1.722931943254279e-08 3.240880587295728 1.8711232729022407 5.2923357601570435 3.2408806187690167 1.1356091636728357e-09 3.934973866642818e-08 6.481761172624513" Properties=species:S:1:pos:R:3:forces:R:3 energy=-33.000789642333984 free_energy=-33.000789642333984 stress="0.00020572876383084804 2.085682737629213e-08 -2.0018591229131744e-08 2.085682737629213e-08 0.0002057481906376779 1.1668382704499436e-08 -2.0018591229131744e-08 1.1668382704499436e-08 0.0002056746743619442" pbc="T T T"
Ru       1.87112319       1.32308379       3.24088019       0.00000144      -0.00000006      -0.00000325
Ru       5.61336982       3.96925192       9.72264150      -0.00000112      -0.00000039       0.00000072
Rh       0.00000012      -0.00000005       0.00000003       0.00000024      -0.00000370       0.00000562
Cl       1.88208853       1.33083766       6.48176115       0.00363207       0.00256747       0.00000175
Cl       5.60240454       3.96149817       6.48176117      -0.00363046      -0.00256556      -0.00000086
Cl       4.67232563       1.33083758       4.87081713      -0.00181344       0.00256607       0.00314501
Cl       2.81216755       3.96149832       8.09270551       0.00181614      -0.00256950      -0.00314492
Cl       2.81216757       3.96149833       4.87081710       0.00181440      -0.00256568       0.00314397
Cl       4.67232543       1.33083764       8.09270570      -0.00181907       0.00257131      -0.00314751
