9
Lattice="5.965472784078219 -2.969458246298597e-09 3.444167320855489 1.9884909387351595 5.624301540302415 3.4441672974577333 5.994010004002064e-08 1.3727746495072848e-08 6.888334537891722" Properties=species:S:1:pos:R:3:forces:R:3 energy=-30.882261276245117 free_energy=-30.882261276245117 stress="4.779861410497688e-05 -5.329789054542289e-09 1.3969766676780182e-08 -5.329789054542289e-09 4.782343967235647e-05 1.3326386660850176e-09 1.3969766676780182e-08 1.3326386660850176e-09 4.7811612603254616e-05" pbc="T T T"
Ru       1.98849113       1.40607584       3.44416735      -0.00000030       0.00000390       0.00000015
Ru       5.96547242       4.21822612      10.33250196      -0.00000224       0.00000083       0.00000084
Rh      -0.00000004       0.00000001       0.00000002       0.00000133       0.00000030      -0.00000035
Br       1.98804030       1.40575685       6.88833462       0.00401064       0.00283563       0.00000059
Br       5.96592356       4.21854466       6.88833466      -0.00401104      -0.00283845      -0.00000025
Br       4.97145257       1.40575681       5.16586060      -0.00200556       0.00283667       0.00347274
Br       2.98251120       4.21854484       8.61080847       0.00200600      -0.00283675      -0.00347245
Br       2.98251136       4.21854463       5.16586055       0.00200639      -0.00283735       0.00347173
Br       4.97145266       1.40575650       8.61080843      -0.00200537       0.00283527      -0.00347287
