9
Lattice="4.819161772426062 -6.371143534750809e-08 2.7823445984191824 1.6063871842535136 4.543549413401892 2.7823446212028022 -8.113786519100242e-08 -2.946904556928733e-08 5.564689337373268" Properties=species:S:1:pos:R:3:forces:R:3 energy=-42.47080993652344 free_energy=-42.47080993652344 stress="0.00036502088187262416 3.155273731181296e-08 1.4686110993977763e-08 3.155273731181296e-08 0.0003648791753221303 -7.193319717657687e-09 1.4686110993977763e-08 -7.193319717657687e-09 0.00036500359419733286" pbc="T T T"
Ru       1.60638601       1.13588862       2.78234259      -0.00000292       0.00000707      -0.00000704
Ru       4.81915906       3.40765810       8.34703256      -0.00001166      -0.00001659      -0.00000516
Rh       0.00000026       0.00000037       0.00000040       0.00000196      -0.00000880       0.00000322
F        1.62516479       1.14916519       5.56469013      -0.00094211      -0.00066422       0.00000211
F        4.80038491       3.39438442       5.56468998       0.00094861       0.00066977       0.00000065
F        4.00658034       1.14916550       4.18977840       0.00047318      -0.00066194      -0.00081307
F        2.41897013       3.39438433       6.93960084      -0.00046972       0.00066723       0.00081903
F        2.41897003       3.39438449       4.18977827      -0.00047012       0.00066903      -0.00081703
F        4.00658022       1.14916598       6.93960077       0.00047280      -0.00066168       0.00081735
