9
Lattice="6.39472726016999 1.725004414329011e-08 3.691997505056819 2.1315757828606325 6.029006570089797 3.691997482181407 6.153487347716327e-08 1.5495205010412675e-08 7.383994903532139" Properties=species:S:1:pos:R:3:forces:R:3 energy=-27.97826385498047 free_energy=-27.97826385498047 stress="6.371429481077939e-05 1.1480823403076101e-08 -3.214774890736294e-09 1.1480823403076101e-08 6.36971672065556e-05 1.6617010545338928e-10 -3.214774890736294e-09 1.6617010545338928e-10 6.36650001979433e-05" pbc="T T T"
Ru       2.13157598       1.50725137       3.69199754       0.00000050      -0.00000193       0.00000055
Ru       6.39472730       4.52175551      11.07599348       0.00000070       0.00000387       0.00000465
Rh       0.00000010       0.00000020       0.00000010      -0.00000130      -0.00000101      -0.00000372
I        2.14117452       1.51403850       7.38399514       0.00162386       0.00114674      -0.00000050
I        6.38512872       4.51496790       7.38399445      -0.00162237      -0.00114666      -0.00000254
I        5.32414009       1.51403874       5.54630859      -0.00081340       0.00114964       0.00140670
I        3.20216272       4.51496777       9.22168092       0.00081074      -0.00114697      -0.00140560
I        3.20216287       4.51496775       5.54630839       0.00081321      -0.00114995       0.00140661
I        5.32414012       1.51403864       9.22168099      -0.00081190       0.00114624      -0.00140616
