9
Lattice="5.982715564709164 2.6565126397708054e-07 3.4541224987803236 1.9942387865823976 5.640558166893582 3.454122473571717 2.3457686948962342e-07 1.3499680638237723e-07 6.9082445912616" Properties=species:S:1:pos:R:3:forces:R:3 energy=-24.700401306152344 free_energy=-24.700401306152344 stress="0.0001861745404312387 4.957968702257176e-09 -2.372252438931355e-08 4.957968702257176e-09 0.00018618565809447318 5.751719989177673e-09 -2.372252438931355e-08 5.751719989177673e-09 0.0001862045464804396" pbc="T T T"
Ru       1.99423998       1.41014012       3.45412261       0.00000653       0.00000210      -0.00000094
Ru       5.98271479       4.23041868      10.36236937      -0.00000596      -0.00000133       0.00001135
S        0.00000021       0.00000021      -0.00000107      -0.00000009      -0.00000083       0.00000198
Br       2.03852825       1.44145711       6.90824464      -0.00500380      -0.00353862      -0.00000067
Br       5.93842637       4.19910136       6.90824460       0.00500375       0.00353825      -0.00000556
Br       4.96345088       1.44145801       5.21953982       0.00250109      -0.00353512      -0.00433941
Br       3.01350319       4.19910041       8.59694920      -0.00250491       0.00353827       0.00433671
Br       3.01350344       4.19910106       5.21953982      -0.00249702       0.00353862      -0.00433774
Br       4.96345138       1.44145728       8.59694941       0.00250049      -0.00354142       0.00433424
