9
Lattice="4.726771076401453 1.0412578616761224e-07 2.7290027149384284 1.5755904740692828 4.456441873052074 2.7290026853237115 4.741825344273888e-07 2.990272365367687e-07 5.458004608568581" Properties=species:S:1:pos:R:3:forces:R:3 energy=-49.71830368041992 free_energy=-49.71830368041992 stress="0.00025472306879237294 2.868091542040929e-07 -9.2397152684498e-07 2.868091542040929e-07 0.0002557846310082823 -5.437065055957646e-07 -9.2397152684498e-07 -5.437065055957646e-07 0.0002551818615756929" pbc="T T T"
Ru       1.57560020       1.11411515       2.72899864       0.00012897       0.00006346      -0.00004803
Ru       4.72677272       3.34234700       8.18702948       0.00001813       0.00020250       0.00029324
Sb      -0.00000009       0.00000008      -0.00000011      -0.00000859      -0.00003088      -0.00001527
O        1.58901206       1.12359562       5.45800531      -0.00430632      -0.00311667       0.00000774
O        4.71335090       3.33284165       5.45799572       0.00433302       0.00306392      -0.00011733
O        3.93226425       1.12359679       4.10512549       0.00213397      -0.00309056      -0.00375950
O        2.37009045       3.33284011       6.81088161      -0.00224173       0.00303775       0.00373054
O        2.37009839       3.33283949       4.10512121      -0.00213358       0.00302529      -0.00380874
O        3.93225917       1.12359316       6.81088283       0.00207633      -0.00315470       0.00371730
