9
Lattice="5.625017324290221 9.063026581079651e-09 3.247605227757299 1.8750058005141341 5.303317321053198 3.2476051979556018 -3.3667273023593035e-08 -6.030584801940845e-08 6.495210513827979" Properties=species:S:1:pos:R:3:forces:R:3 energy=-35.363792419433594 free_energy=-35.363792419433594 stress="9.07379035197664e-06 -6.250704842614141e-08 7.528831247327616e-08 -6.250704842614141e-08 8.942942258727271e-06 3.031552964216644e-08 7.528831247327616e-08 3.031552964216644e-08 9.133012099482585e-06" pbc="T T T"
Ru       1.87500477       1.32583076       3.24760564      -0.00000908       0.00001162       0.00000262
Ru       5.62501700       3.97748688       9.74281391      -0.00000097      -0.00000805      -0.00001508
Sb      -0.00000003      -0.00000003      -0.00000028       0.00000177      -0.00000193       0.00000397
Se       2.10749470       1.49022421       6.49521051      -0.00024435      -0.00016838      -0.00000003
Se       5.39252837       3.81309266       6.49521134       0.00024542       0.00016500       0.00000604
Se       4.57127011       1.49022407       5.07274958       0.00012470      -0.00017202      -0.00021012
Se       2.92875380       3.81309292       7.91767205      -0.00011850       0.00016804       0.00021499
Se       2.92875301       3.81309299       5.07274940      -0.00012736       0.00017163      -0.00021369
Se       4.57127065       1.49022461       7.91767169       0.00012827      -0.00016581       0.00021102
