9
Lattice="4.613031599868918 -5.1832235142263504e-05 2.663317853576002 1.5376345300410919 4.348832313282982 2.6633071183071952 0.00021573867796874732 0.00013940519796487648 5.326262033493387" Properties=species:S:1:pos:R:3:forces:R:3 energy=-38.8288688659668 free_energy=-38.8288688659668 stress="-0.0007823651540093124 1.8986787836183794e-05 2.0306666215219593e-07 1.8986787836183794e-05 -0.0006682578241452575 1.3972625083624735e-06 2.0306666215219593e-07 1.3972625083624735e-06 -0.0007165424176491797" pbc="T T T"
Ru       1.53880512       1.08569914       2.66548466       0.00138513      -0.00208485       0.00434825
Ru       4.61240169       3.26224857       7.99217215      -0.00068683       0.00006137       0.00500007
S       -0.00006721       0.00012797      -0.00056404       0.00003270       0.00022881      -0.00060349
F        1.56948724       1.10934527       5.32530188       0.00609663       0.00454035      -0.00162218
F        4.58124843       3.23983642       5.32564940      -0.00648451      -0.00383013      -0.00145711
F        3.82845660       1.10963391       4.02162091      -0.00273266       0.00540896       0.00376342
F        2.32217311       3.23962983       6.63009135       0.00199459      -0.00390534      -0.00664410
F        2.32233039       3.23957701       4.02164458       0.00309847      -0.00484683       0.00367618
F        3.82851283       1.10970609       6.63033325      -0.00270351       0.00442758      -0.00646114
