9
Lattice="6.520195899009518 2.280356198701904e-08 3.7644368069126317 2.173398687382486 6.147299512828576 3.7644367499629516 -2.6071635484838214e-08 -8.818426391033154e-08 7.528873658982662" Properties=species:S:1:pos:R:3:forces:R:3 energy=-22.21197509765625 free_energy=-22.21197509765625 stress="-3.753002965822816e-05 4.4896042439290795e-09 2.0742487727432035e-09 4.4896042439290795e-09 -3.754167846636847e-05 -1.4192408137603252e-08 2.0742487727432035e-09 -1.4192408137603252e-08 -3.752975317183882e-05" pbc="T T T"
Ru       2.17339828       1.53682509       3.76443730      -0.00000076       0.00000133       0.00000083
Ru       6.52019664       4.61047373      11.29331028       0.00000162      -0.00000447      -0.00000175
S       -0.00000011      -0.00000022      -0.00000025      -0.00000036      -0.00000045       0.00000009
I        2.33315261       1.64978859       7.52887382      -0.00034023      -0.00023831      -0.00000013
I        6.36044182       4.49751124       7.52887370       0.00033863       0.00023986       0.00000104
I        5.35361952       1.64978817       5.78500601       0.00017004      -0.00023840      -0.00029341
I        3.33997479       4.49751146       9.27274100      -0.00016938       0.00023867       0.00029267
I        3.33997474       4.49751145       5.78500597      -0.00017048       0.00023904      -0.00029271
I        5.35361997       1.64978831       9.27274104       0.00017088      -0.00023725       0.00029334
