9
Lattice="5.481966828486651 6.005314673237369e-08 3.165014840849497 1.8273223571905344 5.168447454447086 3.1650147985707013 5.7136973750231645e-08 -1.1378797630700334e-08 6.330029582734841" Properties=species:S:1:pos:R:3:forces:R:3 energy=-37.574623107910156 free_energy=-37.574623107910156 stress="0.0001942936360137537 3.9453620814811075e-08 1.9020392372226524e-08 3.9453620814811075e-08 0.0001943391835084185 -1.668070837013147e-08 1.9020392372226524e-08 -1.668070837013147e-08 0.00019430369138717651" pbc="T T T"
Ru       1.82732224       1.29211184       3.16501520       0.00000015      -0.00000142       0.00000175
Ru       5.48196594       3.87633583       9.49504565      -0.00000956       0.00000190       0.00000998
Sb      -0.00000016       0.00000014      -0.00000036      -0.00000130      -0.00000426       0.00000774
S        1.98176390       1.40131854       6.33002968      -0.00000232      -0.00000301      -0.00000092
S        5.32752569       3.76712869       6.33002967       0.00000578       0.00000146      -0.00000171
S        4.49108488       1.40131869       4.88127216       0.00000183      -0.00000036      -0.00000438
S        2.81820420       3.76712966       7.77878642       0.00000045       0.00000301      -0.00000018
S        2.81820571       3.76712888       4.88127177       0.00000708       0.00000697      -0.00001246
S        4.49108461       1.40131774       7.77878663      -0.00000216      -0.00000429       0.00000027
