9
Lattice="6.278725631130075 -1.1281503335249528e-07 3.6250240356905423 2.092908414825738 5.919639286477443 3.625024074698485 6.157330487546637e-08 9.131365367162724e-08 7.250047964733027" Properties=species:S:1:pos:R:3:forces:R:3 energy=-18.082134246826172 free_energy=-18.082134246826172 stress="0.0002452193293720484 -8.99682905952659e-09 9.189414562627007e-09 -8.99682905952659e-09 0.0002451986074447632 -3.554054828214248e-09 9.189414562627007e-09 -3.554054828214248e-09 0.0002452078624628484" pbc="T T T"
S        2.09291131       1.47990995       3.62502456       0.00000680       0.00000061       0.00000198
S        6.27872455       4.43973184      10.87507383      -0.00000118       0.00000563       0.00000365
As      -0.00000015      -0.00000014      -0.00000048      -0.00000146      -0.00000184       0.00000005
Br       2.10528062       1.48865730       7.25004775       0.00337136       0.00238132      -0.00000066
Br       6.26635329       4.43098106       7.25004747      -0.00337133      -0.00238244      -0.00000131
Br       5.22608488       1.48865759       5.44824986      -0.00168709       0.00238229       0.00291817
Br       3.14554838       4.43098099       9.05184577       0.00168523      -0.00238359      -0.00291967
Br       3.14554862       4.43098083       5.44824986       0.00168473      -0.00238359       0.00291666
Br       5.22608494       1.48865764       9.05184565      -0.00168706       0.00238161      -0.00291903
