9
Lattice="6.667941527408881 3.078622316897615e-08 3.8497380699407175 2.2226469776035285 6.286596213781092 3.8497384635059007 -2.6289254065580583e-07 2.9612384493628926e-07 7.699476595224687" Properties=species:S:1:pos:R:3:forces:R:3 energy=-16.591960906982422 free_energy=-16.591960906982422 stress="-0.0001356009452138096 1.0232039215907207e-08 1.3802868181755912e-08 1.0232039215907207e-08 -0.0001355927379336208 -1.0727266186449924e-08 1.3802868181755912e-08 -1.0727266186449924e-08 -0.00013560947263613343" pbc="T T T"
S        2.22264756       1.57164764       3.84973585       0.00000188      -0.00000618      -0.00000544
S        6.66794223       4.71494698      11.54921255       0.00000211       0.00000011      -0.00000606
As       0.00000005       0.00000045       0.00000018      -0.00000178      -0.00000189       0.00000315
I        2.31206389       1.63487722       7.69947678       0.00096196       0.00068083       0.00000205
I        6.57852375       4.65171984       7.69947739      -0.00096169      -0.00067703       0.00000268
I        5.51190957       1.63487588       5.85204470      -0.00048092       0.00067909       0.00083336
I        3.37867816       4.65172110       9.54691021       0.00048192      -0.00067969      -0.00083292
I        3.37867920       4.65172056       5.85204545       0.00047927      -0.00067699       0.00083417
I        5.51190861       1.63487645       9.54690939      -0.00048269       0.00068177      -0.00083098
