9
Lattice="5.748926662008084 2.9333507020598516e-08 3.319144315669959 1.916308911938647 5.420139838182774 3.3191443209583644 5.34182125810637e-08 4.424934108345378e-08 6.638288538816868" Properties=species:S:1:pos:R:3:forces:R:3 energy=-20.90823745727539 free_energy=-20.90823745727539 stress="-1.0412702067696955e-05 -2.16750990489345e-08 4.960702426615171e-08 -2.16750990489345e-08 -1.051447634381475e-05 -1.7333633195448783e-08 4.960702426615171e-08 -1.7333633195448783e-08 -1.0474062037246767e-05" pbc="T T T"
S        1.91630887       1.35503530       3.31914437       0.00000079      -0.00000085       0.00000022
S        5.74892673       4.06510525       9.95743322       0.00000038      -0.00000018       0.00000106
As       0.00000002      -0.00000012      -0.00000024      -0.00000046      -0.00000097       0.00000220
Cl       1.91875304       1.35676256       6.63828826      -0.00025278      -0.00018093      -0.00000155
Cl       5.74648256       4.06337717       6.63828870       0.00025508       0.00018054       0.00000214
Cl       4.78955077       1.35676329       4.98083272       0.00012746      -0.00017545      -0.00021929
Cl       2.87568503       4.06337632       8.29574442      -0.00012806       0.00017804       0.00021821
Cl       2.87568497       4.06337672       4.98083302      -0.00012806       0.00017968      -0.00022295
Cl       4.78955053       1.35676313       8.29574429       0.00012581      -0.00017992       0.00021973
