9
Lattice="4.129091434382019 -8.639831930027474e-08 2.3839319698853716 1.3763637410655263 3.892944822897422 2.383931950725476 7.736762427360887e-08 3.1241198894995604e-08 4.767863805766075" Properties=species:S:1:pos:R:3:forces:R:3 energy=-23.119142532348633 free_energy=-23.119142532348633 stress="-0.0010634466307237744 3.479412384876923e-07 2.92810284463485e-07 3.479412384876923e-07 -0.0010626052971929312 3.410207938259191e-08 2.92810284463485e-07 3.410207938259191e-08 -0.0010624912101775408" pbc="T T T"
S        1.37636309       0.97323628       2.38393200      -0.00000905      -0.00000168       0.00000570
S        4.12909277       2.91970823       7.15179598       0.00001368       0.00000040       0.00000245
As      -0.00000006       0.00000002       0.00000011       0.00000195      -0.00000255       0.00000280
F        1.51656791       1.07237502       4.76786389       0.00064230       0.00045228       0.00000003
F        3.98888704       2.82056969       4.76786389      -0.00064135      -0.00045645      -0.00000550
F        3.37080738       1.07237517       3.69731788      -0.00032449       0.00045919       0.00056052
F        2.13464759       2.82056964       5.83840964       0.00032115      -0.00045669      -0.00055790
F        2.13464768       2.82056967       3.69731801       0.00032341      -0.00045812       0.00055671
F        3.37080748       1.07237528       5.83840969      -0.00032699       0.00046301      -0.00056696
