9
Lattice="4.129161433919933 1.0705966132906483e-07 2.3839725664386524 1.3763871738927684 3.8930113034612823 2.3839726905990273 -1.1191818338557795e-07 7.292667688262922e-08 4.767945326725285" Properties=species:S:1:pos:R:3:forces:R:3 energy=-23.1191349029541 free_energy=-23.1191349029541 stress="-0.0008145445608533919 -1.8320109518299432e-07 1.0517625526063057e-07 -1.8320109518299432e-07 -0.0008152998052537441 -1.0893679558421354e-07 1.0517625526063057e-07 -1.0893679558421354e-07 -0.0008145413012243807" pbc="T T T"
S        1.37638768       0.97325261       2.38397314       0.00000681       0.00000269       0.00000646
S        4.12916207       2.91975938       7.15191832       0.00001181       0.00000152       0.00000581
As      -0.00000019       0.00000011      -0.00000068       0.00000557      -0.00000400       0.00000459
F        1.51662224       1.07241433       4.76794527       0.00005507       0.00004017      -0.00000214
F        3.98892603       2.82059713       4.76794553      -0.00006175      -0.00004339      -0.00000169
F        3.37085029       1.07241416       3.69740616      -0.00002992       0.00004196       0.00005198
F        2.13469789       2.82059677       5.83848411       0.00002217      -0.00004172      -0.00005102
F        2.13469799       2.82059688       3.69740624       0.00001836      -0.00003612       0.00003791
F        3.37084988       1.07241447       5.83848416      -0.00002825       0.00003970      -0.00005198
