9
Lattice="6.6680095409165565 4.0219616038062394e-08 3.849777049685689 2.222669813893741 6.286660149375411 3.8497771726575802 -3.1169873987875345e-08 1.2856876233590526e-07 7.69955415335916" Properties=species:S:1:pos:R:3:forces:R:3 energy=-16.591964721679688 free_energy=-16.591964721679688 stress="-0.00012943497858941555 -8.606769519303725e-09 5.406972647392649e-10 -8.606769519303725e-09 -0.000129455016576685 -1.947110739308755e-08 5.406972647392649e-10 -1.947110739308755e-08 -0.00012941856402903795" pbc="T T T"
S        2.22266967       1.57166522       3.84977683      -0.00000149      -0.00000111      -0.00000120
S        6.66800976       4.71499419      11.54933193       0.00000031      -0.00000207       0.00000146
As       0.00000013       0.00000012       0.00000026       0.00000054       0.00000008      -0.00000184
I        2.31206823       1.63487972       7.69955402       0.00099385       0.00070421       0.00000030
I        6.57861077       4.65178094       7.69955410      -0.00099403      -0.00070369      -0.00000070
I        5.51197558       1.63487936       5.85208672      -0.00049640       0.00070478       0.00086153
I        3.37870379       4.65178100       9.54702138       0.00049621      -0.00070305      -0.00086105
I        3.37870404       4.65178102       5.85208700       0.00049779      -0.00070299       0.00086164
I        5.51197533       1.63487969       9.54702123      -0.00049676       0.00070386      -0.00086007
