9
Lattice="5.748929881826798 -4.798956484169246e-08 3.3191463273888226 1.916309884534234 5.42014319609074 3.3191463807874677 -5.936272819304095e-08 2.3423915577456683e-08 6.638292757596891" Properties=species:S:1:pos:R:3:forces:R:3 energy=-20.908239364624023 free_energy=-20.908239364624023 stress="-1.1093146895291284e-05 -3.5175819590449464e-08 -5.127426305762128e-08 -3.5175819590449464e-08 -1.1273626114416402e-05 -3.140415572033817e-08 -5.127426305762128e-08 -3.140415572033817e-08 -1.1147451004944742e-05" pbc="T T T"
S        1.91630982       1.35503499       3.31914621       0.00000039      -0.00000341      -0.00000001
S        5.74893035       4.06510723       9.95743945       0.00000144       0.00000051       0.00000158
As      -0.00000006       0.00000024       0.00000015      -0.00000261      -0.00000014      -0.00000125
Cl       1.91873658       1.35675196       6.63829277      -0.00015429      -0.00010940      -0.00000250
Cl       5.74650289       4.06339134       6.63829240       0.00015491       0.00011325       0.00000194
Cl       4.78956133       1.35675184       4.98082116       0.00008073      -0.00010967      -0.00013438
Cl       2.87567827       4.06339169       8.29576433      -0.00008120       0.00010937       0.00013503
Cl       2.87567820       4.06339151       4.98082126      -0.00008048       0.00011051      -0.00013444
Cl       4.78956148       1.35675190       8.29576411       0.00008129      -0.00011098       0.00013405
