9
Lattice="6.25806802274087 -7.113054092061268e-08 3.613096869873089 2.0860226187844533 5.900163387626514 3.61309684978127 -3.048555734074603e-07 -2.4017283588271106e-07 7.226194267771536" Properties=species:S:1:pos:R:3:forces:R:3 energy=-18.352407455444336 free_energy=-18.352407455444336 stress="-9.244409739039838e-06 2.4421471511715254e-09 6.0451816885631615e-09 2.4421471511715254e-09 -9.256959856429603e-06 4.091331273770038e-09 6.0451816885631615e-09 4.091331273770038e-09 -9.1726224127342e-06" pbc="T T T"
S        2.08602207       1.47504088       3.61309728      -0.00000094       0.00000029      -0.00000000
S        6.25806980       4.42512217      10.83929264       0.00000370      -0.00000015       0.00000285
B        0.00000016      -0.00000034       0.00000003      -0.00000031       0.00000203      -0.00000193
Br       1.86571492       1.31926011       7.22619441      -0.00009629      -0.00006744      -0.00000009
Br       6.47837494       4.58090303       7.22619356       0.00009444       0.00006780      -0.00000072
Br       5.32521035       1.31926003       5.22885349       0.00004625      -0.00006667      -0.00008291
Br       3.01887950       4.58090315       9.22353341      -0.00004791       0.00006700       0.00008118
Br       3.01887964       4.58090364       5.22885379      -0.00004664       0.00006583      -0.00008154
Br       5.32521000       1.31925957       9.22353327       0.00004765      -0.00006855       0.00008321
