9
Lattice="5.804305351155975 -2.1374380109481695e-07 3.3511172829889104 1.9347683094043207 5.472352314874065 3.351117178133002 -3.305488333263184e-08 -1.5179505020497653e-07 6.702234623230565" Properties=species:S:1:pos:R:3:forces:R:3 energy=-21.015363693237305 free_energy=-21.015363693237305 stress="0.00022918140166439116 -2.6757074333971786e-09 5.024379490237152e-08 -2.6757074333971786e-09 0.00022917224850971252 -1.0950381046370694e-08 5.024379490237152e-08 -1.0950381046370694e-08 0.00022920274932403117" pbc="T T T"
S        1.93476759       1.36808727       3.35111583       0.00000014      -0.00000194      -0.00000480
S        5.80430574       4.10426389      10.05335206       0.00000115       0.00000006       0.00000055
B        0.00001337       0.00000190      -0.00001062       0.00015505       0.00002440      -0.00012483
Cl       1.68260002       1.18977816       6.70223529      -0.00592148      -0.00418258       0.00000779
Cl       6.05646536       4.28256880       6.70223521       0.00582069       0.00411943       0.00000676
Cl       4.96300138       1.18978303       4.80829856       0.00291142      -0.00412443      -0.00504184
Cl       2.77606755       4.28257420       8.59617780      -0.00296584       0.00418004       0.00512493
Cl       2.77607029       4.28257077       4.80829636      -0.00293592       0.00414553      -0.00506824
Cl       4.96300312       1.18977981       8.59617578       0.00293469      -0.00416082       0.00509942
