9
Lattice="6.5453977609365825 2.4938068227018626e-07 3.7789823131339686 2.181797680660993 6.171056099748315 3.7789854448596527 -2.9095655663762794e-06 1.7781918298778697e-06 7.5579696657824105" Properties=species:S:1:pos:R:3:forces:R:3 energy=-15.603741645812988 free_energy=-15.603741645812988 stress="-5.050040999776684e-05 -1.0858474297492648e-07 2.232234805887856e-07 -1.0858474297492648e-07 -5.024787606089376e-05 -2.811933939028677e-07 2.232234805887856e-07 -2.811933939028677e-07 -5.014043563278392e-05" pbc="T T T"
S        2.18179874       1.54275387       3.77900045       0.00001129      -0.00002708       0.00005186
S        6.54539945       4.62829358      11.33696570       0.00001424      -0.00000200       0.00004526
B        0.00001525       0.00000142       0.00002584       0.00006817       0.00000023       0.00012356
I        2.03257613       1.43725135       7.55796100       0.00161159       0.00114921      -0.00003643
I        6.69460421       4.73380783       7.55795898      -0.00165302      -0.00114298      -0.00003365
I        5.52910220       1.43725097       5.53924226      -0.00082842       0.00114682       0.00137770
I        3.19808864       4.73380622       9.57667950       0.00080764      -0.00114498      -0.00145000
I        3.19807844       4.73381946       5.53923043       0.00078264      -0.00111592       0.00134915
I        5.52910690       1.43724786       9.57668591      -0.00081450       0.00113699      -0.00142717
