9
Lattice="6.151822517076825 -1.1285256439274531e-07 3.5517565745642194 2.0506074716942013 5.79999349922976 3.5517564491631766 2.4270902549807485e-07 1.8036876053764395e-08 7.103512728744135" Properties=species:S:1:pos:R:3:forces:R:3 energy=-17.757164001464844 free_energy=-17.757164001464844 stress="-0.00023049335868563503 -1.003086236295303e-08 -7.89159315672805e-09 -1.003086236295303e-08 -0.00023046968271955848 1.4991025309996076e-08 -7.89159315672805e-09 1.4991025309996076e-08 -0.0002305443922523409" pbc="T T T"
S        2.05060788       1.44999948       3.55175728       0.00000154       0.00000373       0.00000336
S        6.15182279       4.34999480      10.65527053      -0.00000166      -0.00000273       0.00000293
C       -0.00000009      -0.00000037       0.00000010       0.00000095       0.00000010      -0.00000198
Br       1.89414789       1.33936492       7.10351221      -0.00576201      -0.00407304       0.00000002
Br       6.30828226       4.46062837       7.10351205       0.00575998       0.00407171       0.00000080
Br       5.20474822       1.33936447       5.19213660       0.00288181      -0.00407650      -0.00499108
Br       2.99768175       4.46062876       9.01488878      -0.00288013       0.00407472       0.00498763
Br       2.99768182       4.46062829       5.19213589      -0.00288087       0.00407353      -0.00498924
Br       5.20474848       1.33936489       9.01488953       0.00288029      -0.00407176       0.00498766
