9
Lattice="5.7108365187547125 -9.336004032542046e-08 3.297152629288035 1.9036119662391835 5.384228372325913 3.2971528348103893 -1.8180979292160154e-07 1.231534801410095e-07 6.594305573479893" Properties=species:S:1:pos:R:3:forces:R:3 energy=-19.451194763183594 free_energy=-19.451194763183594 stress="-3.6811328754993156e-05 -1.6770785649100617e-08 1.4970595429986133e-08 -1.6770785649100617e-08 -3.683137401822023e-05 -5.465706554019789e-09 1.4970595429986133e-08 -5.465706554019789e-09 -3.6856785300187767e-05" pbc="T T T"
S        1.90361211       1.34605621       3.29715155      -0.00000155      -0.00000440      -0.00000547
S        5.71083583       4.03816974       9.89145682      -0.00000168      -0.00000675      -0.00000545
C        0.00000121      -0.00000702      -0.00000571       0.00001565      -0.00007914      -0.00006218
Cl       1.77235762       1.25324619       6.59430658       0.00134789       0.00095626       0.00000562
Cl       5.84209289       4.13098490       6.59430619      -0.00132398      -0.00093240       0.00000314
Cl       4.82465663       1.25324804       4.83206123      -0.00068297       0.00097141       0.00118663
Cl       2.78978852       4.13098593       8.35655578       0.00065060      -0.00091771      -0.00112513
Cl       2.78978982       4.13098347       4.83205848       0.00066448      -0.00093873       0.00115779
Cl       4.82465843       1.25324605       8.35655282      -0.00066821       0.00095164      -0.00115523
