9
Lattice="2.244631264523628 0.5871107464065967 3.6189137741442785 -0.6597016210668026 3.4893196653993153 1.33676755710127 -0.9454712060926564 0.7500836348338447 4.214794876814992" Properties=species:S:1:pos:R:3:forces:R:3 energy=-417598496.0 free_energy=-417598496.0 stress="-57608.6640625 -2516033.25 1775794.25 -2516033.25 7404907.0 -2223696.0 1775794.25 -2223696.0 3869935.0" pbc="T T T"
S        0.59555147       2.49507198       4.53620864 324092864.00000000 1982822912.00000000  230368.00000000
S        1.49732439       3.79061206       6.83353099 -380575968.00000000 -451579392.00000000 117465152.00000000
C       -0.84133089       0.03974889      -1.40182467 -34395212.00000000 1740258.00000000 8779046.00000000
F       -0.77827262       3.18057607       3.20171816 285570656.00000000 498857152.00000000 -134750400.00000000
F        2.75645266       3.72233353       2.93390522 80789584.00000000 -114737080.00000000 20288606.00000000
F        0.61524474       2.49408172       4.54435838 -290030784.00000000 -1878549248.00000000  433496.00000000
F       -0.38251208       1.78528336       5.79923775 5169221.00000000 -35234468.00000000 -9683150.00000000
F       -0.35986368       1.83694137       5.99543949 -14693496.00000000 -2363749.00000000 -13851690.00000000
F        1.69495818       2.06911423       8.55523931 24073258.00000000 -956825.25000000 11088479.00000000
