9
Lattice="6.430038698990094 -1.05437128061923e-07 3.7123840925329117 2.1433462318139047 6.06229769467467 3.712383922403451 -3.2837955944902815e-08 -2.3158511158356591e-07 7.424768241942831" Properties=species:S:1:pos:R:3:forces:R:3 energy=-15.922225952148438 free_energy=-15.922225952148438 stress="1.2812161003239453e-05 9.548052126717721e-09 2.1739595013059443e-08 9.548052126717721e-09 1.2884001080237795e-05 -2.796750209199672e-08 2.1739595013059443e-08 -2.796750209199672e-08 1.2834937479055952e-05" pbc="T T T"
S        2.14334671       1.51557428       3.71238217       0.00000238       0.00000059      -0.00000343
S        6.43003930       4.54672340      11.13715335       0.00000151       0.00000049       0.00000213
C       -0.00000044      -0.00000054      -0.00000109      -0.00000005      -0.00000447      -0.00000773
I        2.20986112       1.56260735       7.42476812      -0.00092268      -0.00065118       0.00000159
I        6.36352458       4.49969035       7.42476763       0.00092578       0.00065327      -0.00000179
I        5.32510763       1.56260786       5.62617963       0.00045955      -0.00064945      -0.00079590
I        3.24827608       4.49969092       9.22335812      -0.00046593       0.00065553       0.00080240
I        3.24827628       4.49968923       5.62617982      -0.00046068       0.00065058      -0.00079799
I        5.32510838       1.56260677       9.22335731       0.00046006      -0.00065523       0.00080091
