9
Lattice="4.296995287078396 -0.7066825003716072 1.430133886598018 -0.1069009192514004 2.692886202451708 -1.388834586626322 -1.3884243906087195 0.6050883522188882 4.225019663083228" Properties=species:S:1:pos:R:3:forces:R:3 energy=-232442352.0 free_energy=-232442352.0 stress="1518403.125 709060.6875 256293.078125 709060.6875 517676.65625 297314.03125 256293.078125 297314.03125 -190198.4375" pbc="T T T"
S       -0.50978789       2.26961212       1.85429591 -19593574.00000000 -5505184.00000000 3657698.00000000
S       -1.20068996       4.21905392       4.56700792 1245052928.00000000 -1348398208.00000000 2634583296.00000000
Co      -1.15123182       0.32114020       1.76281024 108686824.00000000 75738616.00000000 -125304064.00000000
F       -5.36788647       2.46710440       7.87439488 -7505370.00000000 15708092.00000000 34288764.00000000
F        0.41173261       1.72062839       5.22043002 -18809696.00000000 -17220814.00000000 21113874.00000000
F       -0.35976308       1.28507799       2.70543884 -48998556.00000000 2610993.25000000 -13890410.00000000
F       -2.75506387       3.53618188       4.48962299 -66769236.00000000 -32262536.00000000 123441952.00000000
F       -0.59264780       1.28610671       2.69553228 4689506.00000000 -7571094.00000000 17252660.00000000
F       -1.06590082       1.52463293       5.94528071 -1196752768.00000000 1316900096.00000000 -2695143936.00000000
