9
Lattice="6.467239910615884 -2.932704120756949e-07 3.733862895014841 2.155746417045917 6.097373878655559 3.73386279685611 -1.2859611740228194e-07 -2.111505201330475e-07 7.467726012764678" Properties=species:S:1:pos:R:3:forces:R:3 energy=-18.370342254638672 free_energy=-18.370342254638672 stress="-0.00018337101209908724 -9.350303864508192e-10 3.5468412651340486e-09 -9.350303864508192e-10 -0.0001834251161199063 -1.1014832379530048e-09 3.5468412651340486e-09 -1.1014832379530048e-09 -0.0001833715505199507" pbc="T T T"
S        2.15574640       1.52434465       3.73386265      -0.00000006       0.00000264      -0.00000020
S        6.46723925       4.57302673      11.20158859      -0.00000090      -0.00000914      -0.00000125
Co       0.00000005       0.00000003      -0.00000026      -0.00000029       0.00000017       0.00000048
I        2.13234829       1.50779826       7.46772596      -0.00163396      -0.00115237      -0.00000007
I        6.49063818       4.58957569       7.46772602       0.00163335       0.00115385       0.00000041
I        5.40106635       1.50779874       5.58053009       0.00081754      -0.00115182      -0.00141488
I        3.22191997       4.58957539       9.35492164      -0.00081669       0.00115373       0.00141518
I        3.22192003       4.58957617       5.58053021      -0.00081632       0.00115353      -0.00141466
I        5.40106622       1.50779786       9.35492190       0.00081737      -0.00115068       0.00141495
