9
Lattice="5.786805361386864 -8.286933329694308e-10 3.341013804023711 1.9289351198840692 5.455853057479398 3.341013803671921 -8.528223951647551e-08 -6.073449922140176e-08 6.68202775576058" Properties=species:S:1:pos:R:3:forces:R:3 energy=-22.534427642822266 free_energy=-22.534427642822266 stress="1.8240907593281008e-05 2.0906966824441042e-08 -1.6908956457228896e-09 2.0906966824441042e-08 1.8272710804012604e-05 1.30421859978469e-08 -1.6908956457228896e-09 1.30421859978469e-08 1.8283164536114782e-05" pbc="T T T"
S        1.92893547       1.36396277       3.34101405       0.00000037      -0.00000141       0.00000071
S        5.78680480       4.09189031      10.02304092      -0.00000047       0.00000141      -0.00000099
Co       0.00000005       0.00000010       0.00000026       0.00000108      -0.00000014      -0.00000719
Cl       1.81788190       1.28543650       6.68202792       0.00588033       0.00415620       0.00000044
Cl       5.89785857       4.17041645       6.68202744      -0.00588131      -0.00415695       0.00000086
Cl       4.87786446       1.28543664       4.91534570      -0.00294267       0.00415906       0.00509423
Cl       2.83787612       4.17041649       8.44870970       0.00294058      -0.00415653      -0.00509104
Cl       2.83787581       4.17041620       4.91534585       0.00294197      -0.00415936       0.00509417
Cl       4.87786435       1.28543665       8.44870971      -0.00293984       0.00415775      -0.00509137
