9
Lattice="6.134600908532764 2.0780891306944054e-07 3.5418134977162503 2.0448670596299596 5.783757983481779 3.5418136809760257 -2.534997675728412e-07 4.5195087608442665e-08 7.083627434506975" Properties=species:S:1:pos:R:3:forces:R:3 energy=-19.932626724243164 free_energy=-19.932626724243164 stress="1.8161434127250686e-05 -7.729410000933967e-09 1.5985401446982905e-08 -7.729410000933967e-09 1.813362177927047e-05 4.5782488911072505e-09 1.5985401446982905e-08 4.5782488911072505e-09 1.8154076315113343e-05" pbc="T T T"
S        2.04486646       1.44593948       3.54181339      -0.00000124      -0.00000054      -0.00000120
S        6.13460084       4.33781842      10.62544175      -0.00000100      -0.00000057       0.00000200
Co      -0.00000010       0.00000009      -0.00000047      -0.00000086       0.00000006       0.00000052
Br       1.97572796       1.39705129       7.08362747      -0.00081523      -0.00057698       0.00000020
Br       6.20373993       4.38670715       7.08362714       0.00081569       0.00057507      -0.00000127
Br       5.14673701       1.39705090       5.25284451       0.00040793      -0.00057572      -0.00070471
Br       3.03273085       4.38670753       8.91441003      -0.00040705       0.00057797       0.00070660
Br       3.03273135       4.38670708       5.25284429      -0.00040608       0.00057661      -0.00070745
Br       5.14673660       1.39705100       8.91441028       0.00040775      -0.00057583       0.00070545
