9
Lattice="1.4849301642795252 2.882401701161137 3.5147078075818237 -0.6343460714032975 5.782144721255974 3.6205391545298813 -0.4998313132263632 2.93179967444281 4.374867810277213" Properties=species:S:1:pos:R:3:forces:R:3 energy=-869409728.0 free_energy=-869409728.0 stress="76020944.0 -24398482.0 -46521268.0 -24398482.0 119091312.0 8348935.5 -46521268.0 8348935.5 27401578.0" pbc="T T T"
S        0.04450346       4.77651790       4.64109145 -2956562176.00000000 1717486464.00000000 3564073728.00000000
S        0.78838321       8.42522705       7.72045383 120852872.00000000 -708859968.00000000 -236200624.00000000
Cr       0.63221726       1.17331463       0.29719301 -321695072.00000000 696605696.00000000 -166475488.00000000
F        0.01015019       8.30374116       8.70455214 -495272128.00000000 -244635008.00000000 205053536.00000000
F        1.55285075       7.75243819       7.76780495 -980405376.00000000 2204145664.00000000 441451264.00000000
F        1.77637102       5.01949523       5.85234228 6801405.50000000 36626528.00000000 52290024.00000000
F       -0.54203131       8.12931346       7.01101417 -35873968.00000000 -6565978.50000000 50965704.00000000
F        1.99650968       4.89583182       3.82017701 3629945344.00000000 -4249028096.00000000 -3700998144.00000000
F        0.92654876       7.82342718       8.30080771 1032205952.00000000 554223872.00000000 -210160672.00000000
