9
Lattice="5.795900220879165 -1.5727368428521164e-07 3.3462644088774285 1.9319665953128298 5.4644271398802 3.3462644031636777 -3.9533285693402005e-08 -3.495213887703768e-08 6.692528886228461" Properties=species:S:1:pos:R:3:forces:R:3 energy=-27.37158203125 free_energy=-27.37158203125 stress="-7.956548506626859e-05 -6.487349679673571e-08 1.1944338851321845e-08 -6.487349679673571e-08 -7.967171404743567e-05 5.204479514020477e-09 1.1944338851321845e-08 5.204479514020477e-09 -7.96614185674116e-05" pbc="T T T"
S        1.93196643       1.36610659       3.34626451      -0.00000138      -0.00000212       0.00000144
S        5.79589983       4.09832035      10.03879300      -0.00000262       0.00000396       0.00000005
Cr       0.00000009       0.00000004      -0.00000017      -0.00000027       0.00000053       0.00000073
Cl       1.82744695       1.29220007       6.69252883       0.00395335       0.00279577       0.00000077
Cl       5.90042005       4.17222663       6.69252888      -0.00395390      -0.00279444       0.00000076
Cl       4.88217645       1.29220000       4.92888018      -0.00197376       0.00279476       0.00341929
Cl       2.84569023       4.17222709       8.45617775       0.00197792      -0.00279638      -0.00342338
Cl       2.84569036       4.17222715       4.92887991       0.00197591      -0.00279743       0.00342171
Cl       4.88217667       1.29219990       8.45617786      -0.00197546       0.00279514      -0.00342163
