9
Lattice="6.5832463465602675 -1.9916032550824852e-07 3.8008393365275217 2.1944153815424396 6.206743963854317 3.800839127886141 6.166330920569755e-08 -2.1192991248828346e-07 7.601678566251027" Properties=species:S:1:pos:R:3:forces:R:3 energy=-22.29623031616211 free_energy=-22.29623031616211 stress="-2.7634387151920237e-06 -4.40533109991037e-10 4.588216917511545e-09 -4.40533109991037e-10 -2.7608843993220944e-06 -2.6966102684156112e-09 4.588216917511545e-09 -2.6966102684156112e-09 -2.756723233687808e-06" pbc="T T T"
S        2.19441337       1.55168955       3.80083985      -0.00000303       0.00001153       0.00000338
S        6.58325065       4.65506282      11.40252053       0.00000947       0.00001623       0.00000677
Cr      -0.00000017      -0.00000038      -0.00000010       0.00000127      -0.00000288      -0.00000061
I        2.13677232       1.51092512       7.60167846       0.00002860       0.00001648      -0.00000162
I        6.64089014       4.69581550       7.60167801      -0.00002516      -0.00002551      -0.00000280
I        5.51485989       1.51092454       5.65133914      -0.00001429       0.00001444       0.00002657
I        3.26279997       4.69581659       9.55201718       0.00000710      -0.00002009      -0.00002464
I        3.26280139       4.69581672       5.65133807       0.00001025      -0.00002192       0.00002245
I        5.51485967       1.51092372       9.55201709      -0.00001409       0.00001180      -0.00002959
