9
Lattice="6.497838666818803 6.324917339846679e-09 3.7515293257598965 2.1659461557943445 6.126222159550623 3.7515294512327717 -2.0808099129767468e-07 6.5367350803790575e-09 7.503059011926664" Properties=species:S:1:pos:R:3:forces:R:3 energy=-23.23065757751465 free_energy=-23.23065757751465 stress="-0.00010705830936785787 1.771610413925373e-08 1.9913422022455052e-08 1.771610413925373e-08 -0.00010705261956900358 -3.044533514184877e-08 1.9913422022455052e-08 -3.044533514184877e-08 -0.00010708195623010397" pbc="T T T"
S        2.16594626       1.53155564       3.75153075      -0.00000013       0.00000069       0.00000041
S        6.49783853       4.59466639      11.25458769      -0.00000043      -0.00000039      -0.00000021
Fe      -0.00000052       0.00000041      -0.00000021       0.00001813      -0.00001368       0.00000720
Br       1.83142488       1.29501344       7.50305879      -0.00147095      -0.00104058      -0.00000018
Br       6.83235959       4.83120916       7.50305924       0.00146493       0.00103605      -0.00000091
Br       5.58212616       1.29501310       5.33758976       0.00072962      -0.00103191      -0.00126386
Br       3.08165864       4.83120904       9.66852733      -0.00073415       0.00103836       0.00127174
Br       3.08165898       4.83120850       5.33759011      -0.00073712       0.00104389      -0.00127856
Br       5.58212588       1.29501301       9.66852764       0.00073007      -0.00103250       0.00126447
