9
Lattice="4.179372129007821 -8.421269868972563e-08 2.412961582312199 1.3931240270163796 3.9403493901628757 2.4129614724824 3.537245549327615e-08 -1.0950138292956054e-07 4.825923103357514" Properties=species:S:1:pos:R:3:forces:R:3 energy=-29.824295043945312 free_energy=-29.824295043945312 stress="-0.00011364305828465149 7.223765408070904e-08 1.1748817030365899e-07 7.223765408070904e-08 -0.00011372249718988314 3.01868148255835e-08 1.1748817030365899e-07 3.01868148255835e-08 -0.00011372482549631968" pbc="T T T"
S        1.39312410       0.98508726       2.41296147       0.00000272      -0.00000007       0.00000279
S        4.17937199       2.95526200       7.23888488       0.00000701       0.00000040      -0.00000981
Fe       0.00000013      -0.00000002      -0.00000014      -0.00001225       0.00000213       0.00000871
F        1.53335870       1.08424799       4.82592300      -0.00038123      -0.00026792       0.00000048
F        4.03913738       2.85610110       4.82592295       0.00039095       0.00027716       0.00000321
F        3.41269289       1.08424791       3.74088910       0.00019094      -0.00027564      -0.00033748
F        2.15980349       2.85610118       5.91095736      -0.00019065       0.00026584       0.00032210
F        2.15980335       2.85610126       3.74088892      -0.00019658       0.00026932      -0.00032669
F        3.41269292       1.08424803       5.91095703       0.00018948      -0.00027129       0.00033742
