9
Lattice="6.62595674718371 9.927130623815303e-08 3.8254981495824474 2.208652286179719 6.247011994727668 3.825498247400706 9.424059920341031e-09 1.2646625267570833e-07 7.65099628284198" Properties=species:S:1:pos:R:3:forces:R:3 energy=-21.391376495361328 free_energy=-21.391376495361328 stress="-3.2043069950304925e-05 -1.135086069581348e-08 -2.1543309358662555e-08 -1.135086069581348e-08 -3.201656727469526e-05 2.5519629076597994e-08 -2.1543309358662555e-08 2.5519629076597994e-08 -3.201388244633563e-05" pbc="T T T"
S        2.20865257       1.56175347       3.82549832       0.00000063       0.00000106       0.00000055
S        6.62595819       4.68525873      11.47649441       0.00000155      -0.00000020       0.00000043
Fe      -0.00000026      -0.00000005      -0.00000013       0.00000789      -0.00000331      -0.00000140
I        1.96079044       1.38648858       7.65099638       0.00138997       0.00098252      -0.00000008
I        6.87381829       4.86052369       7.65099665      -0.00139342      -0.00098553      -0.00000037
I        5.64556109       1.38648854       5.52359263      -0.00069602       0.00098422       0.00120449
I        3.18904725       4.86052378       9.77839992       0.00069221      -0.00098047      -0.00119988
I        3.18904710       4.86052369       5.52359286       0.00069415      -0.00098332       0.00120411
I        5.64556157       1.38648858       9.77839968      -0.00069701       0.00098502      -0.00120788
