9
Lattice="5.888357613449036 -6.099109898951856e-08 3.399644686425319 1.9627858160021678 5.551596340240629 3.3996446823455604 4.5006628382962834e-08 2.6827828200890263e-08 6.7992892948968935" Properties=species:S:1:pos:R:3:forces:R:3 energy=-24.604305267333984 free_energy=-24.604305267333984 stress="0.00019363209139555693 2.2482616657271137e-08 -5.257360324861793e-09 2.2482616657271137e-08 0.00019346512272022665 5.383408829828795e-09 -5.257360324861793e-09 5.383408829828795e-09 0.00019355842960067093" pbc="T T T"
S        1.96278621       1.38789780       3.39964529       0.00000060      -0.00000239       0.00000227
S        5.88835691       4.16369878      10.19893583      -0.00000265       0.00000342       0.00000517
Fe       0.00000015      -0.00000011      -0.00000028      -0.00000069       0.00000288       0.00000295
Cl       1.81095173       1.28053552       6.79928895       0.00397375       0.00280988       0.00000134
Cl       6.04019226       4.27106037       6.79928867      -0.00397441      -0.00281039       0.00000130
Cl       4.98288180       1.28053565       4.96797424      -0.00198705       0.00281119       0.00343841
Cl       2.86826161       4.27106072       8.63060352       0.00198463      -0.00281355      -0.00344461
Cl       2.86826152       4.27106057       4.96797427       0.00198877      -0.00281039       0.00343838
Cl       4.98288177       1.28053593       8.63060410      -0.00198258       0.00280944      -0.00344545
