9
Lattice="4.1197800807165565 6.768159778603377e-08 2.378556202473047 1.373260121444303 3.8841659606693733 2.378556149250663 4.024982852487952e-08 -3.672291658448177e-08 4.7571123352313505" Properties=species:S:1:pos:R:3:forces:R:3 energy=-27.532093048095703 free_energy=-27.532093048095703 stress="7.29880848666653e-05 -4.09790743560734e-08 -1.6883127784694807e-07 -4.09790743560734e-08 7.263502629939467e-05 -2.7355110177040842e-08 -1.6883127784694807e-07 -2.7355110177040842e-08 7.340890442719683e-05" pbc="T T T"
S        1.37325997       0.97104148       2.37855616       0.00000245       0.00000060      -0.00000390
S        4.11978013       2.91312449       7.13566843      -0.00000483       0.00000124       0.00002123
Ga       0.00000002       0.00000017       0.00000013       0.00000100      -0.00000589      -0.00001173
F        1.57709851       1.11517709       4.75711237       0.00164030       0.00116034      -0.00000396
F        3.91594179       2.76898880       4.75711229      -0.00164302      -0.00115730      -0.00000761
F        3.33123084       1.11517704       3.74436368      -0.00082545       0.00117040       0.00141922
F        2.16180927       2.76898887       5.76986108       0.00082104      -0.00115594      -0.00142018
F        2.16180926       2.76898894       3.74436359       0.00083116      -0.00116797       0.00142728
F        3.33123099       1.11517710       5.76986113      -0.00082131       0.00115462      -0.00142083
