9
Lattice="6.624403161499414 8.199509099783701e-08 3.8246010091693217 2.2081345260266163 6.24554775597109 3.824600902553914 3.242736691551095e-07 9.871944264297963e-08 7.649201456680135" Properties=species:S:1:pos:R:3:forces:R:3 energy=-14.881415367126465 free_energy=-14.881415367126465 stress="0.0001902340882224962 -3.994513164684577e-09 3.0617641755270597e-09 -3.994513164684577e-09 0.0001901665673358366 -2.1269347172392372e-08 3.0617641755270597e-09 -2.1269347172392372e-08 0.0001902208459796384" pbc="T T T"
S        2.20813596       1.56138732       3.82459966       0.00000481      -0.00000035      -0.00000204
S        6.62440605       4.68415861      11.47380308       0.00000702      -0.00000428       0.00000116
Ga      -0.00000013       0.00000021      -0.00000014      -0.00000104      -0.00000000      -0.00000072
I        2.28328924       1.61453054       7.64920159       0.00257075       0.00182417       0.00000044
I        6.54924737       4.63101833       7.64920166      -0.00257328      -0.00181825      -0.00000075
I        5.48275787       1.61453036       5.80198840      -0.00128649       0.00182089       0.00222802
I        3.34977927       4.63101813       9.49641543       0.00128339      -0.00182141      -0.00223014
I        3.34977862       4.63101802       5.80198832       0.00128406      -0.00182003       0.00223058
I        5.48275780       1.61453025       9.49641547      -0.00128907       0.00181933      -0.00222674
