9
Lattice="6.1674863911724565 9.841319806748784e-08 3.5608001764927137 2.0558287441795664 5.814762647305743 3.5608004287880366 -2.304000802816091e-07 1.4607993437086546e-07 7.121600752050082" Properties=species:S:1:pos:R:3:forces:R:3 energy=-16.655826568603516 free_energy=-16.655826568603516 stress="-3.218880692656967e-06 4.001270870190865e-09 1.0501729347245359e-10 4.001270870190865e-09 -3.1990571187634487e-06 1.4503919842923096e-08 1.0501729347245359e-10 1.4503919842923096e-08 -3.231685923310579e-06" pbc="T T T"
S        2.05582912       1.45369090       3.56079921       0.00000147       0.00000241      -0.00000404
S        6.16748785       4.36107369      10.68240161       0.00000490       0.00000379       0.00000275
Ga      -0.00000021       0.00000014      -0.00000050      -0.00000138      -0.00000007       0.00000379
Br       2.05057512       1.44997570       7.12160107      -0.00016522      -0.00011659       0.00000240
Br       6.17273929       4.36478679       7.12160037       0.00016516       0.00011709      -0.00000050
Br       5.14219861       1.44997536       5.33665075       0.00008297      -0.00011885      -0.00014284
Br       3.08111546       4.36478662       8.90655110      -0.00008281       0.00011167       0.00013933
Br       3.08111589       4.36478666       5.33665102      -0.00008483       0.00011674      -0.00014234
Br       5.14219843       1.44997570       8.90655083       0.00007980      -0.00011629       0.00014138
