9
Lattice="6.1674864856791105 1.4104426815268393e-07 3.5608002886176946 2.055828953228685 5.8147624744193624 3.5608003030090063 1.8137723479679424e-08 3.0451009105394396e-08 7.12160054581995" Properties=species:S:1:pos:R:3:forces:R:3 energy=-16.655824661254883 free_energy=-16.655824661254883 stress="-3.1563963602820877e-06 1.9414045926424706e-09 1.4886126997737392e-08 1.9414045926424706e-09 -3.1714621400169563e-06 6.100338900694169e-09 1.4886126997737392e-08 6.100338900694169e-09 -3.158890194754349e-06" pbc="T T T"
S        2.05582913       1.45368963       3.56079927       0.00000198      -0.00000274      -0.00000370
S        6.16748830       4.36107247      10.68240147       0.00000392       0.00000108       0.00000231
Ga      -0.00000010       0.00000028      -0.00000081      -0.00000296       0.00000048       0.00000392
Br       2.05057520       1.44997596       7.12160092      -0.00016585      -0.00011545       0.00000139
Br       6.17273976       4.36478696       7.12160048       0.00016457       0.00011936      -0.00000042
Br       5.14219868       1.44997571       5.33665093       0.00008355      -0.00011876      -0.00014418
Br       3.08111594       4.36478675       8.90655100      -0.00008275       0.00011432       0.00013936
Br       3.08111653       4.36478703       5.33665075      -0.00008386       0.00011933      -0.00014141
Br       5.14219841       1.44997584       8.90655060       0.00008136      -0.00011760       0.00014263
