9
Lattice="5.728785615780106 -1.3717648271816605e-07 3.3075160635161263 1.9095951104009212 5.401150811515957 3.3075160038086837 -1.9603254297715122e-08 -8.69879780608236e-08 6.615032160986094" Properties=species:S:1:pos:R:3:forces:R:3 energy=-20.01689910888672 free_energy=-20.01689910888672 stress="-9.231751027982682e-05 -1.053117415494853e-08 1.621715384203526e-08 -1.053117415494853e-08 -9.234731987817213e-05 2.1328407484588752e-08 1.621715384203526e-08 2.1328407484588752e-08 -9.235503966920078e-05" pbc="T T T"
S        1.90959496       1.35028675       3.30751618      -0.00000016      -0.00000230       0.00000105
S        5.72878533       4.05086293       9.92254845       0.00000124      -0.00000123       0.00000026
Ga       0.00000012       0.00000004       0.00000020      -0.00000143       0.00000519      -0.00000298
Cl       1.90472179       1.34684139       6.61503229       0.00132251       0.00093707       0.00000032
Cl       5.73365909       4.05430917       6.61503198      -0.00132498      -0.00093588      -0.00000009
Cl       4.77642506       1.34684179       4.95705318      -0.00066082       0.00093767       0.00114220
Cl       2.86195607       4.05430973       8.27301078       0.00066322      -0.00093526      -0.00114894
Cl       2.86195584       4.05430915       4.95705318       0.00066139      -0.00093743       0.00114962
Cl       4.77642445       1.34684136       8.27301065      -0.00066091       0.00093210      -0.00114152
