9
Lattice="4.119780003751811 3.9334577637509874e-08 2.378556198067552 1.3732600148736984 3.8841658388775144 2.3785562387047583 -3.637093887816726e-08 2.405207236236291e-08 4.7571124591314256" Properties=species:S:1:pos:R:3:forces:R:3 energy=-27.53209686279297 free_energy=-27.53209686279297 stress="6.73943359288387e-05 5.418388226985371e-08 1.0888505386219549e-07 5.418388226985371e-08 6.74074690323323e-05 -8.789898231498228e-08 1.0888505386219549e-07 -8.789898231498228e-08 6.786437006667256e-05" pbc="T T T"
S        1.37325999       0.97104159       2.37855624       0.00000413      -0.00000322      -0.00000263
S        4.11977991       2.91312428       7.13566839      -0.00000140      -0.00000962       0.00002365
Ga      -0.00000002       0.00000013       0.00000014      -0.00001665      -0.00001495      -0.00000916
F        1.57709830       1.11517683       4.75711259       0.00156930       0.00111085      -0.00000303
F        3.91594133       2.76898871       4.75711261      -0.00153090      -0.00108299      -0.00001693
F        3.33123085       1.11517697       3.74436365      -0.00078368       0.00111085       0.00135036
F        2.16180947       2.76898902       5.76986141       0.00076027      -0.00110695      -0.00134662
F        2.16180928       2.76898887       3.74436351       0.00077866      -0.00110483       0.00134870
F        3.33123077       1.11517706       5.76986118      -0.00078027       0.00110044      -0.00134405
