9
Lattice="5.7287805836936965 -7.506788597883423e-08 3.3075132136306737 1.9095934409336641 5.401146248930465 3.3075132416717548 -9.661264385218405e-08 -3.397226704470228e-08 6.615026594599321" Properties=species:S:1:pos:R:3:forces:R:3 energy=-20.016895294189453 free_energy=-20.016895294189453 stress="-9.331000910606235e-05 -3.5221489724790445e-08 -1.2082415068448427e-08 -3.5221489724790445e-08 -9.33272676775232e-05 -4.529661978835975e-09 -1.2082415068448427e-08 -4.529661978835975e-09 -9.327448788098991e-05" pbc="T T T"
S        1.90959365       1.35028589       3.30751320       0.00000148       0.00000019       0.00000077
S        5.72878027       4.05085984       9.92253919      -0.00000123      -0.00000073      -0.00000123
Ga       0.00000004       0.00000023       0.00000015      -0.00000077      -0.00000269       0.00000043
Cl       1.90472112       1.34684099       6.61502640       0.00132269       0.00093523       0.00000172
Cl       5.73365269       4.05430526       6.61502670      -0.00132030      -0.00093362       0.00000139
Cl       4.77642032       1.34684119       4.95705023      -0.00066069       0.00093475       0.00114599
Cl       2.86195389       4.05430514       8.27300307       0.00066015      -0.00093508      -0.00114587
Cl       2.86195404       4.05430494       4.95704996       0.00066005      -0.00093549       0.00114384
Cl       4.77641969       1.34684106       8.27300326      -0.00066146       0.00093731      -0.00114706
