9
Lattice="4.0627822943278185 2.0316759675438424e-08 2.3456484690156145 1.354260818809588 3.8304277490737464 2.3456484086037204 1.0394700309903502e-07 -4.875340967393718e-10 4.691296757989737" Properties=species:S:1:pos:R:3:forces:R:3 energy=-23.287904739379883 free_energy=-23.287904739379883 stress="0.0009594306466169655 -1.6012945991406013e-07 -6.862614299052439e-08 -1.6012945991406013e-07 0.000959328783210367 -1.5352931370671286e-07 -6.862614299052439e-08 -1.5352931370671286e-07 0.0009597792522981763" pbc="T T T"
S        1.35426076       0.95760698       2.34564886      -0.00000807      -0.00000179       0.00000411
S        4.06278239       2.87282077       7.03694481       0.00001319       0.00000309      -0.00000122
Ge      -0.00000012       0.00000011      -0.00000003      -0.00000202       0.00000222      -0.00000627
F        1.48732583       1.05169793       4.69129691       0.00262749       0.00185871      -0.00000203
F        3.92971746       2.77872970       4.69129688      -0.00263464      -0.00186002      -0.00000294
F        3.31911960       1.05169805       3.63371027      -0.00131410       0.00185561       0.00227904
F        2.09792363       2.77872969       5.74888326       0.00131190      -0.00185359      -0.00227606
F        2.09792378       2.77872978       3.63371002       0.00131786      -0.00185919       0.00228417
F        3.31911953       1.05169806       5.74888351      -0.00131136       0.00185633      -0.00228059
