9
Lattice="6.2418456696114415 -4.303197235935351e-08 3.603731272105388 2.0806151444877283 5.884868462083837 3.6037313381747262 -6.857233222577356e-08 3.2430139380726164e-08 7.207462662981561" Properties=species:S:1:pos:R:3:forces:R:3 energy=-18.238162994384766 free_energy=-18.238162994384766 stress="-1.1914850801986177e-05 -2.2851162739812025e-08 -2.0326528016312295e-08 -2.2851162739812025e-08 -1.1878181794600096e-05 1.5934583430521343e-08 -2.0326528016312295e-08 1.5934583430521343e-08 -1.1878970326506533e-05" pbc="T T T"
S        2.08061517       1.47121645       3.60373226      -0.00000055       0.00000015       0.00000302
S        6.24184430       4.41365169      10.81119548      -0.00000305      -0.00000030       0.00000294
Ge       0.00000006       0.00000001       0.00000011       0.00000386      -0.00000070      -0.00000430
Br       1.96005147       1.38596567       7.20746238      -0.00007245      -0.00005265      -0.00000059
Br       6.36240947       4.49890279       7.20746184       0.00007036       0.00005046      -0.00000192
Br       5.26181996       1.38596577       5.30118540       0.00003690      -0.00005154      -0.00006539
Br       3.06064134       4.49890287       9.11373928      -0.00003751       0.00005540       0.00006689
Br       3.06064116       4.49890271       5.30118518      -0.00003436       0.00005132      -0.00006409
Br       5.26182011       1.38596588       9.11373913       0.00003690      -0.00005235       0.00006340
