9
Lattice="6.694590225246119 -2.9216682601355902e-08 3.8651233338669337 2.231530059327406 6.311720204423913 3.865123313444117 1.0500804181461177e-07 4.923917649332814e-08 7.730246485854635" Properties=species:S:1:pos:R:3:forces:R:3 energy=-15.89249038696289 free_energy=-15.89249038696289 stress="8.002581307664514e-05 9.32372490325406e-09 7.515416622361215e-10 9.32372490325406e-09 8.00222551333718e-05 -1.3400261344997944e-08 7.515416622361215e-10 -1.3400261344997944e-08 8.002191316336393e-05" pbc="T T T"
S        2.23153207       1.57792833       3.86512254       0.00000450      -0.00000489      -0.00000078
S        6.69459108       4.73379033      11.59537053       0.00000385       0.00000120       0.00000097
Ge      -0.00000031       0.00000083       0.00000112      -0.00000085       0.00000060       0.00000130
I        2.39795994       1.69561408       7.73024642       0.00191742       0.00135580       0.00000046
I        6.52815913       4.61610664       7.73024618      -0.00191975      -0.00135311      -0.00000142
I        5.49560993       1.69561370       5.94181763      -0.00096045       0.00135645       0.00166097
I        3.43051062       4.61610567       9.51867459       0.00095794      -0.00135621      -0.00166240
I        3.43050971       4.61610674       5.94181822       0.00095870      -0.00135523       0.00166231
I        5.49560933       1.69561454       9.51867521      -0.00096136       0.00135556      -0.00166145
