9
Lattice="6.493538908123517 -1.3577966126173985e-07 3.749046350253661 2.164512829768197 6.122167059948458 3.7490463703316332 -8.438923314009025e-08 -3.5081813242300305e-08 7.498092846673783" Properties=species:S:1:pos:R:3:forces:R:3 energy=-21.041311264038086 free_energy=-21.041311264038086 stress="-2.6414663807372563e-06 -2.935917731150539e-09 -8.713556542971901e-10 -2.935917731150539e-09 -2.652044031492551e-06 6.014380549146381e-09 -8.713556542971901e-10 6.014380549146381e-09 -2.626608420541743e-06" pbc="T T T"
S        2.16451274       1.53054215       3.74904663      -0.00000082       0.00000261       0.00000048
S        6.49353858       4.59162527      11.24713861      -0.00000060      -0.00000014      -0.00000015
Ir      -0.00000005      -0.00000009       0.00000008       0.00000075      -0.00000092      -0.00000159
I        2.17762926       1.53981651       7.49809283      -0.00015200      -0.00010793      -0.00000034
I        6.48042262       4.58235028       7.49809281       0.00015253       0.00010704       0.00000012
I        5.40472409       1.53981620       5.63492861       0.00007607      -0.00010801      -0.00013186
I        3.25332773       4.58235045       9.36125703      -0.00007658       0.00010854       0.00013398
I        3.25332743       4.58235070       5.63492864      -0.00007595       0.00010701      -0.00013215
I        5.40472427       1.53981608       9.36125702       0.00007662      -0.00010816       0.00013156
