9
Lattice="4.120997703849392 2.733304242328734e-07 2.3792594218867165 1.3736661278756648 3.88531348920841 2.379259475763737 -9.397219336975382e-07 -5.984980602220547e-07 4.758520471419467" Properties=species:S:1:pos:R:3:forces:R:3 energy=-31.614681243896484 free_energy=-31.614681243896484 stress="-0.000867474649567157 5.919567342971277e-07 1.75600496277184e-06 5.919567342971277e-07 -0.0008631714736111462 7.219331337182666e-07 1.75600496277184e-06 7.219331337182666e-07 -0.000867544615175575" pbc="T T T"
S        1.37366653       0.97132913       2.37925891      -0.00001578       0.00002119      -0.00001542
S        4.12099637       2.91398395       7.13778034       0.00000634      -0.00002072       0.00001526
Ir       0.00000009       0.00000005      -0.00000011      -0.00003075      -0.00000220       0.00003758
F        1.61983887       1.14539798       4.75851909      -0.00266981      -0.00179946       0.00006323
F        3.87482371       2.73991489       4.75852025       0.00271034       0.00184333      -0.00002627
F        3.31107815       1.14539685       3.78208064       0.00135803      -0.00178206      -0.00222778
F        2.18358433       2.73991674       5.73495929      -0.00130200       0.00170100       0.00216150
F        2.18358542       2.73991404       3.78208270      -0.00137305       0.00190222      -0.00232017
F        3.31107778       1.14539880       5.73495674       0.00131822      -0.00186384       0.00231051
