9
Lattice="5.971650638703077 -1.620140046783816e-07 3.447734338498485 1.9905502105005506 5.630125998884088 3.4477340780884327 6.72214653411987e-08 -2.714031079256028e-07 6.895468560566026" Properties=species:S:1:pos:R:3:forces:R:3 energy=-24.894351959228516 free_energy=-24.894351959228516 stress="-0.00019916829478461295 2.5209502041434462e-08 -1.986218300942255e-08 2.5209502041434462e-08 -0.00019906906527467072 -3.3520983322432585e-08 -1.986218300942255e-08 -3.3520983322432585e-08 -0.0001990032906178385" pbc="T T T"
S        1.99054984       1.40753133       3.44773463      -0.00000192      -0.00000009       0.00000192
S        5.97165092       4.22259449      10.34320388       0.00000130       0.00000023       0.00000225
Ir       0.00000028       0.00000021      -0.00000026      -0.00000776      -0.00000322       0.00000706
Cl       1.86837756       1.32114232       6.89546855       0.00684321       0.00483763      -0.00000295
Cl       6.09382333       4.30898291       6.89546813      -0.00683880      -0.00483111      -0.00000123
Cl       5.03746164       1.32114211       5.06579670      -0.00341746       0.00483450       0.00592059
Cl       2.92473880       4.30898368       8.72513969       0.00342354      -0.00484011      -0.00592387
Cl       2.92473935       4.30898319       5.06579625       0.00341904      -0.00483483       0.00592297
Cl       5.03746197       1.32114190       8.72514033      -0.00342077       0.00483686      -0.00592685
