9
Lattice="6.213412794984562 2.112789558910046e-08 3.5873153677083187 2.071137582099847 5.858061850486395 3.587315430318335 7.447039000993338e-09 8.194713708425864e-08 7.174630722517975" Properties=species:S:1:pos:R:3:forces:R:3 energy=-22.663619995117188 free_energy=-22.663619995117188 stress="-7.311397439480061e-06 1.3966201528603506e-08 -8.801539941316605e-09 1.3966201528603506e-08 -7.3278879426652566e-06 1.586377962325969e-08 -8.801539941316605e-09 1.586377962325969e-08 -7.313309197343187e-06" pbc="T T T"
S        2.07113769       1.46451519       3.58731501      -0.00000030      -0.00000050      -0.00000001
S        6.21341376       4.39354728      10.76194701       0.00000211       0.00000101       0.00000178
Ir      -0.00000012       0.00000001       0.00000003      -0.00000261      -0.00000167      -0.00000083
Br       2.01243910       1.42300944       7.17463063       0.00403641       0.00285446      -0.00000006
Br       6.27211108       4.43505238       7.17463079      -0.00403495      -0.00285293      -0.00000049
Br       5.20719309       1.42300962       5.33013876      -0.00201749       0.00285400       0.00349502
Br       3.07735694       4.43505236       9.01912260       0.00201731      -0.00285378      -0.00349523
Br       3.07735712       4.43505219       5.33013883       0.00201835      -0.00285478       0.00349686
Br       5.20719282       1.42300930       9.01912253      -0.00201882       0.00285417      -0.00349699
