9
Lattice="3.4572082453786295 -1.694542782733738 1.2073958634705835 1.845187299545839 3.4717165047393403 1.0704656421385017 2.0187936054821405 0.2026765619714017 3.603875853113282" Properties=species:S:1:pos:R:3:forces:R:3 energy=-103670288.0 free_energy=-103670288.0 stress="1502098.875 249039.125 -1420836.75 249039.125 7318070.5 505114.84375 -1420836.75 505114.84375 1881641.125" pbc="T T T"
S       -0.84834754      -3.50808234      -0.28549597 -4889226.00000000 -22700506.00000000 4510439.00000000
S        2.33792926      -0.02382958       2.39066040 698994560.00000000 601646976.00000000 -452760000.00000000
Mn      -0.99246010      -2.75725096      -2.28734986 -20365754.00000000 -82508344.00000000 28255174.00000000
F        2.30525072       0.44055230       2.46374001 90273032.00000000 -389892800.00000000 -44908528.00000000
F        2.35307021       0.78194137       1.48608576 -1594559.50000000 -4295510.00000000 17299914.00000000
F        1.59933334       0.08144110       1.21797080 12871514.00000000  825234.50000000 33738252.00000000
F        2.42203451       0.03754885       2.26621212 -818276288.00000000 -14316798.00000000 489702496.00000000
F        2.02884542       0.91403712       2.18379591 42394412.00000000 -96059296.00000000 -73090048.00000000
F        4.29216482      -0.52641025       2.55215582  592397.62500000 7300946.00000000 -2747698.75000000
