9
Lattice="5.822809274088038 -5.692090410162851e-08 3.3618007842085267 1.940936495839016 5.489799058937237 3.3618005680337792 2.3762460116001773e-07 -9.673296243200936e-08 6.723601156839131" Properties=species:S:1:pos:R:3:forces:R:3 energy=-26.995635986328125 free_energy=-26.995635986328125 stress="-2.3140670236898586e-05 -2.821946765152461e-08 -6.773158389705713e-08 -2.821946765152461e-08 -2.3128399334382266e-05 -1.9432389031237562e-09 -6.773158389705713e-08 -1.9432389031237562e-09 -2.3131518901209347e-05" pbc="T T T"
S        1.94093672       1.37245022       3.36180139       0.00000092       0.00000172       0.00000230
S        5.82280963       4.11734939      10.08540005       0.00000015       0.00000292      -0.00000504
Mn      -0.00000001      -0.00000008       0.00000016       0.00000081      -0.00000166       0.00000386
Cl       1.83374516       1.29665377       6.72360139       0.00284465       0.00200845       0.00000001
Cl       5.93000104       4.19314505       6.72360158      -0.00284474      -0.00201105       0.00000105
Cl       4.90593656       1.29665354       4.94987083      -0.00142135       0.00200789       0.00246093
Cl       2.85780920       4.19314527       8.49733192       0.00142247      -0.00201050      -0.00246257
Cl       2.85780869       4.19314486       4.94987033       0.00141995      -0.00200979       0.00246201
Cl       4.90593718       1.29665366       8.49733236      -0.00142273       0.00201195      -0.00246282
