9
Lattice="6.612178606868173 -3.268454986980365e-07 3.8175423443045817 2.2040592639157395 6.234020542734231 3.817542281178401 -2.1346795008255426e-07 -2.2825812337062353e-07 7.635085058346475" Properties=species:S:1:pos:R:3:forces:R:3 energy=-21.769573211669922 free_energy=-21.769573211669922 stress="-3.297424336778931e-05 -1.4760962230297991e-08 -7.159986381566341e-09 -1.4760962230297991e-08 -3.304187339381315e-05 -9.027597003274934e-10 -7.159986381566341e-09 -9.027597003274934e-10 -3.304488564026542e-05" pbc="T T T"
S        2.20405996       1.55850584       3.81754210      -0.00000409       0.00000522      -0.00000111
S        6.61216069       4.67552501      11.45262340      -0.00003582       0.00002066      -0.00000874
Mn       0.00000130      -0.00000067       0.00000054      -0.00000287      -0.00000614      -0.00000325
I        2.04674661       1.44726074       7.63508465       0.00075996       0.00051939       0.00000016
I        6.76949600       4.78675409       7.63508679      -0.00074315      -0.00052725       0.00000435
I        5.58880727       1.44726304       5.59007408      -0.00037423       0.00052509       0.00065044
I        3.22743550       4.78675402       9.68009861       0.00038670      -0.00053176      -0.00064114
I        3.22743632       4.78675402       5.59007186       0.00038692      -0.00053129       0.00064337
I        5.58880699       1.44726383       9.68009680      -0.00037341       0.00052598      -0.00064427
