9
Lattice="5.639234381069002 -8.326249864224945e-08 3.255813335701025 1.8797448460645552 5.316722386206279 3.25581310901799 6.839896563441167e-08 -2.2926354352446823e-07 6.511626552931543" Properties=species:S:1:pos:R:3:forces:R:3 energy=-17.899694442749023 free_energy=-17.899694442749023 stress="-4.226367309456691e-06 -7.667135371036693e-09 2.5111196677585212e-08 -7.667135371036693e-09 -4.217611149215372e-06 4.5951555449619264e-08 2.5111196677585212e-08 4.5951555449619264e-08 -4.1910548134183045e-06" pbc="T T T"
S        1.87974362       1.32918212       3.25581661      -0.00000518       0.00001127       0.00001218
S        5.63923417       3.98754097       9.76743886      -0.00000048       0.00000327      -0.00000392
N        0.00000164       0.00001101      -0.00000127       0.00001779       0.00013048      -0.00000802
Cl       1.80595729       1.27700449       6.51162569      -0.00049588      -0.00035597      -0.00000561
Cl       5.71301677       4.03971289       6.51162627       0.00043690       0.00029974       0.00000111
Cl       4.73625556       1.27700496       4.81981814       0.00024223      -0.00034887      -0.00042242
Cl       2.78272605       4.03971400       8.20343126      -0.00022257       0.00030854       0.00038679
Cl       2.78272592       4.03971353       4.81982194      -0.00022037       0.00030185      -0.00038305
Cl       4.73625635       1.27700430       8.20343441       0.00024744      -0.00035033       0.00042294
