9
Lattice="3.642267454242272 0.757626293449037 2.4301680481463284 1.370594622805484 3.23421024180475 1.7093640456933197 -0.4055718929631124 0.32948641720566096 3.868153492623652" Properties=species:S:1:pos:R:3:forces:R:3 energy=-451554592.0 free_energy=-451554592.0 stress="34297044.0 -10557567.0 24800954.0 -10557567.0 27943802.0 4339561.0 24800954.0 4339561.0 3178231.25" pbc="T T T"
S        0.28273328      -0.38227772       1.74852287 -9585408.00000000 -767145600.00000000 -304726976.00000000
S        5.17304515       3.26639431       6.37147745 -579568960.00000000 2954168320.00000000 2710021632.00000000
N       -2.59335189      -2.19139269       0.08968887 -282196128.00000000 259252848.00000000 81528032.00000000
F        0.28350388      -0.73061901       2.49857497 -1680512768.00000000 -2230094336.00000000 -2971211264.00000000
F        3.72130135       0.22283157       2.48845489 -16555570.00000000 6031454.50000000 -8180826.00000000
F        0.66483252      -1.05912861       2.17716480 -217675744.00000000 401605024.00000000 -98387584.00000000
F        1.81805538       2.70271863       3.41634288 -72760256.00000000 583309760.00000000 -1346050688.00000000
F        2.10231892       0.75270205       2.68549282 25105132.00000000 76499728.00000000 -5632040.00000000
F        3.62077279       0.10990091       4.46331564 2833750272.00000000 -1283627776.00000000 1942638848.00000000
