9
Lattice="6.107298365302409 0.8052201275335624 3.5848206978617743 2.8517787882024863 5.584678312901001 3.6297286820954673 0.967212093982931 0.7715550647000408 5.408613156947493" Properties=species:S:1:pos:R:3:forces:R:3 energy=-36.614810943603516 free_energy=-36.614810943603516 stress="9.026402403833345e-05 7.133714825613424e-05 3.9880058466224e-05 7.133714825613424e-05 2.7691097784554586e-05 -8.53638703119941e-05 3.9880058466224e-05 -8.53638703119941e-05 1.0449277397128753e-05" pbc="T T T"
S        2.38058547       1.27556445       4.37886139       0.00130795      -0.00014693      -0.00117648
S        7.83641894       5.78584201      10.49148645       0.00086202       0.00189066      -0.00025558
N        0.49986425       0.62264113       0.40956283       0.00036524      -0.00217319       0.00265762
F        3.68734674       2.22007623       4.58702869       0.00055218      -0.00078836      -0.00094654
F        6.02974715       4.29172170       6.19214762      -0.00043237      -0.00125742       0.00085692
F        6.94613874       2.83487535       4.43577674      -0.00025813       0.00229936       0.00075945
F        3.15879235       4.51581007       7.34369937      -0.00071551       0.00064892       0.00012079
F        4.11530452       5.50308396       5.03935567      -0.00167236       0.00107792      -0.00213596
F        5.05098402       1.59619566       7.61473260      -0.00000899      -0.00155069       0.00011981
