9
Lattice="4.196934661876729 -2.543191331918356e-07 2.423101379230373 1.3989781980982983 3.956908942807535 2.4231010029476128 -1.1718990539993146e-07 -5.437163064755714e-07 4.846202961439572" Properties=species:S:1:pos:R:3:forces:R:3 energy=-26.053789138793945 free_energy=-26.053789138793945 stress="-0.00010614134953357279 9.993279803666155e-08 1.4350973742693895e-07 9.993279803666155e-08 -0.00010586228017928079 -1.2383685543682077e-07 1.4350973742693895e-07 -1.2383685543682077e-07 -0.00010614526399876922" pbc="T T T"
S        1.39897770       0.98922700       2.42310140       0.00000031       0.00000353      -0.00000090
S        4.19693332       2.96768221       7.26930194       0.00000945      -0.00000744       0.00001289
Ni       0.00000123      -0.00000022       0.00000043      -0.00001810      -0.00001360       0.00001053
F        1.43736436       1.01637189       4.84621068       0.00448811       0.00316827      -0.00004791
F        4.15854885       2.94053694       4.84619809      -0.00447926      -0.00316134       0.00000413
F        3.47824746       1.01636913       3.66789420      -0.00220917       0.00317480       0.00390276
F        2.11766284       2.94054078       6.02450803       0.00223774      -0.00319432      -0.00387338
F        2.11765957       2.94053489       3.66789621       0.00223817      -0.00314474       0.00387901
F        3.47825564       1.01637037       6.02450978      -0.00226741       0.00317460      -0.00388685
