9
Lattice="6.118180578294795 1.5158164768771587e-07 3.5323333371047294 2.0393936283290146 5.768276296497708 3.532333407567643 7.24964139960586e-08 1.3756180487044036e-07 7.064666548641956" Properties=species:S:1:pos:R:3:forces:R:3 energy=-18.585529327392578 free_energy=-18.585529327392578 stress="-4.961153990734601e-06 -2.741118443339019e-09 -4.341716319800071e-09 -2.741118443339019e-09 -4.945374257658841e-06 -8.51230463894126e-09 -4.341716319800071e-09 -8.51230463894126e-09 -4.951900791638764e-06" pbc="T T T"
S        2.03939386       1.44206947       3.53233350       0.00000104       0.00000160       0.00000053
S        6.11818080       4.32620788      10.59699901       0.00000029       0.00000178      -0.00000207
Ni      -0.00000006      -0.00000010      -0.00000022      -0.00000062      -0.00000087      -0.00000042
Br       1.95225536       1.38045319       7.06466671       0.00002593       0.00001812      -0.00000000
Br       6.20531900       4.38782332       7.06466692      -0.00002506      -0.00001836       0.00000055
Br       5.14205289       1.38045284       5.22303601      -0.00001420       0.00001806       0.00002286
Br       3.01552140       4.38782367       8.90629770       0.00001372      -0.00001940      -0.00002173
Br       3.01552087       4.38782340       5.22303584       0.00001246      -0.00001872       0.00002265
Br       5.14205301       1.38045262       8.90629771      -0.00001347       0.00001797      -0.00002232
