9
Lattice="5.732721597640806 -1.9339839622099663e-09 3.309788295044683 1.910907249159043 5.404861460835002 3.309788205378425 3.988991058568288e-08 -8.161182499517364e-08 6.6195765209980015" Properties=species:S:1:pos:R:3:forces:R:3 energy=-20.626773834228516 free_energy=-20.626773834228516 stress="-2.8209713491378352e-05 4.04767969142128e-10 3.858102282094933e-09 4.04767969142128e-10 -2.819738074322231e-05 9.051686511440948e-09 3.858102282094933e-09 9.051686511440948e-09 -2.82171258731978e-05" pbc="T T T"
S        1.91090777       1.35121541       3.30978821       0.00000233       0.00000040      -0.00000012
S        5.73272234       4.05364574       9.92936543       0.00000207      -0.00000108       0.00000215
Ni      -0.00000015       0.00000001      -0.00000014      -0.00000190       0.00000004      -0.00000090
Cl       1.84015605       1.30118705       6.61957659       0.00073510       0.00052153      -0.00000022
Cl       5.80347258       4.10367454       6.61957629      -0.00073558      -0.00052026      -0.00000043
Cl       4.81264359       1.30118667       4.90340986      -0.00036812       0.00052112       0.00063667
Cl       2.83098483       4.10367472       8.33574295       0.00036757      -0.00052112      -0.00063697
Cl       2.83098504       4.10367490       4.90340988       0.00036713      -0.00052091       0.00063685
Cl       4.81264350       1.30118656       8.33574305      -0.00036858       0.00052002      -0.00063652
