9
Lattice="6.11029180539888 -1.171987749817358e-08 3.5277786399624373 2.0367638747665384 5.76083835963258 3.527778725381682 -8.859938559802341e-08 4.1967519500694176e-08 7.055557433383552" Properties=species:S:1:pos:R:3:forces:R:3 energy=-27.077011108398438 free_energy=-27.077011108398438 stress="-1.140216500061797e-05 3.078154620084206e-08 -1.183082787292733e-08 3.078154620084206e-08 -1.1397106391086709e-05 2.17890061549042e-09 -1.183082787292733e-08 2.17890061549042e-09 -1.1425756383687258e-05" pbc="T T T"
S        2.03676395       1.44020928       3.52777938       0.00000118      -0.00000129       0.00000080
S        6.11029231       4.32062882      10.58333637       0.00000425      -0.00000084      -0.00000085
Os       0.00000042       0.00000043      -0.00000025      -0.00000871      -0.00000499       0.00000265
Cl       1.86680021       1.32002715       7.05555731       0.00043666       0.00030914       0.00000036
Cl       6.28025545       4.44081091       7.05555760      -0.00043261      -0.00030550      -0.00000109
Cl       5.17689131       1.32002695       5.14447465      -0.00021869       0.00030914       0.00037974
Cl       2.97016352       4.44081165       8.96663958       0.00021863      -0.00030881      -0.00038004
Cl       2.97016394       4.44081135       5.14447478       0.00021824      -0.00030690       0.00037783
Cl       5.17689140       1.32002706       8.96663974      -0.00021875       0.00030991      -0.00038010
