9
Lattice="4.266064237149542 1.264665666549488e-07 2.463013554311096 1.4220214581605073 4.022084740243478 2.4630136815414776 -6.378050380691629e-08 1.1072512951165098e-07 4.926027219093254" Properties=species:S:1:pos:R:3:forces:R:3 energy=-31.481691360473633 free_energy=-31.481691360473633 stress="0.0001655612577451393 -2.3027713780265913e-07 3.818946936462453e-09 -2.3027713780265913e-07 0.00016507747932337224 -1.6665295277107361e-07 3.818946936462453e-09 -1.6665295277107361e-07 0.00016520502686034888" pbc="T T T"
S        1.42202183       1.00552070       2.46301397       0.00000342      -0.00000092       0.00000201
S        4.26606379       3.01656410       7.38904018      -0.00000419       0.00000294      -0.00000031
Os      -0.00000011       0.00000011      -0.00000008       0.00000479       0.00000001       0.00000095
F        1.59435401       1.12737920       4.92602729      -0.00405858      -0.00287060      -0.00000182
F        4.09373172       2.89470588       4.92602733       0.00405621       0.00286783      -0.00000244
F        3.46888751       1.12737915       3.84376517       0.00202661      -0.00286620      -0.00351139
F        2.21919823       2.89470586       6.00828943      -0.00203254       0.00287086       0.00351500
F        2.21919845       2.89470586       3.84376514      -0.00202588       0.00286790      -0.00351596
F        3.46888718       1.12737902       6.00828952       0.00203015      -0.00287170       0.00351376
