9
Lattice="6.545132387869137 1.3551806736652877e-07 3.778833919101939 2.1817109257727987 6.170810654370239 3.7788339155533834 1.0552936819540423e-07 7.027444431158993e-08 7.55766765542163" Properties=species:S:1:pos:R:3:forces:R:3 energy=-22.142864227294922 free_energy=-22.142864227294922 stress="-2.7879425488208653e-06 -1.4483672927667612e-08 -1.1091483287373194e-09 -1.4483672927667612e-08 -2.777590225377935e-06 -1.2619784328649075e-08 -1.1091483287373194e-09 -1.2619784328649075e-08 -2.771359959297115e-06" pbc="T T T"
S        2.18171221       1.54270404       3.77883337       0.00000290       0.00000174      -0.00000082
S        6.54513357       4.62810604      11.33650217       0.00000347      -0.00000448       0.00000089
Os      -0.00000022       0.00000002       0.00000013       0.00000125       0.00000055      -0.00000370
I        2.19937349       1.55519288       7.55766775       0.00139634       0.00099206       0.00000038
I        6.52746912       4.61561833       7.55766766      -0.00139929      -0.00098960      -0.00000114
I        5.44544499       1.55519253       5.68354773      -0.00070062       0.00099054       0.00120968
I        3.28139773       4.61561801       9.43178766       0.00069629      -0.00098929      -0.00120918
I        3.28139791       4.61561861       5.68354758       0.00069835      -0.00099063       0.00121133
I        5.44544490       1.55519293       9.43178794      -0.00069872       0.00098915      -0.00120738
