9
Lattice="6.633551257687933 -2.7015544531961663e-07 3.8298822113368964 2.2111836305278474 6.254171298842074 3.829881981545183 -1.2599849619054598e-07 -3.7053047752255607e-07 7.659764640909516" Properties=species:S:1:pos:R:3:forces:R:3 energy=-18.382312774658203 free_energy=-18.382312774658203 stress="-0.00012528430670499802 4.6037711420865435e-09 7.111588651298462e-09 4.6037711420865435e-09 -0.0001253216905752197 4.190150004745874e-09 7.111588651298462e-09 4.190150004745874e-09 -0.00012532614346127957" pbc="T T T"
S        2.21118272       1.56354241       3.82988398       0.00000057       0.00000066      -0.00000066
S        6.63355171       4.69063145      11.48964789      -0.00000114       0.00000035       0.00000267
P       -0.00000037      -0.00000024      -0.00000051       0.00001222      -0.00000484       0.00000395
Br       1.86673262       1.31997815       7.65976346       0.00653028       0.00461656       0.00000023
Br       6.97800226       4.93419179       7.65976440      -0.00653291      -0.00462061      -0.00000018
Br       5.70018525       1.31997903       5.44651908      -0.00326675       0.00461906       0.00565910
Br       3.14454975       4.93419058       9.87300850       0.00326356      -0.00461787      -0.00565517
Br       3.14455028       4.93419238       5.44651968       0.00326204      -0.00461495       0.00565153
Br       5.70018480       1.31997718       9.87300859      -0.00326830       0.00462157      -0.00566155
