9
Lattice="6.629424326374839 -2.5087098359607677e-07 3.827499219206475 2.2098080736381234 6.250280385114389 3.827498870423593 -1.5843214151196668e-07 -5.391985614705296e-07 7.654998712825382" Properties=species:S:1:pos:R:3:forces:R:3 energy=-18.38232421875 free_energy=-18.38232421875 stress="-3.1964807476470014e-06 -1.4203339837592921e-08 3.695680206305951e-08 -1.4203339837592921e-08 -3.13422856379475e-06 2.2790512588244383e-08 3.695680206305951e-08 2.2790512588244383e-08 -3.128143589492538e-06" pbc="T T T"
S        2.20980875       1.56256989       3.82750050      -0.00000031      -0.00000183       0.00000131
S        6.62942441       4.68770768      11.48250674      -0.00000015       0.00000109       0.00000194
P        0.00000016       0.00000056      -0.00000133      -0.00000335      -0.00000757      -0.00001064
Br       1.86756853       1.32057036       7.65499783      -0.00000501      -0.00000560      -0.00000182
Br       6.97166315       4.92970961       7.65499618       0.00001097       0.00000924      -0.00000100
Br       5.69564007       1.32057073       5.44485989       0.00000235      -0.00000477      -0.00000638
Br       3.14359213       4.92970912       9.86513357      -0.00000763       0.00001299       0.00001448
Br       3.14359263       4.92970962       5.44485943      -0.00000453       0.00000739      -0.00001025
Br       5.69563918       1.32057080       9.86513414       0.00000790      -0.00001091       0.00001210
