9
Lattice="5.8606620543713674 7.29311491002571e-08 3.3836547374523165 1.9535540827808513 5.525485200592849 3.383654744559101 -1.4776146964011395e-08 -1.7443747129155665e-09 6.7673095004977" Properties=species:S:1:pos:R:3:forces:R:3 energy=-21.951065063476562 free_energy=-21.951065063476562 stress="0.00029343433561734855 2.8387475481395086e-08 -4.1822755036946546e-08 2.8387475481395086e-08 0.0002934479562100023 3.613629573351318e-08 -4.1822755036946546e-08 3.613629573351318e-08 0.0002933036594185978" pbc="T T T"
S        1.95355374       1.38137170       3.38365455       0.00000005      -0.00000064       0.00000096
S        5.86066170       4.14411418      10.15096373      -0.00000182      -0.00000126      -0.00000030
P        0.00000016      -0.00000016      -0.00000015       0.00000242       0.00000035      -0.00000021
Cl       1.75252793       1.23922420       6.76730933      -0.00306392      -0.00216854       0.00000039
Cl       6.06168816       4.28626106       6.76730936       0.00306451       0.00217006      -0.00000080
Cl       4.98439820       1.23922444       4.90138861       0.00153291      -0.00216585      -0.00265414
Cl       2.82981796       4.28626050       8.63323091      -0.00153169       0.00216430       0.00265425
Cl       2.82981802       4.28626091       4.90138858      -0.00153211       0.00216523      -0.00265062
Cl       4.98439867       1.23922430       8.63323094       0.00152987      -0.00216332       0.00264984
