9
Lattice="5.8649168452934966 -2.635310966123481e-07 3.386111145744666 1.9549720133879047 5.529497058966733 3.386111180242106 1.1614995952216695e-07 1.243810049400335e-07 6.7722220903117085" Properties=species:S:1:pos:R:3:forces:R:3 energy=-21.95093536376953 free_energy=-21.95093536376953 stress="0.00037240839446894825 -3.58515990228625e-08 -6.816786690677645e-09 -3.58515990228625e-08 0.0003725936112459749 3.461062902943013e-08 -6.816786690677645e-09 3.461062902943013e-08 0.0003723473637364805" pbc="T T T"
S        1.95497258       1.38237427       3.38611133       0.00000093      -0.00000071       0.00000009
S        5.86491692       4.14712256      10.15833316       0.00000072      -0.00000149      -0.00000074
P       -0.00000012       0.00000008       0.00000005      -0.00000003       0.00000001       0.00000166
Cl       1.75222313       1.23900910       6.77222217      -0.00096178      -0.00067994       0.00000116
Cl       6.06766587       4.29048756       6.77222216       0.00095934       0.00068122       0.00000081
Cl       4.98880495       1.23900883       4.90358059       0.00048265      -0.00067994      -0.00083071
Cl       2.83108378       4.29048813       8.64086375      -0.00047946       0.00068137       0.00083125
Cl       2.83108355       4.29048826       4.90358124      -0.00048086       0.00067976      -0.00083345
Cl       4.98880522       1.23900885       8.64086335       0.00047860      -0.00068027       0.00082952
