9
Lattice="4.236633338179546 -1.4503547962619663e-07 2.4460214076104716 1.412211026011139 3.9943360429669137 2.4460213209639545 -1.953437993977865e-08 -1.1993275519537824e-07 4.892042849055463" Properties=species:S:1:pos:R:3:forces:R:3 energy=-24.928264617919922 free_energy=-24.928264617919922 stress="-5.572427835431881e-05 -1.1767507857030068e-07 4.6154109867302395e-08 -1.1767507857030068e-07 -5.546282045543194e-05 -5.407774139598587e-08 4.6154109867302395e-08 -5.407774139598587e-08 -5.564114690059796e-05" pbc="T T T"
S        1.41221122       0.99858508       2.44602040      -0.00000098       0.00002478      -0.00003326
S        4.23663303       2.99575228       7.33806346       0.00000023       0.00003090      -0.00003113
Pd       0.00000020       0.00003182      -0.00003729      -0.00000264      -0.00306595       0.00362486
F        1.53552163       1.08577986       4.89204014      -0.00006849      -0.00023085       0.00021093
F        4.11330072       2.90854494       4.89204005       0.00200254       0.00123903       0.00021121
F        3.46886452       1.08579084       3.77583337       0.00073561      -0.00122473      -0.00106198
F        2.17997484       2.90855621       6.00825531      -0.00030580       0.00025126       0.00073916
F        2.17999084       2.90853366       3.77585266      -0.00170681       0.00223246      -0.00273860
F        3.46888036       1.08576855       6.00827429      -0.00065395       0.00074306      -0.00092077
