9
Lattice="5.9364228345868115 -4.349091912707288e-08 3.427395253660861 1.9788075813697639 5.596913102805602 3.4273952348776957 1.4428020531796323e-08 -1.2802385138586402e-08 6.854790482331633" Properties=species:S:1:pos:R:3:forces:R:3 energy=-20.704299926757812 free_energy=-20.704299926757812 stress="0.0001242591388290748 -4.3096402890796526e-08 1.499122070924841e-08 -4.3096402890796526e-08 0.00012432129005901515 -1.814770378416597e-08 1.499122070924841e-08 -1.814770378416597e-08 0.00012415979290381074" pbc="T T T"
S        1.97880774       1.39922858       3.42739518       0.00000111       0.00000264      -0.00000040
S        5.93642276       4.19768555      10.28218482      -0.00000046       0.00000138      -0.00000303
Pd      -0.00000005      -0.00000019       0.00000025       0.00000154      -0.00000169      -0.00000336
Cl       1.90271328       1.34542106       6.85479061      -0.00638735      -0.00451824       0.00000122
Cl       6.01251722       4.25149178       6.85479064       0.00638676       0.00451708       0.00000087
Cl       4.98506611       1.34542119       5.07519348       0.00319439      -0.00451887      -0.00553143
Cl       2.93016415       4.25149141       8.63438784      -0.00319353       0.00451797       0.00553536
Cl       2.93016424       4.25149127       5.07519327      -0.00319719       0.00451997      -0.00553352
Cl       4.98506618       1.34542158       8.63438787       0.00319448      -0.00452009       0.00553444
