9
Lattice="6.181207964177179 -9.363241989782786e-08 3.5687218919131594 2.0604025792372203 5.827698192442624 3.568721869761971 1.3977506054310426e-07 7.170636873827253e-08 7.137443541728824" Properties=species:S:1:pos:R:3:forces:R:3 energy=-19.029342651367188 free_energy=-19.029342651367188 stress="-1.1932488632737659e-05 1.3194352277423604e-08 -6.861993639972752e-09 1.3194352277423604e-08 -1.193757816508878e-05 1.1949114586684573e-08 -6.861993639972752e-09 1.1949114586684573e-08 -1.19401020128862e-05" pbc="T T T"
S        2.06040262       1.45692486       3.56872242       0.00000054       0.00000080       0.00000194
S        6.18120870       4.37077390      10.70616637       0.00000155      -0.00000032       0.00000209
Pd       0.00000003      -0.00000001      -0.00000001      -0.00000083      -0.00000509       0.00000069
Br       2.03684739       1.44026841       7.13744291      -0.00034635      -0.00024481      -0.00000103
Br       6.20476316       4.38742970       7.13744352       0.00034919       0.00024611       0.00000010
Br       5.16278464       1.44026844       5.33268308       0.00017339      -0.00024490      -0.00029968
Br       3.07882586       4.38742974       8.94220397      -0.00017475       0.00024633       0.00030136
Br       3.07882626       4.38742960       5.33268291      -0.00017413       0.00024514      -0.00030212
Br       5.16278405       1.44026799       8.94220407       0.00017138      -0.00024331       0.00029656
