9
Lattice="6.4914805848373 4.7339301924872335e-08 3.747858317027883 2.1638269027123065 6.1202267837630115 3.7478583231455698 6.143272121452458e-08 5.093209383146151e-08 7.495716527651178" Properties=species:S:1:pos:R:3:forces:R:3 energy=-17.590665817260742 free_energy=-17.590665817260742 stress="0.00018900317081715912 1.972375374137414e-09 4.230226391399583e-09 1.972375374137414e-09 0.00018899621500167996 4.8389048323826955e-09 4.230226391399583e-09 4.8389048323826955e-09 0.00018898322014138103" pbc="T T T"
S        2.16382612       1.53005685       3.74785869      -0.00000224       0.00000004       0.00000156
S        6.49148038       4.59017093      11.24357533      -0.00000044       0.00000189       0.00000028
Pd       0.00000010      -0.00000000       0.00000009       0.00000080      -0.00000083      -0.00000230
I        2.20510660       1.55924532       7.49571644       0.00512643       0.00362385      -0.00000053
I        6.45020144       4.56098127       7.49571643      -0.00512595      -0.00362469      -0.00000031
I        5.38892761       1.55924510       5.65753627      -0.00256368       0.00362461       0.00444072
I        3.26638015       4.56098136       9.33389672       0.00256291      -0.00362377      -0.00443903
I        3.26637995       4.56098138       5.65753605       0.00256423      -0.00362577       0.00443995
I        5.38892785       1.55924534       9.33389662      -0.00256203       0.00362464      -0.00444036
