9
Lattice="6.175003198266781 1.091525013780271 4.456939545939355 3.532891704255948 5.789473520049256 3.8954221798289255 1.3942003594549686 0.4967971641585481 6.300500095393651" Properties=species:S:1:pos:R:3:forces:R:3 energy=-40.90361022949219 free_energy=-40.90361022949219 stress="-0.00034789065830409527 0.00031554806628264487 -0.00019721448188647628 0.00031554806628264487 -0.0003491390380077064 5.7398505305172876e-05 -0.00019721448188647628 5.7398505305172876e-05 -0.0005850177840329707" pbc="T T T"
S        3.41297367       1.46899061       1.99805729      -0.01877563      -0.00085410       0.00737396
S        7.95552657       5.78310129      11.83937347      -0.02309150       0.00283054       0.01073104
P       -1.18675237       0.33634898      -0.98152420       0.02760589      -0.00495393       0.00743419
F        5.84730530       3.36633031      10.28808427       0.00514439      -0.01272586      -0.00954127
F        6.54399612       4.65343227       7.02984763       0.01792067       0.00552947      -0.00837260
F        4.83921912       0.83056143       4.91516257       0.01314278      -0.00798644      -0.03020054
F        4.21961142       5.18163864       8.62744955      -0.02523891       0.02874219       0.03799307
F        4.95464446       5.38007234       5.32838098       0.02289870       0.00127968      -0.01863860
F        7.82257503       2.51079510       9.56647077      -0.01960620      -0.01186129       0.00322070
