9
Lattice="4.189394171840817 -1.875969460379632e-06 2.4187472505225416 1.3964632776867822 3.949796768157342 2.418746692073116 2.776419041604441e-06 1.2792689294835197e-06 4.837489692140589" Properties=species:S:1:pos:R:3:forces:R:3 energy=-27.248746871948242 free_energy=-27.248746871948242 stress="-0.00024889857741072774 5.7687416301632766e-06 1.0572196060820716e-06 5.7687416301632766e-06 -0.00024306727573275566 5.284992425913515e-07 1.0572196060820716e-06 5.284992425913515e-07 -0.0002325983514310792" pbc="T T T"
S        1.39651431       0.98751177       2.41840329       0.00060044       0.00042311      -0.00247093
S        4.18955915       2.96241952       7.25591053       0.00140780       0.00049283      -0.00237194
P       -0.00033630      -0.00016350       0.00084339      -0.00044016      -0.00030936       0.00156747
F        1.50773745       1.06610291       4.83740954      -0.00293922      -0.00202256       0.00040860
F        4.07808909       2.88363645       4.83740102       0.00226343       0.00180137       0.00041028
F        3.43549964       1.06622775       3.72449318       0.00089526      -0.00175476      -0.00175619
F        2.15033903       2.88375345       5.95050548      -0.00156534       0.00188768       0.00289321
F        2.15043420       2.88359780       3.72447311      -0.00136054       0.00156415      -0.00168788
F        3.43560715       1.06609782       5.95049730       0.00113821      -0.00208169       0.00300658
