9
Lattice="6.583511200439042 1.969821789794262e-07 3.8009920136633784 2.194503833933818 6.206993868436749 3.800992161342176 2.3706748610415176e-07 3.485009152201042e-07 7.601983616713841" Properties=species:S:1:pos:R:3:forces:R:3 energy=-16.32735252380371 free_energy=-16.32735252380371 stress="-3.6802823160542175e-05 -2.238200069726304e-09 -4.79132378217173e-09 -2.238200069726304e-09 -3.679173460113816e-05 -1.4284426086419444e-08 -4.79132378217173e-09 -1.4284426086419444e-08 -3.676698179333471e-05" pbc="T T T"
S        2.19450704       1.55174579       3.80099270       0.00000827      -0.00000762       0.00000356
S        6.58351129       4.65524169      11.40297861       0.00000092      -0.00001144       0.00000623
P       -0.00000053       0.00000078       0.00000014      -0.00000001       0.00000071       0.00000004
I        2.28003924       1.61223300       7.60198337      -0.00205782      -0.00144875      -0.00000124
I        6.49797505       4.59476336       7.60198375       0.00205216       0.00145635      -0.00000272
I        5.44349110       1.61223244       5.77556285       0.00102507      -0.00144795      -0.00178361
I        3.33452342       4.59476374       9.42840287      -0.00102814       0.00145474       0.00177613
I        3.33452328       4.59476372       5.77556389      -0.00102584       0.00145358      -0.00177887
I        5.44349124       1.61223312       9.42840288       0.00102547      -0.00144979       0.00178027
