9
Lattice="6.583849853463784 8.589804635745899e-09 3.8011880238305 2.1946166923656096 6.207312669386485 3.801187908743101 1.0288682562030691e-07 -6.820079316739056e-08 7.602375869455788" Properties=species:S:1:pos:R:3:forces:R:3 energy=-16.327356338500977 free_energy=-16.327356338500977 stress="-5.511081326403655e-06 7.829071613230099e-09 9.62346291544236e-09 7.829071613230099e-09 -5.514811164175626e-06 -3.832096240330429e-08 9.62346291544236e-09 -3.832096240330429e-08 -5.556442829401931e-06" pbc="T T T"
S        2.19461295       1.55181980       3.80118820      -0.00000972      -0.00002176       0.00000471
S        6.58384640       4.65547805      11.40357158      -0.00000888      -0.00001736       0.00001711
P        0.00000060       0.00000026      -0.00000160      -0.00000007      -0.00000021      -0.00000243
I        2.27979087       1.61205611       7.60237369      -0.00044096      -0.00030765      -0.00000205
I        6.49867937       4.59526068       7.60237370       0.00044027       0.00031716      -0.00000809
I        5.44395663       1.61205636       5.77554239       0.00022602      -0.00030208      -0.00038490
I        3.33451070       4.59526190       9.42920788      -0.00021844       0.00032029       0.00037706
I        3.33451363       4.59526042       5.77554370      -0.00021259       0.00032052      -0.00038406
I        5.44395540       1.61205688       9.42920775       0.00022432      -0.00030884       0.00038272
