9
Lattice="5.857896824925148 -8.904940762671096e-08 3.3820583883499507 1.9526322395656368 5.522877847207743 3.3820583042637984 -2.0330149161238305e-08 -1.1735969965278952e-07 6.764116811912771" Properties=species:S:1:pos:R:3:forces:R:3 energy=-23.751667022705078 free_energy=-23.751667022705078 stress="-4.67892677988857e-05 2.6908722361440596e-08 6.5780803026882495e-09 2.6908722361440596e-08 -4.682061626226641e-05 1.2894195933199626e-08 6.5780803026882495e-09 1.2894195933199626e-08 -4.6799286792520434e-05" pbc="T T T"
S        1.95263180       1.38071956       3.38205850       0.00000070       0.00000126      -0.00000088
S        5.85789739       4.14215830      10.14617474       0.00000114       0.00000151      -0.00000165
Rh       0.00000001      -0.00000006      -0.00000016       0.00000093       0.00000188       0.00000021
Cl       1.87104006       1.32302494       6.76411711       0.00246462       0.00174233       0.00000110
Cl       5.93948897       4.19985297       6.76411690      -0.00246546      -0.00174329       0.00000100
Cl       4.92237710       1.32302463       5.00242688      -0.00123209       0.00174168       0.00213444
Cl       2.88815206       4.19985274       8.52580679       0.00123303      -0.00174183      -0.00213444
Cl       2.88815207       4.19985267       5.00242619       0.00123020      -0.00174695       0.00213611
Cl       4.92237678       1.32302477       8.52580703      -0.00123326       0.00174320      -0.00213632
