9
Lattice="6.151324018803459 -3.5157984461871586e-08 3.5514684895868083 2.0504412899945295 5.799523751262539 3.551468518095228 -1.148182433387995e-07 -4.627320243455741e-08 7.102937178044599" Properties=species:S:1:pos:R:3:forces:R:3 energy=-21.743125915527344 free_energy=-21.743125915527344 stress="-2.0013836547150277e-05 -4.465341429948921e-09 -3.974760520719656e-09 -4.465341429948921e-09 -2.0015968402731232e-05 3.1715210457861076e-09 -3.974760520719656e-09 3.1715210457861076e-09 -2.00226713786833e-05" pbc="T T T"
S        2.05044142       1.44988118       3.55146848       0.00000063       0.00000045      -0.00000080
S        6.15132385       4.34964202      10.65440542      -0.00000003      -0.00000159      -0.00000062
Rh       0.00000008       0.00000010      -0.00000002      -0.00000022      -0.00000044       0.00000126
Br       2.00778796       1.41972067       7.10293729       0.00117664       0.00083235       0.00000074
Br       6.19397702       4.37980313       7.10293713      -0.00117460      -0.00083029       0.00000016
Br       5.14742992       1.41972063       5.29026399      -0.00058817       0.00083102       0.00101793
Br       3.05433529       4.37980319       8.91561031       0.00058710      -0.00083198      -0.00101840
Br       3.05433537       4.37980308       5.29026403       0.00058731      -0.00083166       0.00101776
Br       5.14742985       1.41972066       8.91561010      -0.00058865       0.00083205      -0.00101813
