9
Lattice="4.137004204985169 -1.6816153601308615e-08 2.3885005812300397 1.3790015227324581 3.900404653353392 2.388500344068752 5.169740798531856e-07 7.50938066655084e-08 4.777000267034753" Properties=species:S:1:pos:R:3:forces:R:3 energy=-30.851879119873047 free_energy=-30.851879119873047 stress="-5.130173667566851e-05 3.757350270916504e-07 2.1103982561498924e-08 3.757350270916504e-07 -5.1649240049300715e-05 -6.636129228354548e-07 2.1103982561498924e-08 -6.636129228354548e-07 -5.170339863980189e-05" pbc="T T T"
S        1.37900349       0.97510343       2.38850127      -0.00012639      -0.00011189      -0.00001271
S        4.13700720       2.92530627       7.16550053      -0.00011683      -0.00012657      -0.00001972
Rh       0.00002077       0.00002055       0.00000337      -0.00258896      -0.00263894      -0.00044014
F        1.49880592       1.05981604       4.77700128       0.00161886       0.00112081      -0.00001891
F        4.01716439       2.84056469       4.77700066       0.00203776       0.00140727      -0.00001666
F        3.38759649       1.05982684       3.68651559      -0.00019407       0.00006962       0.00017405
F        2.12841713       2.84057475       5.86747822      -0.00038648       0.00034142       0.00050569
F        2.12841563       2.84057764       3.68652050      -0.00022614       0.00011289      -0.00026822
F        3.38759437       1.05982878       5.86748333      -0.00001729      -0.00017440       0.00009537
