9
Lattice="6.22440552256799 2.946076457516106e-08 3.5936623350181582 2.0748018305705167 5.868426168626667 3.593662400942355 -4.672480719088294e-08 4.770088809369663e-08 7.187324750966085" Properties=species:S:1:pos:R:3:forces:R:3 energy=-23.074434280395508 free_energy=-23.074434280395508 stress="-3.651997758424841e-05 2.8465054313642213e-08 -9.971930836627507e-09 2.8465054313642213e-08 -3.655568070826121e-05 -4.1200029499144364e-10 -9.971930836627507e-09 -4.1200029499144364e-10 -3.6562461900757626e-05" pbc="T T T"
S        2.07480132       1.46710642       3.59366293      -0.00000222      -0.00000086       0.00000133
S        6.22440499       4.40131942      10.78098720      -0.00000139      -0.00000025      -0.00000014
Ru       0.00000010       0.00000001      -0.00000022       0.00000098      -0.00000038      -0.00000074
Br       2.01872196       1.42745185       7.18732472       0.00161305       0.00114053      -0.00000080
Br       6.28048576       4.44097425       7.18732489      -0.00161193      -0.00113955      -0.00000054
Br       5.21504484       1.42745187       5.34192646      -0.00080802       0.00114292       0.00139904
Br       3.08416261       4.44097467       9.03272277       0.00080830      -0.00114161      -0.00139810
Br       3.08416287       4.44097466       5.34192646       0.00080889      -0.00114357       0.00139916
Br       5.21504485       1.42745186       9.03272290      -0.00080763       0.00114286      -0.00139908
