9
Lattice="4.156564966933396 -5.492582387895846e-07 2.3997927512642883 1.3855211565983345 3.9188476212324685 2.399792718702831 -2.8330334525264666e-06 -2.043136795850086e-06 4.799590409486899" Properties=species:S:1:pos:R:3:forces:R:3 energy=-29.366073608398438 free_energy=-29.366073608398438 stress="0.0004417264135554433 8.32044861454051e-07 -3.933862444682745e-06 8.32044861454051e-07 0.00044044011156074703 -2.7756170766224386e-06 -3.933862444682745e-06 -2.7756170766224386e-06 0.0004441464552655816" pbc="T T T"
S        1.38551557       0.97973157       2.39979888      -0.00009807      -0.00027119       0.00013604
S        4.15654135       2.93914305       7.19943384       0.00023629      -0.00001437      -0.00082726
Ru       0.00001615      -0.00000629      -0.00002217       0.00015355      -0.00027986      -0.00009518
F        1.55936402       1.10263714       4.79958829       0.00130752       0.00106320      -0.00009098
F        3.98271909       2.81620797       4.79956241      -0.00127968      -0.00075197       0.00087729
F        3.37689177       1.10263900       3.75023040      -0.00079983       0.00045282       0.00126398
F        2.16520071       2.81619229       5.84892857       0.00092341      -0.00076698      -0.00131163
F        2.16521489       2.81620415       3.75024615       0.00004277      -0.00067744       0.00125259
F        3.37686959       1.10263180       5.84893677      -0.00048564       0.00124586      -0.00120497
