9
Lattice="6.510560552930945 2.045864714150572e-07 3.758873665360776 2.1701869160934777 6.138215837192505 3.7588738866640394 -1.3310632926256535e-08 2.6162795549878074e-07 7.517747353776256" Properties=species:S:1:pos:R:3:forces:R:3 energy=-21.236629486083984 free_energy=-21.236629486083984 stress="-6.095150183682563e-06 -1.6423081783401017e-09 1.0139361350525178e-08 -1.6423081783401017e-09 -6.106421551521635e-06 -6.007129016438739e-09 1.0139361350525178e-08 -6.007129016438739e-09 -6.116561507951701e-06" pbc="T T T"
S        2.17018711       1.53455380       3.75887421       0.00000023      -0.00000051       0.00000132
S        6.51056054       4.60366223      11.27662090      -0.00000016       0.00000020      -0.00000066
Ru       0.00000013       0.00000017      -0.00000012      -0.00000241      -0.00000047      -0.00000181
I        2.18609750       1.54580463       7.51774697       0.00150648       0.00106438       0.00000029
I        6.49464997       4.59241188       7.51774763      -0.00150439      -0.00106462       0.00000003
I        5.41751179       1.54580443       5.65208956      -0.00075427       0.00106470       0.00130372
I        3.26323563       4.59241170       9.38340529       0.00075427      -0.00106443      -0.00130387
I        3.26323536       4.59241152       5.65208999       0.00075270      -0.00106373       0.00130373
I        5.41751178       1.54580496       9.38340516      -0.00075264       0.00106454      -0.00130259
