9
Lattice="5.987065340243304 -1.0533549219415513e-07 3.4566335483426722 1.9956884532366606 5.644658295107963 3.4566333650914083 2.074550390473515e-07 -7.774317700968162e-08 6.9132667373626955" Properties=species:S:1:pos:R:3:forces:R:3 energy=-25.54631233215332 free_energy=-25.54631233215332 stress="0.00012423808220773935 -1.3712342372684816e-08 1.5829645150233773e-08 -1.3712342372684816e-08 0.00012423557927832007 -2.691018741174389e-09 1.5829645150233773e-08 -2.691018741174389e-09 0.00012419489212334156" pbc="T T T"
S        1.99568841       1.41116448       3.45663313      -0.00000013       0.00000004       0.00000003
S        5.98706633       4.23349279      10.36989955       0.00000185      -0.00000301      -0.00000155
Ru      -0.00000010      -0.00000013       0.00000033      -0.00000025       0.00000163       0.00000008
Cl       1.86804520       1.32090724       6.91326691       0.00121599       0.00086111       0.00000249
Cl       6.11470897       4.32375082       6.91326704      -0.00121707      -0.00086021      -0.00000030
Cl       5.05304289       1.32090727       5.07440823      -0.00060764       0.00086233       0.00105339
Cl       2.92971079       4.32375126       8.75212557       0.00060773      -0.00086316      -0.00105697
Cl       2.92971059       4.32375111       5.07440804       0.00060573      -0.00086191       0.00105560
Cl       5.05304291       1.32090752       8.75212585      -0.00060645       0.00086319      -0.00105238
