9
Lattice="5.761298015029714 4.6819992950654196e-08 3.3262871411170045 1.9204327126421141 5.43180382016862 3.3262871466193205 -5.528744189121294e-08 -3.235519647951112e-08 6.652574377994679" Properties=species:S:1:pos:R:3:forces:R:3 energy=-18.457006454467773 free_energy=-18.457006454467773 stress="-7.86626260378398e-05 -1.3388134156855358e-08 -1.1328933346987924e-08 -1.3388134156855358e-08 -7.879785698605701e-05 -1.615432765333935e-08 -1.1328933346987924e-08 -1.615432765333935e-08 -7.863057544454932e-05" pbc="T T T"
S        1.92043305       1.35795108       3.32628761      -0.00000130      -0.00000105       0.00000204
S        5.76129791       4.07385301       9.97886211       0.00000141      -0.00000152       0.00000016
Se      -0.00000010       0.00000009      -0.00000022       0.00000015      -0.00000076      -0.00000330
Cl       1.91938440       1.35720981       6.65257407       0.00427744       0.00302483      -0.00000094
Cl       5.76234621       4.07459395       6.65257428      -0.00427720      -0.00302391       0.00000032
Cl       4.80160569       1.35720970       4.98852274      -0.00213522       0.00302392       0.00370176
Cl       2.88012488       4.07459400       8.31662571       0.00213566      -0.00302154      -0.00369947
Cl       2.88012498       4.07459402       4.98852274       0.00213554      -0.00302237       0.00369948
Cl       4.80160568       1.35720970       8.31662559      -0.00213648       0.00302264      -0.00370017
