9
Lattice="6.28937422256657 -4.591661009358933e-07 3.6311718915875977 2.0964577746681594 5.929677871756933 3.631171660557607 4.348495171852975e-08 -2.5220430978408094e-07 7.262343707857039" Properties=species:S:1:pos:R:3:forces:R:3 energy=-15.694500923156738 free_energy=-15.694500923156738 stress="8.595154213253409e-05 -1.4537564929639757e-08 7.889582320785848e-09 -1.4537564929639757e-08 8.597599662607536e-05 1.2894497913862324e-08 7.889582320785848e-09 1.2894497913862324e-08 8.598139538662508e-05" pbc="T T T"
S        2.09645857       1.48241988       3.63117202       0.00000198       0.00000213       0.00000080
S        6.28937481       4.44725744      10.89351704       0.00000174      -0.00000070       0.00000403
Se       0.00000044       0.00000023       0.00000118      -0.00000312      -0.00000008      -0.00000570
Br       2.10554220       1.48884290       7.26234358       0.00256538       0.00181477      -0.00000007
Br       6.28028928       4.44083393       7.26234339      -0.00256455      -0.00181359      -0.00000158
Br       5.23660232       1.48884345       5.45462551      -0.00128199       0.00181343       0.00221935
Br       3.14922958       4.44083299       9.07006040       0.00127895      -0.00181164      -0.00221932
Br       3.14922927       4.44083393       5.45462486       0.00128280      -0.00181468       0.00222135
Br       5.23660176       1.48884387       9.07006084      -0.00128120       0.00181036      -0.00221887
