9
Lattice="3.6392088244528966 -1.5847521725676579 1.7273032120788503 0.8981195854199984 2.059859978045575 1.5135644653359213 -0.8035377203309075 0.12845736722534162 3.7691360733134824" Properties=species:S:1:pos:R:3:forces:R:3 energy=-53187368.0 free_energy=-53187368.0 stress="-5039544.5 -97253.6328125 -168527.03125 -97253.6328125 -6939567.0 1052221.5 -168527.03125 1052221.5 -3837002.75" pbc="T T T"
S        1.15829069      -1.31185949       3.38794073 -15179970.00000000 -12051602.00000000 15428273.00000000
S        3.72073695      -1.42691845       6.33419100 8987373568.00000000 -4785636352.00000000 4262613504.00000000
Se       1.14268977      -0.90585895       1.39395590 -31223648.00000000 -54268296.00000000 -5354471.50000000
F        0.44849495      -1.27333565       4.48261189 13918481.00000000 -35295028.00000000 3903755.00000000
F        3.18862475      -1.97611662       2.87868405 -34841836.00000000 -12960965.00000000 12555444.00000000
F        5.43420060      -3.76026026       2.18980942 17416240.00000000 2919394.75000000 1628207.87500000
F        1.37142963       0.12655581       5.76973771 -11160371.00000000 17520688.00000000 2164124.25000000
F       -0.65798092       0.87281968       3.86360786 9944459.00000000 -7201038.00000000 6657074.00000000
F       -1.61646143      -1.76584681       6.86350271 -8936247296.00000000 4886976000.00000000 -4299601920.00000000
