9
Lattice="6.652889982814888 -6.546769671089445e-08 3.8410476355054737 2.2176299530478154 6.272405114891395 3.8410475999989364 4.430077943290359e-08 -1.216109818925204e-08 7.682095194279715" Properties=species:S:1:pos:R:3:forces:R:3 energy=-14.459179878234863 free_energy=-14.459179878234863 stress="7.147559517761692e-05 6.057748525023499e-09 1.1757235185427817e-08 6.057748525023499e-09 7.145682320697233e-05 -1.1161417623473113e-10 1.1757235185427817e-08 -1.1161417623473113e-10 7.147630822146311e-05" pbc="T T T"
S        2.21763019       1.56810049       3.84104783       0.00000076      -0.00000102      -0.00000088
S        6.65289024       4.70430418      11.52314213       0.00000020       0.00000068      -0.00000082
Se       0.00000010       0.00000017       0.00000011       0.00000067       0.00000100       0.00000038
I        2.37350584       1.67832201       7.68209540       0.00025579       0.00018018       0.00000055
I        6.49701424       4.59408322       7.68209522      -0.00025639      -0.00017980       0.00000032
I        5.46613672       1.67832186       5.89656383      -0.00012843       0.00018007       0.00022200
I        3.40438317       4.59408284       9.46762633       0.00012854      -0.00018087      -0.00022194
I        3.40438231       4.59408349       5.89656409       0.00012714      -0.00018060       0.00022244
I        5.46613711       1.67832182       9.46762678      -0.00012843       0.00018036      -0.00022212
