9
Lattice="5.730419737969277 -7.230629265755096e-07 3.3084591756438706 1.9101391846633684 5.402690081129892 3.3084592558078163 7.540391130598519e-08 1.5149899570287933e-07 6.61691822068431" Properties=species:S:1:pos:R:3:forces:R:3 energy=-24.21562385559082 free_energy=-24.21562385559082 stress="-6.081941319280304e-05 -4.121527297229477e-08 -6.134433849780407e-09 -4.121527297229477e-08 -6.079645754653029e-05 1.2803876847655715e-09 -6.134433849780407e-09 1.2803876847655715e-09 -6.087098518037237e-05" pbc="T T T"
S        1.91014006       1.35067215       3.30845906      -0.00000098       0.00000089      -0.00000080
S        5.73041921       4.05201722       9.92537749       0.00000063      -0.00000141       0.00000105
Si      -0.00000011       0.00000018      -0.00000018       0.00000031      -0.00000083       0.00000309
Cl       1.78084634       1.25924824       6.61691841       0.00249249       0.00176415      -0.00000077
Cl       5.85971262       4.14344093       6.61691829      -0.00249255      -0.00176308       0.00000086
Cl       4.83999654       1.25924773       4.85071717      -0.00124559       0.00176102       0.00215912
Cl       2.80056245       4.14344190       8.38311935       0.00124627      -0.00176319      -0.00216126
Cl       2.80056216       4.14344162       4.85071757       0.00124565      -0.00176260       0.00215998
Cl       4.83999680       1.25924812       8.38311944      -0.00124618       0.00176495      -0.00216100
