9
Lattice="3.984100862911476 9.259046512276042e-08 2.3002218203833946 1.328033629540459 3.7562467901208 2.300221956739368 2.6793118181793187e-08 1.8594687754594666e-07 4.6004435943597395" Properties=species:S:1:pos:R:3:forces:R:3 energy=-27.788158416748047 free_energy=-27.788158416748047 stress="0.0002770740247797221 8.527683803549735e-08 -1.0113745929629658e-06 8.527683803549735e-08 0.00027590044192038476 -4.2882643924713193e-07 -1.0113745929629658e-06 -4.2882643924713193e-07 0.0002761376672424376" pbc="T T T"
S        1.32804025       0.93907153       2.30021078       0.00019819       0.00029678      -0.00038657
S        3.98410755       2.81719598       6.90064970       0.00020215       0.00030830      -0.00041311
Si      -0.00000089      -0.00000151       0.00000200      -0.00004299      -0.00005401       0.00008511
F        1.44063576       1.01868191       4.60044661       0.00418568       0.00291944       0.00010018
F        3.87149238       2.73755821       4.60044664      -0.00439525      -0.00314152       0.00009409
F        3.26378004       1.01868358       3.54785630      -0.00219500       0.00298572       0.00382590
F        2.04835071       2.73755887       5.65304020       0.00207078      -0.00308192      -0.00360441
F        2.04835177       2.73755747       3.54785643       0.00213122      -0.00314164       0.00386405
F        3.26378043       1.01868229       5.65304112      -0.00215507       0.00291002      -0.00356460
