9
Lattice="6.600849629843995 -2.571169156018322e-07 3.8110019050747517 2.200282944500448 6.223340407565122 3.811001944973277 -1.686417079198917e-07 -7.038221641995034e-08 7.622004102245526" Properties=species:S:1:pos:R:3:forces:R:3 energy=-17.26302146911621 free_energy=-17.26302146911621 stress="-1.1947752682317514e-05 -9.723711613673913e-09 -7.174712907120906e-11 -9.723711613673913e-09 -1.1908765372936614e-05 1.7875325664107322e-09 -7.174712907120906e-11 1.7875325664107322e-09 -1.1906513464055024e-05" pbc="T T T"
S        2.20028112       1.55583721       3.81100210      -0.00000572       0.00000453       0.00000094
S        6.60085006       4.66750385      11.43300536       0.00000259      -0.00000155      -0.00000240
Si       0.00000014      -0.00000023      -0.00000010       0.00000020       0.00000005      -0.00000033
I        2.19602640       1.55282559       7.62200412      -0.00083730      -0.00059014      -0.00000032
I        6.60510623       4.67051425       7.62200415       0.00083864       0.00058874       0.00000077
I        5.50283633       1.55282489       5.71281705       0.00041975      -0.00059190      -0.00072433
I        3.29829629       4.67051473       9.53119132      -0.00041981       0.00059109       0.00072521
I        3.29829661       4.67051476       5.71281686      -0.00041960       0.00059038      -0.00072461
I        5.50283653       1.55282532       9.53119097       0.00042121      -0.00059124       0.00072508
