9
Lattice="6.175084725397666 7.177203854335491e-08 3.565186515280033 2.058361602624729 5.821925660575715 3.565186584865437 -1.1719618313456769e-07 2.3541389104939838e-09 7.130373233549802" Properties=species:S:1:pos:R:3:forces:R:3 energy=-19.93160629272461 free_energy=-19.93160629272461 stress="7.09634114173241e-05 6.284835762926377e-09 1.871157007116153e-09 6.284835762926377e-09 7.09444866515696e-05 1.2426168538581805e-08 1.871157007116153e-09 1.2426168538581805e-08 7.09700834704563e-05" pbc="T T T"
S        2.05836158       1.45548103       3.56518712      -0.00000060      -0.00000129       0.00000176
S        6.17508526       4.36644377      10.69556071       0.00000133      -0.00000183       0.00000267
Si      -0.00000016       0.00000034      -0.00000039      -0.00000086       0.00000167       0.00000083
Br       1.95343471       1.38128688       7.13037278       0.00367412       0.00259839      -0.00000050
Br       6.28001135       4.44063925       7.13037278      -0.00367433      -0.00259776      -0.00000081
Br       5.19836755       1.38128707       5.25691058      -0.00183600       0.00259767       0.00318067
Br       3.03507845       4.44063889       9.00383563       0.00183688      -0.00259780      -0.00318353
Br       3.03507878       4.44063873       5.25691021       0.00183652      -0.00259731       0.00318144
Br       5.19836730       1.38128702       9.00383588      -0.00183690       0.00259820      -0.00318229
