9
Lattice="6.822919907508057 8.59814761027191e-08 3.93921500379672 2.2743068191123164 6.432711171686731 3.9392148267600513 -1.3595188077071026e-07 -3.129572061023689e-07 7.878430243069028" Properties=species:S:1:pos:R:3:forces:R:3 energy=-22.808456420898438 free_energy=-22.808456420898438 stress="-0.00013814128760714084 4.942223519321942e-09 -4.6154138289011826e-09 4.942223519321942e-09 -0.00013814379053656012 -3.242083046472999e-09 -4.6154138289011826e-09 -3.242083046472999e-09 -0.00013815586862619966" pbc="T T T"
S        2.27430504       1.60817817       3.93921432      -0.00000102       0.00000142      -0.00000250
S        6.82292021       4.82453425      11.81764246      -0.00000205       0.00000162      -0.00000667
Ti       0.00000003       0.00000001       0.00000028       0.00000069      -0.00000148      -0.00000202
I        2.15581195       1.52438859       7.87843054       0.00354104       0.00250272       0.00000065
I        6.94141533       4.90832123       7.87843072      -0.00353864      -0.00250493       0.00000373
I        5.74501415       1.52438894       5.80620348      -0.00177060       0.00250243       0.00306964
I        3.35221276       4.90832100       9.95065732       0.00177048      -0.00250326      -0.00306380
I        3.35221228       4.90832238       5.80620367       0.00176930      -0.00250392       0.00306901
I        5.74501469       1.52438922       9.95065752      -0.00176930       0.00250547      -0.00306802
