9
Lattice="4.074136223439875 -4.322561577898427e-08 2.352203604051067 1.3580453907445935 3.841132368891169 2.352203563027789 -7.57738916444326e-08 -1.0382328548890728e-07 4.704407339346356" Properties=species:S:1:pos:R:3:forces:R:3 energy=-31.999113082885742 free_energy=-31.999113082885742 stress="0.00030216897721402347 -1.069784403284757e-07 -7.332926088565728e-08 -1.069784403284757e-07 0.00030246053938753903 -3.400679293719122e-09 -7.332926088565728e-08 -3.400679293719122e-09 0.00030211321427486837" pbc="T T T"
S        1.35804531       0.96028291       2.35220341      -0.00000304       0.00000466       0.00000677
S        4.07413607       2.88084919       7.05661096       0.00000135       0.00000337      -0.00000381
Ti       0.00000026      -0.00000002      -0.00000007       0.00000140      -0.00000269       0.00000523
F        1.53426510       1.08488902       4.70440717       0.00594020       0.00420332       0.00000134
F        3.89791649       2.75624326       4.70440724      -0.00593436      -0.00420237       0.00000637
F        3.30700367       1.08488909       3.68091619      -0.00297481       0.00420225       0.00514591
F        2.12517776       2.75624324       5.72789836       0.00296813      -0.00420713      -0.00514543
F        2.12517786       2.75624321       3.68091625       0.00296557      -0.00420618       0.00513840
F        3.30700358       1.08488890       5.72789840      -0.00296533       0.00420439      -0.00515258
