9
Lattice="5.932456806842743 1.355885362557509e-07 3.425105690654754 1.9774857386289282 5.5931725648267285 3.4251056759081795 -3.249498181985854e-08 -4.103813859969883e-08 6.850211437592459" Properties=species:S:1:pos:R:3:forces:R:3 energy=-28.373889923095703 free_energy=-28.373889923095703 stress="2.0863597455900162e-05 1.1619476047997068e-08 -5.1427353042754476e-08 1.1619476047997068e-08 2.0885083358734846e-05 -3.975340234774194e-08 -5.1427353042754476e-08 -3.975340234774194e-08 2.0843539459747262e-05" pbc="T T T"
S        1.97748514       1.39829133       3.42510708      -0.00000044      -0.00000383       0.00000263
S        5.93245736       4.19487969      10.27531887       0.00000142       0.00000020       0.00000415
Ti      -0.00000014       0.00000020      -0.00000031       0.00000190      -0.00000018       0.00000027
Cl       1.90177698       1.34476025       6.85021075      -0.00127375      -0.00089926      -0.00000013
Cl       6.00816533       4.24841321       6.85021091       0.00127321       0.00089815      -0.00000397
Cl       4.98156801       1.34475911       5.07209274       0.00063485      -0.00089517      -0.00109929
Cl       2.92837441       4.24841381       8.62832903      -0.00063474       0.00089860       0.00109890
Cl       2.92837468       4.24841374       5.07209285      -0.00063394       0.00090009      -0.00110126
Cl       4.98156813       1.34475933       8.62832928       0.00063163      -0.00089863       0.00109851
