9
Lattice="5.960216637495898 -8.778779286106515e-08 3.4411324856074823 1.9867387950990265 5.619346114202374 3.4411324878576592 -1.2938039402034783e-07 -8.872986353515714e-08 6.882265195308346" Properties=species:S:1:pos:R:3:forces:R:3 energy=-28.119083404541016 free_energy=-28.119083404541016 stress="1.3295718872541329e-06 -5.436064043351507e-09 -2.969727574964054e-09 -5.436064043351507e-09 1.2753177998092724e-06 1.7895448678473258e-08 -2.969727574964054e-09 1.7895448678473258e-08 1.2739441217490821e-06" pbc="T T T"
S        1.98673892       1.40483682       3.44113272       0.00000001      -0.00000027       0.00000018
S        5.96021608       4.21450901      10.32339785      -0.00000021      -0.00000069       0.00000101
V       -0.00000004       0.00000003       0.00000003       0.00000178      -0.00000232       0.00000228
Cl       1.85407724       1.31102965       6.88226542      -0.00202513      -0.00143450       0.00000268
Cl       6.09287807       4.30831645       6.88226507       0.00202686       0.00143525      -0.00000018
Cl       5.03317846       1.31103085       5.04680999       0.00101513      -0.00143394      -0.00175607
Cl       2.91377656       4.30831528       8.71771963      -0.00101304       0.00143415       0.00175479
Cl       2.91377676       4.30831530       5.04681022      -0.00101647       0.00143272      -0.00175649
Cl       5.03317915       1.31103032       8.71771962       0.00101134      -0.00143051       0.00175175
