9
Lattice="5.289110893321046 -5.684429085794358e-07 3.0536692406188632 1.7630365103401897 4.986620230081997 3.0536690988801283 -8.284924155429037e-08 -2.321770500528557e-07 6.1073386247368315" Properties=species:S:1:pos:R:3:forces:R:3 energy=-38.03968811035156 free_energy=-38.03968811035156 stress="-0.0002479030517861247 -8.441791976565582e-08 -2.781422736575223e-08 -8.441791976565582e-08 -0.0002479064278304577 3.735914244629157e-09 -2.781422736575223e-08 3.735914244629157e-09 -0.0002477357047609985" pbc="T T T"
S        1.76303828       1.24665855       3.05366824       0.00000002      -0.00000324      -0.00000041
S        5.28911259       3.73996270       9.16101051      -0.00000238      -0.00000067      -0.00000452
V       -0.00000074       0.00000008      -0.00000001       0.00001666      -0.00000331      -0.00000525
F        1.49016627       1.05370529       6.10733794       0.00445798       0.00315036       0.00000168
F        5.56198049       3.93291263       6.10733782      -0.00447033      -0.00315449       0.00000207
F        4.54402704       1.05370626       4.34419124      -0.00222906       0.00314888       0.00385730
F        2.50811953       3.93291339       7.87048599       0.00222711      -0.00314548      -0.00385274
F        2.50811802       3.93291293       4.34419166       0.00222855      -0.00314391       0.00385457
F        4.54402850       1.05370471       7.87048403      -0.00222879       0.00315209      -0.00385268
