9
Lattice="6.649464990527082 9.918101104259192e-09 3.83907078978029 2.2164883717510677 6.269175206526984 3.8390707339657655 -2.532300258720713e-08 -8.626455588857204e-08 7.678141623421289" Properties=species:S:1:pos:R:3:forces:R:3 energy=-22.144861221313477 free_energy=-22.144861221313477 stress="-1.2648290976358112e-05 3.6400826797233776e-09 3.3383251718532847e-09 3.6400826797233776e-09 -1.2648566553252749e-05 -1.2242909797066659e-08 3.3383251718532847e-09 -1.2242909797066659e-08 -1.269710082851816e-05" pbc="T T T"
S        2.21648713       1.56729227       3.83906969      -0.00000109      -0.00000301      -0.00000488
S        6.64946527       4.70188093      11.51721139      -0.00000176      -0.00000205      -0.00000316
V       -0.00000025      -0.00000000       0.00000003       0.00000258       0.00000051       0.00000057
I        2.12498254       1.50258935       7.67814208      -0.00004213      -0.00002907       0.00000216
I        6.74097085       4.76658653       7.67814197       0.00003923       0.00002897       0.00000179
I        5.58697456       1.50258947       5.67935999       0.00002213      -0.00002761      -0.00003260
I        3.27897960       4.76658594       9.67692369      -0.00001912       0.00002806       0.00003460
I        3.27897951       4.76658646       5.67935990      -0.00002036       0.00003050      -0.00003339
I        5.58697412       1.50258958       9.67692377       0.00002049      -0.00002623       0.00003491
