9
Lattice="6.229742534576168 -4.4819081137131073e-07 3.5967432005731164 2.0765805529048773 5.87345649609324 3.596742974359446 -2.7830629392744095e-07 -4.7384630453918905e-07 7.193486883186848" Properties=species:S:1:pos:R:3:forces:R:3 energy=-21.69744110107422 free_energy=-21.69744110107422 stress="7.389831444015726e-05 2.7671864799572177e-08 -1.625666001814352e-08 2.7671864799572177e-08 7.392435509245843e-05 5.726693785845782e-08 -1.625666001814352e-08 5.726693785845782e-08 7.387797813862562e-05" pbc="T T T"
Sb       2.07657056       1.46836570       3.59675560      -0.00004553       0.00000864       0.00005136
Sb       6.22972854       4.40509461      10.79022716      -0.00006044       0.00001265      -0.00000955
Au       0.00000100      -0.00000023      -0.00000084       0.00000216      -0.00000083       0.00000302
Cl       2.06481369       1.46003837       7.19348176       0.00047713       0.00031180      -0.00002200
Cl       6.24151474       4.41341411       7.19348761      -0.00045252      -0.00033674       0.00000364
Cl       5.19733864       1.46004074       5.38492087      -0.00022159       0.00032645       0.00040086
Cl       3.10899056       4.41341447       9.00205185       0.00025629      -0.00032176      -0.00039716
Cl       3.10899072       4.41341254       5.38492002       0.00024907      -0.00033276       0.00038661
Cl       5.19734289       1.46004200       9.00204812      -0.00020457       0.00033252      -0.00041676
