9
Lattice="6.395308429082441 9.065806139631106e-07 3.692335310030816 2.131770028030951 6.029554823035322 3.692335834949985 2.1014183108153282e-07 7.914848906683877e-07 7.384670256085168" Properties=species:S:1:pos:R:3:forces:R:3 energy=-24.362102508544922 free_energy=-24.362102508544922 stress="-3.007851546499296e-06 -3.6191632801774176e-08 -6.140726327430457e-08 -3.6191632801774176e-08 -2.99114799418021e-06 -1.9156072283976755e-08 -6.140726327430457e-08 -1.9156072283976755e-08 -2.9841914965800242e-06" pbc="T T T"
Sb       2.13177397       1.50739412       3.69233307       0.00001047       0.00001564      -0.00000777
Sb       6.39531218       4.52217422      11.07699825       0.00001121       0.00001868      -0.00001995
As      -0.00000092      -0.00000209       0.00000131      -0.00000343       0.00000071       0.00000286
Cl       2.00479948       1.41760903       7.38467086      -0.00002687      -0.00002214       0.00000302
Cl       6.52227934       4.61194691       7.38467473       0.00002357       0.00001406       0.00000761
Cl       5.39290752       1.41760534       5.42855026       0.00001216      -0.00003242      -0.00002484
Cl       3.13416942       4.61194650       9.34079615      -0.00001787       0.00001645       0.00003102
Cl       3.13416852       4.61194397       5.42854457      -0.00001692       0.00001363      -0.00002509
Cl       5.39290519       1.41760811       9.34079641       0.00000772      -0.00002460       0.00003316
