9
Lattice="6.977696771256479 9.726071854869412e-08 4.028575165235431 2.32589903404511 6.578635751303204 4.028575133028506 1.477796094771796e-08 -2.8995660587799815e-08 8.057150304874648" Properties=species:S:1:pos:R:3:forces:R:3 energy=-19.494678497314453 free_energy=-19.494678497314453 stress="-0.0001155231730081141 -2.951008326590454e-09 1.1755751927466918e-08 -2.951008326590454e-09 -0.00011552431533345953 -1.8235779108977113e-08 1.1755751927466918e-08 -1.8235779108977113e-08 -0.00011550246563274413" pbc="T T T"
Sb       2.32589905       1.64465899       4.02857458       0.00000021      -0.00000150       0.00000340
Sb       6.97769759       4.93397670      12.08572558       0.00000141      -0.00000014      -0.00000356
As      -0.00000020      -0.00000010       0.00000013      -0.00000015       0.00000016       0.00000003
I        2.32779478       1.64600003       8.05715035       0.00128743       0.00091117       0.00000058
I        6.97580091       4.93263609       8.05715039      -0.00128776      -0.00091030      -0.00000038
I        5.81379935       1.64599963       6.04450480      -0.00064340       0.00091184       0.00111554
I        3.48979623       4.93263612      10.06979573       0.00064287      -0.00091179      -0.00111586
I        3.48979635       4.93263611       6.04450514       0.00064392      -0.00090970       0.00111532
I        5.81379923       1.64599974      10.06979573      -0.00064459       0.00091025      -0.00111508
