9
Lattice="4.820274640083082 9.731662011964496e-08 2.782986427361379 1.6067581829957944 4.544599881935664 2.7829866388729614 -1.0513750961809127e-07 1.8470425426337527e-07 5.565973036826276" Properties=species:S:1:pos:R:3:forces:R:3 energy=-31.64059066772461 free_energy=-31.64059066772461 stress="0.00010293345258105546 3.6007790527037287e-07 -1.767359947280056e-07 3.6007790527037287e-07 0.00010116889461642131 -1.3592323000466422e-07 -1.767359947280056e-07 -1.3592323000466422e-07 0.0001042920775944367" pbc="T T T"
Sb       1.60676903       1.13617797       2.78297917       0.00019991       0.00050619      -0.00012545
Sb       4.82026865       3.40843598       8.34895954      -0.00011893      -0.00027862       0.00000906
Au      -0.00000019      -0.00000059       0.00000015      -0.00000271      -0.00001645       0.00002093
F        1.72050393       1.21658441       5.56597630       0.00387841       0.00282398       0.00005699
F        4.70653025       3.32801248       5.56597309      -0.00384912      -0.00287823      -0.00000421
F        3.96002116       1.21658575       4.27298461      -0.00196495       0.00285993       0.00331488
F        2.46700920       3.32800819       6.85896514       0.00192896      -0.00296366      -0.00326215
F        2.46701014       3.32800946       4.27298201       0.00194615      -0.00291989       0.00327717
F        3.96001877       1.21658703       6.85896440      -0.00201764       0.00286652      -0.00328732
