9
Lattice="6.697737332035667 -2.9429198581945707e-08 3.8669403775531475 2.2325790365459293 6.3146873255575935 3.8669404578969564 -7.600953770015921e-08 4.465379240901826e-08 7.733880886758659" Properties=species:S:1:pos:R:3:forces:R:3 energy=-16.92580795288086 free_energy=-16.92580795288086 stress="9.240684448741376e-05 -1.1564650570505819e-08 7.639622823241154e-10 -1.1564650570505819e-08 9.241470252163708e-05 -8.198754564148203e-09 7.639622823241154e-10 -8.198754564148203e-09 9.240297367796302e-05" pbc="T T T"
Sb       2.23257950       1.57867116       3.86694011       0.00000257      -0.00000097      -0.00000022
Sb       6.69773643       4.73601616      11.60082106      -0.00000463       0.00000140      -0.00000048
Ag      -0.00000014       0.00000000       0.00000019       0.00000122       0.00000021      -0.00000123
I        2.30472605       1.62968715       7.73388094      -0.00122591      -0.00086983       0.00000059
I        6.62559043       4.68500024       7.73388099       0.00122517       0.00086819      -0.00000055
I        5.54537428       1.62968715       5.86289150       0.00061316      -0.00086672      -0.00106157
I        3.38494228       4.68499999       9.60487024      -0.00061275       0.00086826       0.00106373
I        3.38494213       4.68500015       5.86289160      -0.00061185       0.00086816      -0.00106250
I        5.54537419       1.62968736       9.60487026       0.00061308      -0.00086872       0.00106230
