9
Lattice="5.51202267920734 1.075900646759157e-07 3.1823678262753323 1.8373410314263925 5.196784493959697 3.1823677623273254 8.001402962206639e-08 -2.1741534669165545e-08 6.364735513962279" Properties=species:S:1:pos:R:3:forces:R:3 energy=-34.30934143066406 free_energy=-34.30934143066406 stress="-0.0003058101574424654 4.7387711532564936e-09 -7.584799277537968e-08 4.7387711532564936e-09 -0.00030572988907806575 -5.8072856745639e-08 -7.584799277537968e-08 -5.8072856745639e-08 -0.0003058092843275517" pbc="T T T"
Sb       1.83734136       1.29919746       3.18236907      -0.00000191       0.00001855       0.00001693
Sb       5.51202731       3.89758562       9.54710292       0.00006333      -0.00003790      -0.00000901
As      -0.00000013      -0.00000024      -0.00000006       0.00000373       0.00000359      -0.00000314
S        1.89884839       1.34269160       6.36473488      -0.00163990      -0.00112107      -0.00000947
S        5.45051469       3.85409457       6.36473636       0.00162041       0.00113636       0.00000603
S        4.56259719       1.34268976       4.82681930       0.00080538      -0.00114012      -0.00140801
S        2.78676418       3.85409524       7.90265037      -0.00083023       0.00114202       0.00139317
S        2.78676415       3.85409491       4.82682028      -0.00083095       0.00114000      -0.00139195
S        4.56259798       1.34268939       7.90265130       0.00080994      -0.00114116       0.00140589
