9
Lattice="6.3720451539441525 -1.2598013419527204e-07 3.6789017280888268 2.1240149245192534 6.007621777177926 3.6789017419803165 2.6778253187145e-08 3.5948622346030375e-08 7.35780340979634" Properties=species:S:1:pos:R:3:forces:R:3 energy=-18.86713981628418 free_energy=-18.86713981628418 stress="-7.381513569271192e-05 7.38926564380904e-09 1.8541106427960585e-09 7.38926564380904e-09 -7.38358503440395e-05 1.3557551747922503e-09 1.8541106427960585e-09 1.3557551747922503e-09 -7.381589966826141e-05" pbc="T T T"
Sb       2.12401138       1.50190356       3.67890013      -0.00001784      -0.00001039      -0.00000878
Sb       6.37204632       4.50571590      11.03670453       0.00000495      -0.00000228      -0.00000310
Ag       0.00000011       0.00000015       0.00000034       0.00000223       0.00000287      -0.00000078
Br       2.15801232       1.52594610       7.35780389       0.00304852       0.00215982       0.00000347
Br       6.33804839       4.48167613       7.35780346      -0.00305092      -0.00215976       0.00000147
Br       5.29303935       1.52594494       5.54779590      -0.00151984       0.00215601       0.00264733
Br       3.20302150       4.48167692       9.16781176       0.00152710      -0.00215296      -0.00264430
Br       3.20302149       4.48167768       5.54779600       0.00152650      -0.00215118       0.00264819
Br       5.29303955       1.52594540       9.16781147      -0.00152078       0.00215786      -0.00264349
