9
Lattice="6.422153463251327 6.113498319094788e-08 3.7078321126199056 2.1407178680095837 6.054864414315606 3.7078321311750284 3.614081093431979e-08 4.828073380849014e-08 7.415664162642072" Properties=species:S:1:pos:R:3:forces:R:3 energy=-18.742145538330078 free_energy=-18.742145538330078 stress="8.985999738797545e-05 -4.682296772529071e-09 7.2740515832947494e-09 -4.682296772529071e-09 8.982663712231442e-05 5.351858067825788e-09 7.2740515832947494e-09 5.351858067825788e-09 8.98327270988375e-05" pbc="T T T"
Sb       2.14071697       1.51371698       3.70783227      -0.00000297       0.00000436      -0.00000148
Sb       6.42215790       4.54114858      11.12349415       0.00001969       0.00000219      -0.00000886
Au      -0.00000023       0.00000005       0.00000001      -0.00000044      -0.00000063       0.00000078
Br       2.16473609       1.53070039       7.41566452       0.00130842       0.00092886       0.00000064
Br       6.39813459       4.52416410       7.41566493      -0.00131007      -0.00092880       0.00000402
Br       5.33978489       1.53069942       5.58254965      -0.00065684       0.00092310       0.00113762
Br       3.22308528       4.52416431       9.24877908       0.00065027      -0.00092755      -0.00113613
Br       3.22308458       4.52416441       5.58254985       0.00064650      -0.00092743       0.00113904
Br       5.33978537       1.53069986       9.24877917      -0.00065456       0.00092590      -0.00113560
