9
Lattice="4.742388828531611 9.818076859942394e-09 2.7380196719494294 1.5807963013876223 4.47116691270511 2.73801964431654 1.557470929007126e-07 7.628658564925175e-08 5.476039074136975" Properties=species:S:1:pos:R:3:forces:R:3 energy=-33.33102798461914 free_energy=-33.33102798461914 stress="0.000711808679625392 -5.84416559590295e-09 -1.1769085972446192e-07 -5.84416559590295e-09 0.0007119885412976146 -1.025511693342196e-07 -1.1769085972446192e-07 -1.025511693342196e-07 0.0007117466302588582" pbc="T T T"
Sb       1.58079557       1.11779217       2.73801897      -0.00001445       0.00000476      -0.00001339
Sb       4.74238779       3.35337718       8.21406103      -0.00001541       0.00003071       0.00003498
Ag       0.00000009       0.00000006      -0.00000010       0.00000361      -0.00000041      -0.00000128
F        1.70700876       1.20703635       5.47603970      -0.00166491      -0.00119700       0.00000846
F        4.61617733       3.26412975       5.47603815       0.00167619       0.00117651      -0.00001822
F        3.88888497       1.20703645       4.21633254       0.00084223      -0.00118653      -0.00144402
F        2.43430044       3.26412989       6.73574610      -0.00083878       0.00118385       0.00145164
F        2.43430141       3.26412993       4.21633174      -0.00082412       0.00118664      -0.00145871
F        3.88888479       1.20703621       6.73574536       0.00083570      -0.00119840       0.00144091
