9
Lattice="6.7254189160855065 1.5168309844862486e-06 3.882922815991748 2.2418078384338727 6.340783423983921 3.8829226376079315 7.560013928031555e-07 3.1609888598142543e-07 7.765844322550806" Properties=species:S:1:pos:R:3:forces:R:3 energy=-21.19272232055664 free_energy=-21.19272232055664 stress="-0.00026610519853420556 -3.6295389804763545e-08 2.362425419732972e-07 -3.6295389804763545e-08 -0.00026652004453353584 1.5929691699057003e-07 2.362425419732972e-07 1.5929691699057003e-07 -0.00026623837766237557" pbc="T T T"
Sb       2.24183756       1.58521100       3.88284892       0.00009946       0.00008297      -0.00023075
Sb       6.72543202       4.75566381      11.64876333       0.00004973       0.00023609      -0.00004499
As      -0.00000331      -0.00000599       0.00000587      -0.00000602      -0.00001430       0.00000832
Br       2.15192675       1.52161976       7.76587440       0.00490879       0.00338151       0.00010406
Br       6.81530562       4.81914470       7.76584885      -0.00489243      -0.00345906       0.00001405
Br       5.64945467       1.52161353       5.74655554      -0.00246283       0.00337277       0.00428788
Br       3.31775709       4.81912903       9.78516273       0.00240688      -0.00352105      -0.00418614
Br       3.31776353       4.81914611       5.74654586       0.00242864      -0.00345085       0.00425515
Br       5.64943612       1.52161904       9.78515353      -0.00253225       0.00337194      -0.00420757
