9
Lattice="6.757283158387649 -4.659959092776881e-08 3.9013193077791652 2.252427746939889 6.370827675005069 3.9013191840902395 9.552249828690241e-08 -8.394279062545669e-08 7.802638450108516" Properties=species:S:1:pos:R:3:forces:R:3 energy=-17.279216766357422 free_energy=-17.279216766357422 stress="4.95992717333138e-05 2.237690255313396e-09 6.45575415347821e-09 2.237690255313396e-09 4.9602367653278634e-05 -1.3571520796062941e-08 6.45575415347821e-09 -1.3571520796062941e-08 4.958851059200242e-05" pbc="T T T"
Sb       2.25242701       1.59270686       3.90131895      -0.00000253       0.00000081       0.00000173
Sb       6.75728285       4.77812084      11.70395807      -0.00000220      -0.00000027      -0.00000008
Au       0.00000002      -0.00000021      -0.00000010      -0.00000076       0.00000042      -0.00000042
I        2.33755929       1.65290370       7.80263848       0.00016811       0.00011822       0.00000003
I        6.67215198       4.71792358       7.80263848      -0.00016683      -0.00011864      -0.00000103
I        5.58850388       1.65290388       5.92570486      -0.00008247       0.00011914       0.00014507
I        3.42120761       4.71792379       9.67957223       0.00008373      -0.00011821      -0.00014521
I        3.42120741       4.71792397       5.92570469       0.00008560      -0.00011861       0.00014510
I        5.58850396       1.65290378       9.67957208      -0.00008270       0.00011713      -0.00014517
