9
Lattice="6.148781488377373 -4.2477200660893313e-07 3.550000319356439 2.049593672088923 5.797126854748603 3.54999989827981 -4.6656318053382266e-08 -5.48702391475942e-07 7.100000719523939" Properties=species:S:1:pos:R:3:forces:R:3 energy=-21.904653549194336 free_energy=-21.904653549194336 stress="-0.0002442659460939467 -6.406878139131322e-09 3.8228581189514443e-08 -6.406878139131322e-09 -0.00024424775619991124 7.993072870249307e-09 3.8228581189514443e-08 7.993072870249307e-09 -0.0002442588738631457" pbc="T T T"
Sb       2.04959175       1.44927695       3.55000260      -0.00000953      -0.00002213       0.00001052
Sb       6.14878327       4.34784568      10.64998722       0.00000944       0.00000506      -0.00007564
Ag      -0.00000022       0.00000011       0.00000049       0.00000141       0.00000165      -0.00000110
Cl       2.08243772       1.47250555       7.09999915      -0.00043426      -0.00030612      -0.00000473
Cl       6.11593797       4.32462094       7.10000590       0.00042949       0.00030877       0.00003167
Cl       5.10756275       1.47250340       5.35344614       0.00021472      -0.00031749      -0.00036184
Cl       3.09081435       4.32462233       8.84655759      -0.00020622       0.00031659       0.00037753
Cl       3.09081028       4.32462198       5.35344534      -0.00022625       0.00031178      -0.00035905
Cl       5.10756255       1.47250662       8.84655929       0.00022135      -0.00029811       0.00038262
