9
Lattice="5.834514458295239 5.965381844113684e-08 3.368558887263495 1.9448380448285152 5.500831630609309 3.36855917162924 -9.785990673413174e-07 -3.436986601761266e-07 6.7371194695106205" Properties=species:S:1:pos:R:3:forces:R:3 energy=-25.701251983642578 free_energy=-25.701251983642578 stress="7.093635940691456e-05 7.396432977202494e-08 6.116190434113378e-07 7.396432977202494e-08 7.287623157026246e-05 4.770534474118904e-07 6.116190434113378e-07 4.770534474118904e-07 7.103465759428218e-05" pbc="T T T"
Sb       1.94484278       1.37521497       3.36849855       0.00004955       0.00007777      -0.00057654
Sb       5.83452807       4.12557042      10.10565552       0.00013531      -0.00049064      -0.00021113
Be      -0.00000072       0.00000193       0.00000471      -0.00000705       0.00001783       0.00003026
Cl       1.83535407       1.29781438       6.73714148      -0.00066625      -0.00025556       0.00020587
Cl       5.94398708       4.20303445       6.73712523       0.00055604       0.00041191       0.00008547
Cl       4.91684169       1.29780311       4.95803704       0.00034631      -0.00030460      -0.00043175
Cl       2.86251590       4.20302312       8.51621830      -0.00033189       0.00034261       0.00059441
Cl       2.86251249       4.20304519       4.95804215      -0.00032140       0.00045789      -0.00036445
Cl       4.91682469       1.29781789       8.51622715       0.00023958      -0.00025718       0.00066797
