9
Lattice="5.655052349004105 1.3705453283945481e-08 3.264946033411625 1.8850174354442186 5.331634125951862 3.2649460804288992 -7.121543244631432e-08 7.2272715246523576e-09 6.529892190172029" Properties=species:S:1:pos:R:3:forces:R:3 energy=-31.801259994506836 free_energy=-31.801259994506836 stress="-0.00041917641647160053 -1.1936073462948116e-08 -5.023653493196889e-09 -1.1936073462948116e-08 -0.0004193142813164741 1.785081060745597e-08 -5.023653493196889e-09 1.785081060745597e-08 -0.00041916180634871125" pbc="T T T"
Sb       1.88502091       1.33291218       3.26494941       0.00004958       0.00004359       0.00003942
Sb       5.65505320       3.99872110       9.79483883       0.00000417      -0.00005389       0.00000626
Bi      -0.00000004       0.00000028       0.00000004      -0.00000004       0.00000035      -0.00000298
S        2.05632070       1.45404048       6.52989090      -0.00474546      -0.00332414      -0.00001974
S        5.48374808       3.87759513       6.52989163       0.00473234       0.00334168      -0.00000649
S        4.62689025       1.45403961       5.04577182       0.00235119      -0.00333004      -0.00411600
S        2.91317758       3.87759426       8.01401102      -0.00237840       0.00333816       0.00409995
S        2.91317791       3.87759300       5.04577119      -0.00237519       0.00331701      -0.00411376
S        4.62689024       1.45404053       8.01401238       0.00236162      -0.00333279       0.00411320
