9
Lattice="6.300442303643107 -1.0776614911806427e-06 3.637556663070559 2.100146160561641 5.940114559631442 3.6375571098648924 -2.901193225243104e-06 -1.5042439942512995e-06 7.275118351154492" Properties=species:S:1:pos:R:3:forces:R:3 energy=-24.930526733398438 free_energy=-24.930526733398438 stress="0.00014894806372467428 1.0847799103430589e-07 5.067086590315739e-07 1.0847799103430589e-07 0.0001485199318267405 4.546404142047322e-08 5.067086590315739e-07 4.546404142047322e-08 0.00014963580179028213" pbc="T T T"
Sb       2.10012612       1.48499673       3.63754907      -0.00005467      -0.00007528      -0.00002570
Sb       6.30042462       4.45508137      10.91267441      -0.00003581      -0.00001446       0.00000506
B       -0.00001517      -0.00001084       0.00000926      -0.00028387      -0.00018889       0.00011706
Cl       1.70811029       1.20782030       7.27512490      -0.00387290      -0.00275318      -0.00001315
Cl       6.69249769       4.73231220       7.27511087       0.00415936       0.00294685       0.00000879
Cl       5.44639833       1.20781408       5.11681656       0.00202726      -0.00284694      -0.00350392
Cl       2.95420124       4.73230761       9.43341111      -0.00195454       0.00284885       0.00347385
Cl       2.95420004       4.73231654       5.11681448      -0.00200912       0.00288552      -0.00352937
Cl       5.44639883       1.20780983       9.43341801       0.00202422      -0.00280283       0.00346759
