9
Lattice="4.976887778436794 -4.885749402300258e-06 2.873402627545904 1.658957925358005 4.692256048966966 2.8734027334207815 -4.810244553323648e-06 -3.2716878488602055e-06 5.746813586684169" Properties=species:S:1:pos:R:3:forces:R:3 energy=-38.04322052001953 free_energy=-38.04322052001953 stress="-0.0005822167149744928 4.801685463462491e-06 9.53259859670652e-06 4.801685463462491e-06 -0.0005816571065224707 6.67670019538491e-06 9.53259859670652e-06 6.67670019538491e-06 -0.0005691872793249786" pbc="T T T"
Sb       1.65881990       1.17317919       2.87328505      -0.00176560       0.00155679      -0.00149366
Sb       4.97685328       3.51934929       8.62025240      -0.00037362       0.00213470       0.00045802
B       -0.00001084      -0.00009325      -0.00000742      -0.00002773      -0.00129695      -0.00003977
F        1.36502295       0.96514412       5.74684977       0.00198993       0.00046693       0.00044305
F        5.27093337       3.72702958       5.74680039      -0.00053322      -0.00142241      -0.00003967
F        4.29443611       0.96514620       4.05556006      -0.00021902       0.00053273       0.00182712
F        2.34143826       3.72703965       7.43814813       0.00061269      -0.00130789      -0.00066239
F        2.34146316       3.72706283       4.05549904       0.00084665      -0.00106390       0.00099513
F        4.29440752       0.96513392       7.43808805      -0.00052987       0.00039971      -0.00148752
