9
Lattice="6.731785168286977 2.4636891129053575e-08 3.886598154786677 2.2439283753806367 6.346788263227885 3.8865982193509683 4.671045699848567e-09 8.237772099664132e-08 7.773196301482886" Properties=species:S:1:pos:R:3:forces:R:3 energy=-21.020965576171875 free_energy=-21.020965576171875 stress="-0.00014798916527070105 1.9077948110179932e-08 -1.0192544586118402e-08 1.9077948110179932e-08 -0.00014800079225096852 1.0336053790638289e-08 -1.0192544586118402e-08 1.0336053790638289e-08 -0.0001480188366258517" pbc="T T T"
Sb       2.24393015       1.58669724       3.88659822       0.00000570       0.00000086      -0.00000111
Sb       6.73178481       4.76009230      11.65979397       0.00000040       0.00000314      -0.00000243
Bi      -0.00000019      -0.00000016       0.00000025      -0.00000024       0.00000008       0.00000104
Br       2.32588638       1.64464986       7.77319639       0.00199282       0.00140728       0.00000029
Br       6.64982729       4.70213860       7.77319666      -0.00199373      -0.00140785       0.00000065
Br       5.56884149       1.64464959       5.90087473      -0.00099927       0.00140817       0.00172628
Br       3.40687159       4.70213805       9.64551789       0.00099731      -0.00141059      -0.00172561
Br       3.40687135       4.70213812       5.90087473       0.00099633      -0.00141043       0.00172634
Br       5.56884134       1.64464988       9.64551789      -0.00099932       0.00140934      -0.00172546
