9
Lattice="5.566191246579806 -1.5523951951438099e-06 3.213640405456583 1.855395618220508 5.2478509501493775 3.213640406081228 -5.420732107083115e-06 -3.832270543844855e-06 6.427290199897554" Properties=species:S:1:pos:R:3:forces:R:3 energy=-35.78742980957031 free_energy=-35.78742980957031 stress="-0.0001719057181617245 -2.4741797233218676e-07 1.978735781449359e-06 -2.4741797233218676e-07 -0.00016999224317260087 1.0437491937409504e-06 1.978735781449359e-06 1.0437491937409504e-06 -0.00017265774658881128" pbc="T T T"
Sb       1.85534171       1.31189142       3.21374514      -0.00022602      -0.00033492       0.00050409
Sb       5.56620033       3.93601919       9.64067863       0.00007702       0.00058088      -0.00106287
Bi      -0.00000046       0.00000136      -0.00000392      -0.00001864       0.00001889      -0.00002274
F        1.81362512       1.28236435       6.42724259      -0.00614974      -0.00461385      -0.00021957
F        5.60798041       3.96544785       6.42740151       0.00625145       0.00448510       0.00052791
F        4.65936167       1.28230934       4.78432493       0.00298831      -0.00485307      -0.00518110
F        2.76225408       3.96547833       8.07030884      -0.00284714       0.00462613       0.00540847
F        2.76214229       3.96545583       4.78430191      -0.00339009       0.00450361      -0.00529647
F        4.65942052       1.28241479       8.07028424       0.00331478      -0.00441268       0.00534230
