9
Lattice="6.980174821694369 -3.611343131504628e-06 4.0300182365836115 2.3267229903811963 6.580974888694656 4.030015717103253 -1.993831660875027e-06 -4.49557355620267e-06 8.060039926587216" Properties=species:S:1:pos:R:3:forces:R:3 energy=-21.66806411743164 free_energy=-21.66806411743164 stress="-0.0001277530682273209 1.4467427433828561e-07 8.266803774859e-08 1.4467427433828561e-07 -0.00012754235649481416 1.272134824148452e-07 8.266803774859e-08 1.272134824148452e-07 -0.00012781453551724553" pbc="T T T"
Sb       2.32668857       1.64523630       4.03006399      -0.00002888      -0.00000636       0.00005497
Sb       6.98019523       4.93570138      12.09011674       0.00001147      -0.00002985       0.00007745
B        0.00000181       0.00000196       0.00000463      -0.00000093       0.00000423      -0.00002497
Br       1.83826159       1.29984895       8.06002695       0.00219890       0.00158074      -0.00005679
Br       7.46863839       5.28112371       8.06002508      -0.00220563      -0.00156067      -0.00005327
Br       6.06104943       1.29984317       5.62196719      -0.00112791       0.00162120       0.00193030
Br       3.24585004       5.28112534      10.49806375       0.00108492      -0.00153141      -0.00194942
Br       3.24585047       5.28115245       5.62196245       0.00114740      -0.00162280       0.00196573
Br       6.06104752       1.29983406      10.49806545      -0.00107938       0.00154473      -0.00194375
