9
Lattice="5.862715163712946 -5.2420336154156115e-08 3.38484018033153 1.9542383139275055 5.52742060475497 3.3848402228611376 -3.3723755496185646e-07 -1.8637504888441276e-07 6.769680944775555" Properties=species:S:1:pos:R:3:forces:R:3 energy=-29.667804718017578 free_energy=-29.667804718017578 stress="0.00023866193077992648 -2.992267056356468e-08 7.050027051036523e-08 -2.992267056356468e-08 0.00023866647097747773 4.748294557543886e-08 7.050027051036523e-08 4.748294557543886e-08 0.0002387430431554094" pbc="T T T"
Sb       1.95423888       1.38185702       3.38483951       0.00000607       0.00002187      -0.00000743
Sb       5.86271333       4.14556444      10.15451470      -0.00001696      -0.00000845      -0.00006068
Bi      -0.00000040       0.00000018      -0.00000019       0.00000475      -0.00000495       0.00000863
Se       2.27232532       1.60677707       6.76968061       0.00475530       0.00336440      -0.00000020
Se       5.54462824       3.92064281       6.76968267      -0.00475337      -0.00336850       0.00002470
Se       4.72655154       1.60677601       5.35273343      -0.00238086       0.00335071       0.00412373
Se       3.09040256       3.92064181       8.18663075       0.00239114      -0.00337033      -0.00410221
Se       3.09040130       3.92064272       5.35273279       0.00237017      -0.00336464       0.00411710
Se       4.72655182       1.60677940       8.18663104      -0.00237627       0.00337991      -0.00410358
