9
Lattice="6.264051129236967 6.209440214464542e-06 3.6165521398717355 2.0880204016721917 5.905806634478385 3.6165564625903244 3.868748624416285e-06 8.029845854090189e-06 7.233097578876093" Properties=species:S:1:pos:R:3:forces:R:3 energy=-21.7479248046875 free_energy=-21.7479248046875 stress="-3.4436830901540816e-05 4.370788886376431e-08 -1.9579231036459532e-07 4.370788886376431e-08 -3.447902054176666e-05 -1.0361934954516983e-07 -1.9579231036459532e-07 -1.0361934954516983e-07 -3.476842539384961e-05" pbc="T T T"
Sb       2.08803384       1.47646281       3.61657652       0.00008376       0.00003404       0.00015543
Sb       6.26405296       4.42935576      10.84966984      -0.00000897      -0.00004869       0.00009291
Be      -0.00000118      -0.00000049       0.00000076      -0.00000169       0.00000089      -0.00000456
Br       2.01379565       1.42397752       7.23308775      -0.00061170      -0.00040944      -0.00007116
Br       6.33827949       4.48184464       7.23310080       0.00059018       0.00041028      -0.00003377
Br       5.25714703       1.42397945       5.36054820       0.00026400      -0.00040166      -0.00056902
Br       3.09492038       4.48184314       9.10564262      -0.00031047       0.00043258       0.00049876
Br       3.09492720       4.48183174       5.36055727      -0.00029552       0.00040204      -0.00058332
Br       5.25714614       1.42398916       9.10564096       0.00029046      -0.00042001       0.00051473
