9
Lattice="7.162224116711658 2.1704211524483994e-07 4.135112026782608 2.387408190743871 6.752609671919819 4.135112118216357 2.3643052604263394e-08 1.2870116188141662e-07 8.270224012614216" Properties=species:S:1:pos:R:3:forces:R:3 energy=-19.243104934692383 free_energy=-19.243104934692383 stress="-0.00018063733296003193 1.6853672235583872e-08 -2.4950686849933845e-08 1.6853672235583872e-08 -0.00018065031326841563 1.617014966370789e-08 -2.4950686849933845e-08 1.617014966370789e-08 -0.00018067259225063026" pbc="T T T"
Sb       2.38740736       1.68815225       4.13511114      -0.00000412      -0.00000015       0.00000079
Sb       7.16222560       5.06445732      12.40533755       0.00000569      -0.00000027       0.00000116
Bi      -0.00000008       0.00000009      -0.00000017      -0.00000139      -0.00000012      -0.00000010
I        2.51017860       1.77496493       8.27022401      -0.00164168      -0.00115915       0.00000104
I        7.03945350       4.97764518       8.27022396       0.00164157       0.00115968      -0.00000196
I        5.90713489       1.77496466       6.30899047       0.00082229      -0.00115906      -0.00141998
I        3.64249711       4.97764548      10.23145770      -0.00082248       0.00115906       0.00141884
I        3.64249738       4.97764575       6.30899047      -0.00081943       0.00115964      -0.00141743
I        5.90713490       1.77496446      10.23145757       0.00081953      -0.00115967       0.00141756
