9
Lattice="6.668744779880368 -4.296130638915919e-08 3.850201642176503 2.222914942313581 6.287352952504137 3.850201544850746 4.525082956080879e-08 -8.72020716270818e-08 7.70040320597628" Properties=species:S:1:pos:R:3:forces:R:3 energy=-19.144912719726562 free_energy=-19.144912719726562 stress="-0.00013304746244102716 1.0343079281938117e-08 3.0453706223454446e-09 1.0343079281938117e-08 -0.00013305239554028958 2.89024315591746e-09 3.0453706223454446e-09 2.89024315591746e-09 -0.00013305524771567434" pbc="T T T"
Sb       2.22291490       1.57183863       3.85020122      -0.00000070       0.00000082      -0.00000049
Sb       6.66874447       4.71551442      11.55060440      -0.00000022      -0.00000043      -0.00000082
Be      -0.00000008      -0.00000004       0.00000018       0.00000019      -0.00000019      -0.00000028
I        2.15241815       1.52198966       7.70040336      -0.00276928      -0.00195793      -0.00000003
I        6.73924172       4.76536300       7.70040335       0.00277021       0.00195786      -0.00000015
I        5.59253594       1.52198955       5.71425069       0.00138474      -0.00195783      -0.00239841
I        3.29912421       4.76536319       9.68655589      -0.00138498       0.00195795       0.00239944
I        3.29912404       4.76536337       5.71425058      -0.00138460       0.00195808      -0.00239898
I        5.59253572       1.52198954       9.68655591       0.00138465      -0.00195836       0.00239957
