9
Lattice="6.539413002815367 -1.632035629700492e-08 3.775531758029222 2.1798042728534854 6.165417672130429 3.7755318377578204 -8.656628934615853e-08 3.643561953383567e-08 7.551063665995594" Properties=species:S:1:pos:R:3:forces:R:3 energy=-26.987672805786133 free_energy=-26.987672805786133 stress="-1.6218176824622788e-05 3.696909889328026e-09 -1.485444123261459e-08 3.696909889328026e-09 -1.6205151041503996e-05 -3.521436919839971e-09 -1.485444123261459e-08 -3.521436919839971e-09 -1.6200565369217657e-05" pbc="T T T"
Sb       2.17980463       1.54135525       3.77553221       0.00000051       0.00000272       0.00000236
Sb       6.53941319       4.62406319      11.32659458       0.00000035      -0.00000114      -0.00000453
Bi      -0.00000022      -0.00000017       0.00000020      -0.00000066       0.00000010       0.00000050
Te       2.47593975       1.75075407       7.55106345       0.00009149       0.00006565      -0.00000065
Te       6.24327722       4.41466337       7.55106405      -0.00009054      -0.00006582       0.00000262
Te       5.30144278       1.75075396       5.91975866      -0.00004735       0.00006412       0.00007948
Te       3.41777441       4.41466356       9.18236862       0.00004702      -0.00006492      -0.00007933
Te       3.41777403       4.41466326       5.91975863       0.00004449      -0.00006756       0.00007926
Te       5.30144300       1.75075429       9.18236859      -0.00004528       0.00006688      -0.00007968
