9
Lattice="6.648015301949482 3.139962741866106e-08 3.838233129526909 2.216005010494689 6.2678088992366865 3.838233336955377 -3.5272401197548776e-07 4.6335470650305995e-09 7.67646686998967" Properties=species:S:1:pos:R:3:forces:R:3 energy=-19.082168579101562 free_energy=-19.082168579101562 stress="0.00010255040979245678 -1.624964340862789e-08 2.609971261335886e-08 -1.624964340862789e-08 0.00010251219646306708 2.087395323258079e-08 2.609971261335886e-08 2.087395323258079e-08 0.00010256508539896458" pbc="T T T"
Sb       2.21600496       1.56695068       3.83823598      -0.00000064      -0.00000538       0.00001346
Sb       6.64801428       4.70085843      11.51470792      -0.00000422       0.00000814       0.00003338
B       -0.00000016       0.00000020      -0.00000047       0.00000018      -0.00000045      -0.00000052
I        2.07272044       1.46563470       7.67646592       0.00163652       0.00115520      -0.00000570
I        6.79129967       4.80217429       7.67646353      -0.00163555      -0.00115611      -0.00001249
I        5.61165460       1.46563496       5.63326068      -0.00081772       0.00115708       0.00140947
I        3.25236451       4.80217492       9.71966961       0.00081673      -0.00115474      -0.00142343
I        3.25236684       4.80217413       5.63326031       0.00082286      -0.00115585       0.00140898
I        5.61165471       1.46563343       9.71966980      -0.00081828       0.00115216      -0.00142318
