9
Lattice="6.462785416091456 8.004855868410557e-07 3.7312924116861277 2.1542627361976687 6.093169952294624 3.731292106622186 6.421302389170942e-07 8.042913351552972e-08 7.462583711170121" Properties=species:S:1:pos:R:3:forces:R:3 energy=-27.95539093017578 free_energy=-27.95539093017578 stress="-0.00018961179011967033 -7.399949542019613e-09 -2.5668182246363358e-08 -7.399949542019613e-09 -0.0001893755979835987 -3.6562074257062704e-08 -2.5668182246363358e-08 -3.6562074257062704e-08 -0.000189765210961923" pbc="T T T"
Sb       2.15426803       1.52329978       3.73129088       0.00001916       0.00002068      -0.00000933
Sb       6.46278456       4.56986464      11.19386935      -0.00000414      -0.00004948      -0.00002567
Cr      -0.00000039       0.00000062       0.00000005      -0.00000640      -0.00000222       0.00001280
Br       2.02148010       1.42940495       7.46258380      -0.00016613      -0.00010135       0.00000225
Br       6.59556550       4.66376748       7.46258640       0.00016990       0.00011981       0.00001197
Br       5.45204602       1.42940551       5.48194701       0.00007708      -0.00010414      -0.00014624
Br       3.16500362       4.66376685       9.44322408      -0.00007737       0.00010260       0.00014541
Br       3.16500272       4.66376713       5.48194673      -0.00008761       0.00010955      -0.00014386
Br       5.45204501       1.42940639       9.44322462       0.00007552      -0.00009548       0.00015280
