9
Lattice="6.141969867690575 -2.8376018085813613e-07 3.5460679998435447 2.047323360670781 5.790703157815783 3.546067412726499 5.927029037856665e-07 -2.9996440056901605e-07 7.092134973095543" Properties=species:S:1:pos:R:3:forces:R:3 energy=-22.586334228515625 free_energy=-22.586334228515625 stress="-7.398706657113507e-05 8.22098442654351e-08 -7.311534044873724e-09 8.22098442654351e-08 -7.38340022508055e-05 7.659970435724972e-09 -7.311534044873724e-09 7.659970435724972e-09 -7.376097346423194e-05" pbc="T T T"
Sb       2.04731029       1.44769379       3.54606623      -0.00006720       0.00009908      -0.00000291
Sb       6.14199799       4.34303933      10.63820955       0.00014692       0.00007158       0.00003261
C       -0.00000053      -0.00000081      -0.00000021      -0.00000501      -0.00001400      -0.00000321
Cl       1.99687331       1.41200415       7.09213162      -0.00125901      -0.00087954      -0.00000715
Cl       6.19242018       4.37869041       7.09213568       0.00126901       0.00083987      -0.00000668
Cl       5.14353377       1.41199779       5.27541612       0.00063176      -0.00090693      -0.00105771
Cl       3.04575118       4.37869268       8.90885558      -0.00067951       0.00085039       0.00106682
Cl       3.04575600       4.37869756       5.27541619      -0.00066122       0.00086751      -0.00107020
Cl       5.14353297       1.41199538       8.90885082       0.00062424      -0.00092792       0.00104846
