9
Lattice="6.615772388536905 1.1578736066456585e-09 3.8196180178201993 2.205257424534812 6.237410074121567 3.8196180860674107 -2.6220690713544344e-08 6.504454525407203e-08 7.63923608105595" Properties=species:S:1:pos:R:3:forces:R:3 energy=-18.44370460510254 free_energy=-18.44370460510254 stress="6.790803308831528e-05 -4.7814392445388876e-09 -3.2236224800641367e-09 -4.7814392445388876e-09 6.791442865505815e-05 1.4771026179971614e-08 -3.2236224800641367e-09 1.4771026179971614e-08 6.790540646761656e-05" pbc="T T T"
Sb       2.20525740       1.55935138       3.81961730      -0.00000103      -0.00000419      -0.00000347
Sb       6.61577194       4.67805887      11.45885580      -0.00000127       0.00000568       0.00000715
Cu      -0.00000005       0.00000000       0.00000012       0.00000019       0.00000011       0.00000053
I        2.22005715       1.56981708       7.63923628      -0.00095208      -0.00067608       0.00000132
I        6.60097285       4.66759296       7.63923553       0.00095237       0.00067525      -0.00000252
I        5.50574418       1.56981712       5.74224381       0.00047741      -0.00067492      -0.00082489
I        3.31528574       4.66759300       9.53622806      -0.00047662       0.00067434       0.00082375
I        3.31528628       4.66759319       5.74224369      -0.00047417       0.00067602      -0.00082611
I        5.50574365       1.56981695       9.53622814       0.00047522      -0.00067629       0.00082417
