9
Lattice="6.607319526196272 -1.0565099361524966e-07 3.8147378391180458 2.2024397552175494 6.229440725808741 3.814737817015564 -3.220998726262884e-09 -2.934741761579572e-08 7.629475683814896" Properties=species:S:1:pos:R:3:forces:R:3 energy=-19.057756423950195 free_energy=-19.057756423950195 stress="-9.979994501918554e-05 -1.2181171626934884e-09 3.4388092373660584e-10 -1.2181171626934884e-09 -9.979691094486043e-05 4.191239355577636e-09 3.4388092373660584e-10 4.191239355577636e-09 -9.978957677958533e-05" pbc="T T T"
Sb       2.20243923       1.55735989       3.81473786      -0.00000356      -0.00000068       0.00000113
Sb       6.60732020       4.67208068      11.44421320       0.00000472      -0.00000038      -0.00000330
C       -0.00000006      -0.00000015       0.00000008       0.00000022       0.00000019      -0.00000016
I        2.18542989       1.54533236       7.62947569       0.00500578       0.00354093       0.00000008
I        6.62432945       4.68410825       7.62947574      -0.00500643      -0.00354047       0.00000094
I        5.51460467       1.54533206       5.70737577      -0.00250255       0.00353888       0.00433630
I        3.29515461       4.68410854       9.55157562       0.00250259      -0.00353907      -0.00433639
I        3.29515448       4.68410855       5.70737569       0.00250174      -0.00353935       0.00433654
I        5.51460467       1.54533222       9.55157565      -0.00250243       0.00353998      -0.00433502
