9
Lattice="4.843165111407289 -2.702968498112024e-09 2.7962022273361318 1.614388381849479 4.566178776553257 2.7962022032108096 -3.575150618237767e-08 -5.482751218594307e-08 5.592404516595675" Properties=species:S:1:pos:R:3:forces:R:3 energy=-41.82013702392578 free_energy=-41.82013702392578 stress="-0.0002660861355252564 -3.9655137840099997e-08 2.4635840034648027e-08 -3.9655137840099997e-08 -0.0002653889823704958 1.7499704796364313e-08 2.4635840034648027e-08 1.7499704796364313e-08 -0.00026554588112048805" pbc="T T T"
Sb       1.61438353       1.14153325       2.79620312      -0.00007598      -0.00018385       0.00001081
Sb       4.84316421       3.42463821       8.38861449      -0.00000676       0.00007348       0.00012322
Cr       0.00000002       0.00000007       0.00000002       0.00000223       0.00000196      -0.00000549
F        1.59478681       1.12768242       5.59240365      -0.00365648      -0.00262003      -0.00000683
F        4.86276597       3.43849748       5.59240083       0.00364503       0.00263959      -0.00005987
F        4.04577366       1.12768431       4.17732790       0.00186498      -0.00259751      -0.00317208
F        2.41178194       3.43849918       7.00747835      -0.00183816       0.00267063       0.00313108
F        2.41178459       3.43849899       4.17732880      -0.00178617       0.00266381      -0.00315896
F        4.04577293       1.12768096       7.00747876       0.00185122      -0.00264810       0.00313830
