9
Lattice="4.916783811582927 3.083652758825618e-07 2.8387072321517395 1.6389283804510624 4.635593043459318 2.8387069679664125 2.5426257376729407e-06 1.4743487420848225e-06 5.677410060346862" Properties=species:S:1:pos:R:3:forces:R:3 energy=-33.782127380371094 free_energy=-33.782127380371094 stress="-0.0002452423796057701 1.1273851896476117e-06 -1.0457580174261238e-05 1.1273851896476117e-06 -0.0002722166827879846 -7.255714990606066e-06 -1.0457580174261238e-05 -7.255714990606066e-06 -0.0002422923280391842" pbc="T T T"
Sb       1.63886437       1.15861551       2.83899749      -0.00106198      -0.00488444       0.00493023
Sb       4.91676640       3.47679504       8.51611411      -0.00027121       0.00196530      -0.00037750
C        0.00000605       0.00001319      -0.00002073       0.00009876       0.00022060      -0.00034490
F        1.53303343       1.08397520       5.67728889       0.00235683       0.00086510      -0.00198476
F        5.02266483       3.55166259       5.67741153      -0.00256473      -0.00017881       0.00006554
F        4.15024280       1.08397439       4.16632167      -0.00160816       0.00080633       0.00156033
F        2.40548898       3.55172744       7.18841279       0.00188243       0.00083202      -0.00297844
F        2.40544840       3.55163246       4.16633766       0.00115195      -0.00065613       0.00183189
F        4.15034405       1.08398321       7.18843345       0.00001600       0.00102979      -0.00270247
