9
Lattice="6.14572691807758 5.195752356552918e-07 3.548237925260013 2.0485760106311384 5.794248225983642 3.5482381306609803 -5.539662497898898e-08 2.1239241732438627e-07 7.096475946469803" Properties=species:S:1:pos:R:3:forces:R:3 energy=-21.558313369750977 free_energy=-21.558313369750977 stress="5.1237606385257095e-05 -2.0317434845651405e-08 -2.384537234334516e-09 -2.0317434845651405e-08 5.12062142661307e-05 -1.3672478704762625e-09 -2.384537234334516e-09 -1.3672478704762625e-09 5.1206709031248465e-05" pbc="T T T"
Sb       2.04857469       1.44856467       3.54823796      -0.00000698       0.00001105       0.00000012
Sb       6.14572709       4.34568543      10.64471249       0.00000071      -0.00000579      -0.00000814
Cd      -0.00000012      -0.00000002      -0.00000032       0.00000115      -0.00000042       0.00000373
Cl       2.08025667       1.47096583       7.09647555       0.00199158       0.00141399       0.00000046
Cl       6.11404631       4.32328285       7.09647674      -0.00198850      -0.00141641       0.00000418
Cl       5.10559829       1.47096490       5.34979519      -0.00099339       0.00140586       0.00172712
Cl       3.08870589       4.32328440       8.84315768       0.00099977      -0.00141083      -0.00172408
Cl       3.08870472       4.32328332       5.34979389       0.00099536      -0.00141097       0.00172343
Cl       5.10559793       1.47096445       8.84315886      -0.00099969       0.00141358      -0.00172682
