9
Lattice="4.9437730522338175 1.1230570711206444e-07 2.8542884944440026 1.6479244322457987 4.6610330101878485 2.8542885366742548 5.417192647592899e-07 4.3477463253431774e-07 5.708576050602812" Properties=species:S:1:pos:R:3:forces:R:3 energy=-32.85749816894531 free_energy=-32.85749816894531 stress="-7.021478813840076e-05 4.1694408992043464e-07 -8.110533826766186e-07 4.1694408992043464e-07 -6.926390051376075e-05 -5.106289222567284e-07 -8.110533826766186e-07 -5.106289222567284e-07 -6.911134551046416e-05" pbc="T T T"
Sb       1.64794395       1.16525420       2.85427753       0.00026262      -0.00005409      -0.00014791
Sb       4.94377946       3.49577745       8.56287448       0.00007465       0.00002896       0.00014025
Cd       0.00000070       0.00000004       0.00000018       0.00001442      -0.00000220       0.00000163
F        1.75417293       1.24038803       5.70858010       0.00327532       0.00232807       0.00006194
F        4.83752001       3.42065124       5.70857247      -0.00334396      -0.00224597      -0.00006327
F        4.06668276       1.24038951       4.37344343      -0.00170230       0.00233646       0.00280011
F        2.52500595       3.42064217       7.04370657       0.00156783      -0.00236565      -0.00284712
F        2.52501011       3.42064717       4.37344824       0.00163862      -0.00230130       0.00285615
F        4.06667615       1.24038436       7.04370929      -0.00178723       0.00227578      -0.00280202
