9
Lattice="4.606752786269513 3.722560873928138e-08 2.6597099400610476 1.5355843080310585 4.343288178228534 2.659709921277677 5.2959410665885736e-08 1.4443134069087439e-08 5.319419788393683" Properties=species:S:1:pos:R:3:forces:R:3 energy=-52.35451126098633 free_energy=-52.35451126098633 stress="0.00012019583664368838 -4.711590051442727e-08 -3.019323235875504e-09 -4.711590051442727e-08 0.00011997186811640859 -2.312715885466332e-08 -3.019323235875504e-09 -2.312715885466332e-08 0.00011999737762380391" pbc="T T T"
Sb       1.53558432       1.08582166       2.65971001       0.00000402      -0.00000873       0.00000110
Sb       4.60675263       3.25746574       7.97912909      -0.00000522      -0.00000328      -0.00000796
Cr       0.00000012       0.00000011       0.00000014      -0.00000188       0.00000103      -0.00000324
O        1.50475197       1.06402034       5.31941980      -0.00096634      -0.00068364      -0.00000016
O        4.63758496       3.27926824       5.31942001       0.00096570       0.00068292       0.00000230
O        3.85437680       1.06402018       3.96286325       0.00048190      -0.00068094      -0.00083356
O        2.28796069       3.27926795       6.67597639      -0.00048182       0.00068934       0.00084153
O        2.28796030       3.27926784       3.96286338      -0.00048245       0.00068384      -0.00083837
O        3.85437691       1.06402076       6.67597657       0.00048624      -0.00068086       0.00083822
