9
Lattice="6.096877250359898 2.205007230495848e-07 3.5200334903100243 2.032291938792902 5.748190001728735 3.5200346782956324 -1.6362307080051272e-06 2.979897600747029e-07 7.040069814654475" Properties=species:S:1:pos:R:3:forces:R:3 energy=-27.015201568603516 free_energy=-27.015201568603516 stress="-1.1436570275691338e-05 -2.9988473215780687e-07 1.8586433725431561e-07 -2.9988473215780687e-07 -1.1725217518687714e-05 2.2827902057542815e-07 1.8586433725431561e-07 2.2827902057542815e-07 -1.2172727110737469e-05" pbc="T T T"
Sb       2.03230194       1.43703567       3.52003530       0.00004914      -0.00005801       0.00001471
Sb       6.09685555       4.31113469      10.56012231      -0.00010647      -0.00005240       0.00010919
Co       0.00000008      -0.00000017      -0.00000233       0.00000732       0.00002061       0.00001196
Cl       1.88910338       1.33579514       7.04006348      -0.00051194      -0.00036809      -0.00001308
Cl       6.24006664       4.41240000       7.04006035       0.00049981       0.00039282      -0.00002442
Cl       5.15232551       1.33581041       5.15604253       0.00028383      -0.00035179      -0.00050154
Cl       2.97684173       4.41239466       8.92409515      -0.00024077       0.00036943       0.00043061
Cl       2.97685159       4.41239390       5.15604238      -0.00023124       0.00039481      -0.00047131
Cl       5.15232382       1.33579773       8.92409280       0.00025034      -0.00034730       0.00044373
