9
Lattice="4.524743603135241 -2.8077887689724373e-08 2.6123619916544025 1.5082478328262874 4.265969260885706 2.6123620062268076 2.201959970926433e-09 1.940450422001455e-08 5.224723979494867" Properties=species:S:1:pos:R:3:forces:R:3 energy=-48.10251235961914 free_energy=-48.10251235961914 stress="-7.445206847478403e-06 -3.2062722254977416e-08 9.387743915567626e-10 -3.2062722254977416e-08 -7.420231668220367e-06 6.0500568999088955e-09 9.387743915567626e-10 6.0500568999088955e-09 -7.457701485691359e-06" pbc="T T T"
Sb       1.50824836       1.06649040       2.61236095       0.00000511      -0.00002717      -0.00001612
Sb       4.52474356       3.19947495       7.83708467      -0.00000177      -0.00002489      -0.00001405
Co       0.00000008      -0.00000002       0.00000015      -0.00000197       0.00000153       0.00000299
O        1.47004759       1.03948158       5.22472419      -0.00172615      -0.00121170       0.00000464
O        4.56294300       3.22648905       5.22472475       0.00171870       0.00123012       0.00000932
O        3.78972007       1.03948162       3.88546084       0.00086510      -0.00121170      -0.00149405
O        2.24327192       3.22648857       6.56398718      -0.00085792       0.00122350       0.00149214
O        2.24327195       3.22648934       3.88546133      -0.00085950       0.00122952      -0.00148392
O        3.78971929       1.03948140       6.56398776       0.00085866      -0.00120902       0.00149947
