9
Lattice="4.681487089721716 -3.7108957089415523e-09 2.7028580533671076 1.5604957064239517 4.413748290743776 2.7028580302464653 5.075017491530578e-08 7.568885360023381e-09 5.4057160188323445" Properties=species:S:1:pos:R:3:forces:R:3 energy=-36.421627044677734 free_energy=-36.421627044677734 stress="0.00044770774547941983 -7.642557164899699e-08 -1.6879882025477855e-07 -7.642557164899699e-08 0.0004478590562939644 -9.284086388561263e-08 -1.6879882025477855e-07 -9.284086388561263e-08 0.0004475138848647475" pbc="T T T"
Sb       1.56049283       1.10343269       2.70285395      -0.00005105      -0.00007826      -0.00007250
Sb       4.68148759       3.31031405       8.10857763       0.00000854       0.00004830       0.00006400
Cu      -0.00000007      -0.00000009       0.00000006      -0.00000127      -0.00000137       0.00000020
F        1.61355901       1.14095733       5.40571767       0.00103475       0.00071082       0.00003356
F        4.62842364       3.27279101       5.40571434      -0.00103283      -0.00070945      -0.00002961
F        3.87470981       1.14095794       4.10024214      -0.00047899       0.00072070       0.00090796
F        2.36727437       3.27279085       6.71119044       0.00050067      -0.00070770      -0.00090556
F        2.36727660       3.27279278       4.10024199       0.00053792      -0.00067856       0.00090727
F        3.87470759       1.14095664       6.71119018      -0.00051793       0.00069568      -0.00090550
