9
Lattice="7.0838012056761475 2.2515389778140795e-08 4.089834410138434 2.3612670768757758 6.6786716022529715 4.0898344325003295 4.7122036553872755e-08 6.070795770125373e-08 8.179668738659107" Properties=species:S:1:pos:R:3:forces:R:3 energy=-19.8884334564209 free_energy=-19.8884334564209 stress="4.5839169615646824e-05 -2.6089503890602828e-09 -5.02984098815773e-09 -2.6089503890602828e-09 4.584989801514894e-05 1.4315009178034188e-09 -5.02984098815773e-09 1.4315009178034188e-09 4.5836666686227545e-05" pbc="T T T"
Sb       2.36126675       1.66966797       4.08983347       0.00000090      -0.00000060      -0.00000517
Sb       7.08380092       5.00900585      12.26950509      -0.00000393       0.00000914       0.00000996
Ca      -0.00000018      -0.00000042       0.00000005       0.00000061       0.00000011       0.00000041
I        2.52218170       1.78345105       8.17966890      -0.00002357      -0.00002364       0.00000108
I        6.92288743       4.89521999       8.17966811       0.00002572       0.00001951      -0.00000357
I        5.82271088       1.78345098       6.27410736       0.00001601      -0.00001924      -0.00002163
I        3.62235763       4.89522010      10.08523032      -0.00001578       0.00001708       0.00002148
I        3.62235788       4.89522041       6.27410702      -0.00001036       0.00002132      -0.00002203
I        5.82271033       1.78345084      10.08523001       0.00001033      -0.00002366       0.00001960
