9
Lattice="5.331448628224665 -8.644273910433321e-08 3.078113345208113 1.777149501087404 5.026537588215876 3.0781132761948657 4.433970561246473e-08 -5.3170748342959126e-08 6.15622661361761" Properties=species:S:1:pos:R:3:forces:R:3 energy=-39.3184814453125 free_energy=-39.3184814453125 stress="-6.194941670401022e-05 -8.914180504859814e-11 -3.129502701426645e-08 -8.914180504859814e-11 -6.202752410899848e-05 -1.2408315264167413e-08 -3.129502701426645e-08 -1.2408315264167413e-08 -6.205294630490243e-05" pbc="T T T"
Sb       1.77714654       1.25663598       3.07811044      -0.00002841       0.00001352      -0.00002774
Sb       5.33144901       3.76990036       9.23433885       0.00000391      -0.00002827      -0.00001182
Co       0.00000015       0.00000039      -0.00000009      -0.00000086      -0.00000370       0.00000082
S        1.78915001       1.26512149       6.15622774      -0.00020848      -0.00013325       0.00001155
S        5.31944810       3.76141591       6.15622706       0.00021270       0.00013570       0.00000470
S        4.43687494       1.26512041       4.62756378       0.00011674      -0.00013767      -0.00016654
S        2.67172471       3.76141616       7.68489077      -0.00010321       0.00013782       0.00018027
S        2.67172501       3.76141772       4.62756366      -0.00010024       0.00014739      -0.00016977
S        4.43687417       1.26512136       7.68489075       0.00010789      -0.00013153       0.00017859
