9
Lattice="4.322902239112955 2.0986517254068625e-07 2.495828899207758 1.4409675832081323 4.075671465786668 2.495828947172221 1.5062837957329563e-07 1.6525459352885223e-07 4.991657537519481" Properties=species:S:1:pos:R:3:forces:R:3 energy=-49.10734939575195 free_energy=-49.10734939575195 stress="8.45380054670386e-05 1.0651377380099802e-07 -3.361314782068803e-08 1.0651377380099802e-07 8.446664287475869e-05 4.0095688547125974e-08 -3.361314782068803e-08 4.0095688547125974e-08 8.46857437863946e-05" pbc="T T T"
Sb       1.44096724       1.01891838       2.49582853      -0.00000646       0.00000454      -0.00000534
Sb       4.32290232       3.05675401       7.48748642      -0.00000110       0.00000761      -0.00000163
C       -0.00000112       0.00000056      -0.00000053      -0.00002972       0.00001323      -0.00000597
O        1.32642898       0.93792656       4.99165785      -0.00096583      -0.00068617       0.00000120
O        4.43744212       3.13774551       4.99165785       0.00097966       0.00068676      -0.00000133
O        3.65968854       0.93792625       3.64454960       0.00049329      -0.00068986      -0.00084960
O        2.10418196       3.13774488       6.33876580      -0.00048345       0.00068021       0.00084400
O        2.10418177       3.13774494       3.64455008      -0.00047803       0.00067830      -0.00083649
O        3.65968846       0.93792632       6.33876615       0.00049341      -0.00069475       0.00085676
