9
Lattice="6.652333790098219 -1.115109857689137e-07 3.840726729871013 2.2174445082444763 6.271880276619403 3.8407267009827666 2.2409737583592505e-08 -1.9534675749313408e-08 7.681453420927285" Properties=species:S:1:pos:R:3:forces:R:3 energy=-21.588733673095703 free_energy=-21.588733673095703 stress="5.707435047952458e-05 -8.381814353697337e-09 -5.063363062163262e-09 -8.381814353697337e-09 5.707924719899893e-05 7.553133229976083e-09 -5.063363062163262e-09 7.553133229976083e-09 5.708717799279839e-05" pbc="T T T"
Sb       2.21744537       1.56796981       3.84072683       0.00000212      -0.00000236      -0.00000052
Sb       6.65233260       4.70390980      11.52217995      -0.00000303       0.00000045      -0.00000048
Co       0.00000001       0.00000005      -0.00000001       0.00000040      -0.00000033       0.00000078
I        2.16670029       1.53208820       7.68145333      -0.00030405      -0.00021621      -0.00000028
I        6.70307803       4.73979194       7.68145339       0.00030471       0.00021553       0.00000063
I        5.56898363       1.53208834       5.71714398       0.00015134      -0.00021520      -0.00026362
I        3.30079490       4.73979190       9.64576281      -0.00015143       0.00021612       0.00026482
I        3.30079482       4.73979195       5.71714407      -0.00015154       0.00021552      -0.00026517
I        5.56898364       1.53208858       9.64576307       0.00015157      -0.00021345       0.00026382
