9
Lattice="4.661964481686349 -2.1658441231720728e-08 2.6915863787590726 1.553988139015633 4.395342131065255 2.691586380710597 4.047259475083908e-09 5.251961233221133e-09 5.383172750508084" Properties=species:S:1:pos:R:3:forces:R:3 energy=-39.74395751953125 free_energy=-39.74395751953125 stress="0.0005297937314026058 -2.6407828812580192e-08 2.7563794802176744e-08 -2.6407828812580192e-08 0.0005298632895573974 -1.5702365629977066e-08 2.7563794802176744e-08 -1.5702365629977066e-08 0.0005298784235492349" pbc="T T T"
Sb       1.55398794       1.09883628       2.69158659      -0.00000395       0.00001016       0.00000411
Sb       4.66196450       3.29650592       8.07475872       0.00000016      -0.00000956      -0.00000738
Co      -0.00000012       0.00000003      -0.00000014       0.00000184      -0.00000220      -0.00000696
F        1.55891349       1.10231850       5.38317267       0.00432611       0.00306439      -0.00000142
F        4.65703916       3.29302344       5.38317308      -0.00432500      -0.00306490       0.00000472
F        3.88250770       1.10231847       4.04164498      -0.00216356       0.00306247       0.00374925
F        2.33344511       3.29302373       6.72470051       0.00216390      -0.00306116      -0.00374439
F        2.33344480       3.29302343       4.04164499       0.00216000      -0.00306295       0.00374554
F        3.88250790       1.10231864       6.72470060      -0.00215954       0.00306374      -0.00374335
