9
Lattice="6.512743044177312 1.6944746853471543e-07 3.7601340229837086 2.170914541374623 6.1402728089883425 3.760133964857951 2.645582835464319e-07 1.1588179541959867e-07 7.520267587738959" Properties=species:S:1:pos:R:3:forces:R:3 energy=-22.26317596435547 free_energy=-22.26317596435547 stress="0.00011972915672231466 2.458329184662489e-08 -2.360712869631243e-08 2.458329184662489e-08 0.00011967540922341868 -1.3546061161662237e-08 -2.360712869631243e-08 -1.3546061161662237e-08 0.00011968849139520898" pbc="T T T"
Sb       2.17091341       1.53507279       3.76013373      -0.00000639       0.00002680       0.00000085
Sb       6.51274117       4.60520484      11.28040578      -0.00001369       0.00000411       0.00002380
Ca       0.00000035      -0.00000027       0.00000006      -0.00000136      -0.00000005      -0.00000120
Br       2.26752266       1.60337954       7.52026751       0.00134392       0.00094320      -0.00000069
Br       6.41613632       4.53689169       7.52026678      -0.00133296      -0.00095525      -0.00000980
Br       5.37898294       1.60338061       5.72386498      -0.00066626       0.00095137       0.00115775
Br       3.30467480       4.53689143       9.31667005       0.00066802      -0.00095742      -0.00115892
Br       3.30467677       4.53689206       5.72386400       0.00067777      -0.00095577       0.00115230
Br       5.37898296       1.60337964       9.31666944      -0.00066906       0.00094300      -0.00116408
