9
Lattice="6.0368592638157335 -5.009777600964775e-07 3.4853815054895514 2.012286099440198 5.691603684356153 3.485381244825236 2.1795609379905543e-07 -1.6512906369004107e-07 6.970762633468135" Properties=species:S:1:pos:R:3:forces:R:3 energy=-23.495834350585938 free_energy=-23.495834350585938 stress="4.663195431930944e-05 7.839998517056301e-08 -1.1160160795498086e-07 7.839998517056301e-08 4.681179780163802e-05 -5.214760179228506e-08 -1.1160160795498086e-07 -5.214760179228506e-08 4.69126389361918e-05" pbc="T T T"
Sb       2.01226233       1.42289198       3.48537699      -0.00015706      -0.00006973      -0.00002571
Sb       6.03685354       4.26869316      10.45613617      -0.00005068      -0.00006463      -0.00006067
Cu       0.00000076       0.00000102       0.00000107       0.00001056       0.00000478       0.00000187
Cl       1.94821115       1.37759252       6.97076320       0.00084619       0.00060824       0.00001246
Cl       6.10093898       4.31401354       6.97076647      -0.00081837      -0.00059657       0.00002012
Cl       5.06276416       1.37758996       5.17258141      -0.00036115       0.00061562       0.00075877
Cl       2.98639557       4.31401754       8.76894765       0.00045013      -0.00056161      -0.00072305
Cl       2.98639404       4.31401786       5.17258014       0.00044680      -0.00056171       0.00074497
Cl       5.06276175       1.37759448       8.76894842      -0.00036649       0.00062563      -0.00072877
