9
Lattice="5.5703979030658735 -3.066063441409188e-08 3.2160705096185844 1.8567992945048681 5.251821189593354 3.216070470837885 -4.3709507224028506e-08 -7.840368627433248e-08 6.43214109494418" Properties=species:S:1:pos:R:3:forces:R:3 energy=-36.08456802368164 free_energy=-36.08456802368164 stress="-3.790959090110846e-05 4.298605915664666e-09 9.416842416953841e-09 4.298605915664666e-09 -3.790556365856901e-05 -1.4228188405240871e-08 9.416842416953841e-09 -1.4228188405240871e-08 -3.785592343774624e-05" pbc="T T T"
Sb       1.85679948       1.31295593       3.21607025       0.00000104       0.00000188      -0.00000142
Sb       5.57039818       3.93886606       9.64821181       0.00000516       0.00000081      -0.00000111
Co       0.00000032      -0.00000010      -0.00000011      -0.00000213       0.00000088      -0.00000058
Se       1.88062464       1.32980246       6.43214120       0.00141840       0.00100348       0.00000166
Se       5.54657270       3.92201850       6.43214123      -0.00141748      -0.00100383       0.00000181
Se       4.63008540       1.32980235       4.84473916      -0.00071013       0.00100337       0.00122730
Se       2.79711118       3.92201857       8.01954279       0.00070779      -0.00100406      -0.00122823
Se       2.79711138       3.92201871       4.84473926       0.00070824      -0.00100341       0.00122811
Se       4.63008538       1.32980190       8.01954270      -0.00071078       0.00100096      -0.00122752
