9
Lattice="4.7877678067354745 2.3486936249893705e-07 2.7642193602932825 1.595922744389856 4.513951712694443 2.764219497631501 2.2164722796195542e-07 3.2493254526402335e-07 5.528438336682292" Properties=species:S:1:pos:R:3:forces:R:3 energy=-38.5881233215332 free_energy=-38.5881233215332 stress="0.0003765541478060186 8.746879132104368e-08 -4.594248821376823e-07 8.746879132104368e-08 0.0003757402882911265 -3.1855944371272926e-07 -4.594248821376823e-07 -3.1855944371272926e-07 0.00037655510823242366" pbc="T T T"
Sb       1.59592156       1.12848889       2.76421869      -0.00001992       0.00001637      -0.00000845
Sb       4.78776733       3.38545802       8.29266497      -0.00001005      -0.00010399       0.00010891
Ca      -0.00000007      -0.00000018       0.00000026      -0.00000490      -0.00000717       0.00000189
F        1.70488419       1.20553883       5.52843900      -0.00260746      -0.00179386       0.00000570
F        4.67880550       3.30841500       5.52843471       0.00259593       0.00182045      -0.00005900
F        3.93532714       1.20553970       4.24069189       0.00131917      -0.00176771      -0.00226462
F        2.44836444       3.30841604       6.81618296      -0.00131182       0.00182496       0.00222638
F        2.44836701       3.30841521       4.24069228      -0.00126338       0.00182211      -0.00225389
F        3.93532601       1.20553772       6.81618404       0.00130239      -0.00181121       0.00224307
