9
Lattice="6.222483300970215 2.141165039228669e-06 3.5925531666721673 2.0741631161611296 5.86661504705348 3.5925531716464163 1.4490047399254211e-06 1.030693445489196e-06 7.185103823594313" Properties=species:S:1:pos:R:3:forces:R:3 energy=-31.565269470214844 free_energy=-31.565269470214844 stress="-7.152624675654806e-06 -3.3000500110347275e-08 -9.410032220102948e-08 -3.3000500110347275e-08 -7.263845873239916e-06 -6.897618476386924e-08 -9.410032220102948e-08 -6.897618476386924e-08 -7.196794740593759e-06" pbc="T T T"
Sb       2.07416991       1.46664367       3.59254915       0.00002569      -0.00003541      -0.00001653
Sb       6.22248567       4.39996133      10.77764622       0.00000284      -0.00001323      -0.00004464
Cr      -0.00000134       0.00000100       0.00000186       0.00000709       0.00000877      -0.00000958
Cl       1.90532949       1.34727444       7.18510716      -0.00043104      -0.00029996       0.00000606
Cl       6.39131751       4.51934731       7.18511046       0.00040854       0.00031546       0.00001440
Cl       5.26981822       1.34727445       5.24261732       0.00019844      -0.00029699      -0.00036396
Cl       3.02682887       4.51934560       9.12759459      -0.00020897       0.00031366       0.00037716
Cl       3.02682455       4.51934771       5.24261902      -0.00021142       0.00030694      -0.00035144
Cl       5.26981857       1.34727738       9.12759488       0.00020889      -0.00029935       0.00038829
