9
Lattice="5.359230416192412 -4.417262448530688e-08 3.0941529911711987 1.7864100738287254 5.052730107419359 3.0941530314513126 -9.52587773883484e-08 -1.8025244950516646e-08 6.188306147335426" Properties=species:S:1:pos:R:3:forces:R:3 energy=-42.24906921386719 free_energy=-42.24906921386719 stress="0.00015965219063218683 1.6433645555480325e-08 -1.592922771465055e-08 1.6433645555480325e-08 0.00015957638970576227 -9.944518097881883e-09 -1.592922771465055e-08 -9.944518097881883e-09 0.00015958263247739524" pbc="T T T"
Sb       1.78641004       1.26318544       3.09415136       0.00000219       0.00002561      -0.00001384
Sb       5.35923099       3.78954653       9.28245671       0.00000357      -0.00000969      -0.00002614
Cr      -0.00000012      -0.00000013       0.00000011       0.00000031       0.00000287       0.00000083
S        1.84878859       1.30729115       6.18830677       0.00020637       0.00015168       0.00000896
S        5.29685181       3.74543858       6.18830696      -0.00020696      -0.00015724       0.00001151
S        4.43483600       1.30729075       4.69525132      -0.00010265       0.00014625       0.00018659
S        2.71080445       3.74543828       7.68136232       0.00010678      -0.00016069      -0.00017634
S        2.71080384       3.74543837       4.69525105       0.00009750      -0.00015596       0.00018598
S        4.43483600       1.30729117       7.68136196      -0.00010693       0.00015722      -0.00017756
