9
Lattice="5.296421592618088 4.3572274874443307e-07 3.0578900304467234 1.7654742094695062 4.993513800765347 3.0578901439650825 -1.0016636951020044e-07 6.820270736545431e-08 6.115780234386688" Properties=species:S:1:pos:R:3:forces:R:3 energy=-35.350860595703125 free_energy=-35.350860595703125 stress="-3.7554265873041004e-05 -8.397723405551005e-09 -1.2280392702734844e-08 -8.397723405551005e-09 -3.746041693375446e-05 -4.317173463164181e-08 -1.2280392702734844e-08 -4.317173463164181e-08 -3.753158307517879e-05" pbc="T T T"
Sb       1.76546962       1.24838086       3.05788902      -0.00004642       0.00002088      -0.00001943
Sb       5.29642052       3.74513641       9.17366897      -0.00000935      -0.00000354      -0.00002348
C        0.00000108       0.00001053       0.00001450       0.00001816       0.00021775       0.00030050
S        1.66017461       1.17392029       6.11578094      -0.00317839      -0.00225651       0.00000543
S        5.40171811       3.81958839       6.11578063       0.00308701       0.00215757       0.00000627
S        4.46633812       1.17391823       4.49564085       0.00164530      -0.00230546      -0.00280684
S        2.59556556       3.81958689       7.73591059      -0.00149548       0.00212115       0.00260776
S        2.59556123       3.81959167       4.49564294      -0.00158264       0.00223678      -0.00274354
S        4.46633382       1.17392389       7.73591319       0.00156224      -0.00218834       0.00267360
