9
Lattice="6.2286942673055306 6.073661738431618e-07 3.596137322313317 2.076231774839345 5.872471522613278 3.5961377037563165 9.18608636797049e-08 5.321257093964132e-07 7.1922744855189835" Properties=species:S:1:pos:R:3:forces:R:3 energy=-26.030296325683594 free_energy=-26.030296325683594 stress="-2.9628934498759918e-05 -3.6410403581044193e-09 -3.6140013204288834e-09 -3.6410403581044193e-09 -2.9690459996345453e-05 -2.1061177246650686e-09 -3.6140013204288834e-09 -2.1061177246650686e-09 -2.9594655643450096e-05" pbc="T T T"
Sb       2.07622895       1.46812045       3.59613114      -0.00001315       0.00001538      -0.00003382
Sb       6.22869263       4.40435520      10.78840319      -0.00001412      -0.00000087      -0.00004740
Ca       0.00000013       0.00000019       0.00000063      -0.00000051      -0.00000060       0.00000315
Cl       2.15121175       1.52113700       7.19227828       0.00062943       0.00044150       0.00001814
Cl       6.15371577       4.35133318       7.19228039      -0.00061861      -0.00044952       0.00002389
Cl       5.15308804       1.52113808       5.45914152      -0.00030536       0.00043471       0.00054932
Cl       3.15183914       4.35133367       8.92541102       0.00032113      -0.00044926      -0.00052772
Cl       3.15183845       4.35133438       5.45914212       0.00031101      -0.00043728       0.00054923
Cl       5.15308967       1.52113847       8.92540967      -0.00030984       0.00044592      -0.00053482
