9
Lattice="6.404970174517878 5.664448039744083e-07 3.69790981444236 2.1349904195589087 6.0386635038014465 3.69791011350317 8.908485587629789e-07 9.961984386410228e-07 7.3958180858899745" Properties=species:S:1:pos:R:3:forces:R:3 energy=-20.20850944519043 free_energy=-20.20850944519043 stress="8.923028508434072e-05 -1.1679799349906261e-08 -1.6524050749922026e-07 -1.1679799349906261e-08 8.927988528739661e-05 -1.445167470137676e-07 -1.6524050749922026e-07 -1.445167470137676e-07 8.920367690734565e-05" pbc="T T T"
Sb       2.13498762       1.50968231       3.69792950      -0.00000941       0.00008715       0.00010533
Sb       6.40496200       4.52900784      11.09370914      -0.00004960       0.00004245      -0.00009854
C        0.00000069      -0.00000134      -0.00000093       0.00000313      -0.00000314       0.00000141
Br       2.06848648       1.46263175       7.39581149      -0.00179769      -0.00131620      -0.00002490
Br       6.47148151       4.57602412       7.39582398       0.00182766       0.00126314       0.00002499
Br       5.37072534       1.46263468       5.48926711       0.00089946      -0.00131550      -0.00156903
Br       3.16923849       4.57602489       9.30237513      -0.00088156       0.00127448       0.00158563
Br       3.16922442       4.57601471       5.48926175      -0.00092609       0.00124344      -0.00158738
Br       5.37073944       1.46264132       9.30237496       0.00093414      -0.00127587       0.00156248
