9
Lattice="6.3616089391052455 1.0239310102622932e-07 3.672876975985187 2.120536249628439 5.99778255592019 3.672877253016077 -3.4067812888974627e-07 9.839628396141236e-08 7.345754542042124" Properties=species:S:1:pos:R:3:forces:R:3 energy=-23.673404693603516 free_energy=-23.673404693603516 stress="-6.918686267454177e-05 9.491205155143234e-09 -6.160598697846353e-09 9.491205155143234e-09 -6.912015669513494e-05 -1.089641377127748e-09 -6.160598697846353e-09 -1.089641377127748e-09 -6.91770765115507e-05" pbc="T T T"
Sb       2.12053824       1.49944933       3.67287235       0.00000974       0.00001743      -0.00002805
Sb       6.36161084       4.49833642      11.01862493       0.00001292      -0.00000555      -0.00003370
Co      -0.00000039       0.00000034       0.00000053      -0.00000002      -0.00000321      -0.00000033
Br       2.04327157       1.44481378       7.34575738      -0.00091048      -0.00064132       0.00000949
Br       6.43887202       4.55296832       7.34575771       0.00091157       0.00063926       0.00001127
Br       5.33997238       1.44481103       5.44240435       0.00044755      -0.00064394      -0.00077589
Br       3.14217288       4.55296768       9.24910544      -0.00045930       0.00064048       0.00080185
Br       3.14217060       4.55297072       5.44240538      -0.00046011       0.00063830      -0.00078010
Br       5.33997125       1.44481344       9.24910702       0.00044814      -0.00064147       0.00079537
