9
Lattice="6.830842643392534 2.004820291158478e-08 3.9437888426585177 2.2769475659089355 6.440180185226912 3.9437888440273507 1.1403905100820635e-08 9.74025854175731e-09 7.887577665564963" Properties=species:S:1:pos:R:3:forces:R:3 energy=-25.49147605895996 free_energy=-25.49147605895996 stress="-3.854863734886749e-06 -1.2159492079888423e-08 2.7726791529403272e-08 -1.2159492079888423e-08 -3.857511728710961e-06 -3.234245937733249e-08 2.7726791529403272e-08 -3.234245937733249e-08 -3.825984094874002e-06" pbc="T T T"
Sb       2.27694793       1.61004260       3.94378734      -0.00000060      -0.00000523      -0.00000516
Sb       6.83084343       4.83013613      11.83136689       0.00000447       0.00000087       0.00000054
Cr      -0.00000049      -0.00000049      -0.00000027       0.00000478       0.00000567       0.00000226
I        2.17712473       1.53945993       7.88757830      -0.00012888      -0.00009128       0.00000132
I        6.93066579       4.90072149       7.88757774       0.00012086       0.00008851      -0.00000027
I        5.74228028       1.53945952       5.82923458       0.00006347      -0.00009051      -0.00011020
I        3.36550953       4.90072112       9.94592114      -0.00006326       0.00009053       0.00010904
I        3.36550959       4.90072130       5.82923450      -0.00006351       0.00009180      -0.00010838
I        5.74228004       1.53945923       9.94592122       0.00006263      -0.00009040       0.00011088
