9
Lattice="6.119130443792515 7.150756147044979e-08 3.532881552844388 2.0397101626459424 5.769171576865645 3.5328816441284556 -3.6653357517405896e-08 8.588180997854245e-08 7.0657631691742475" Properties=species:S:1:pos:R:3:forces:R:3 energy=-34.78567123413086 free_energy=-34.78567123413086 stress="-6.019834927428747e-06 -7.203889484941328e-09 -5.444728667924892e-09 -7.203889484941328e-09 -6.023993591952603e-06 -1.5510477346936113e-09 -5.444728667924892e-09 -1.5510477346936113e-09 -6.010450306348503e-06" pbc="T T T"
Sb       2.03971119       1.44229273       3.53288144       0.00000547      -0.00000112      -0.00000021
Sb       6.11913031       4.32688014      10.59864360      -0.00000185       0.00000658      -0.00000737
Cr       0.00000018       0.00000021      -0.00000045      -0.00000015       0.00000000       0.00000721
Te       2.11340183       1.49440043       7.06576309       0.00016031       0.00011234       0.00000071
Te       6.04543860       4.27477103       7.06576338      -0.00016223      -0.00011510       0.00000205
Te       5.06242888       1.49439977       5.36314146      -0.00008072       0.00010822       0.00013917
Te       3.09641140       4.27477135       8.76838578       0.00008372      -0.00011517      -0.00013961
Te       3.09641078       4.27477092       5.36314131       0.00007839      -0.00011148       0.00013772
Te       5.06242911       1.49440034       8.76838584      -0.00008295       0.00011574      -0.00013965
