9
Lattice="5.335530279893699 -1.310598049238705e-07 3.080469792974744 1.7785099790330565 5.030386092882643 3.080469776867511 -1.041175592441386e-07 -9.334946737494458e-08 6.160939766286332" Properties=species:S:1:pos:R:3:forces:R:3 energy=-40.41232681274414 free_energy=-40.41232681274414 stress="-0.00011162267037434503 2.3648455638181076e-08 -3.399349468580226e-09 2.3648455638181076e-08 -0.00011164611350977793 1.53625485665998e-08 -3.399349468580226e-09 1.53625485665998e-08 -0.00011165447358507663" pbc="T T T"
Sb       1.77851050       1.25759403       3.08046870       0.00000482      -0.00002740      -0.00001206
Sb       5.33553120       3.77279000       9.24141409       0.00001144       0.00000601       0.00005009
Fe      -0.00000007       0.00000001       0.00000047       0.00000028       0.00000147      -0.00000551
S        1.79255937       1.26753098       6.16094005      -0.00026149      -0.00018436       0.00000506
S        5.32148026       3.76285604       6.16093788       0.00025204       0.00019401      -0.00002038
S        4.43925075       1.26753131       4.63287121       0.00012980      -0.00017411      -0.00022861
S        2.67478868       3.76285533       7.68900634      -0.00014098       0.00018927       0.00021431
S        2.67479018       3.76285623       4.63287183      -0.00011922       0.00019032      -0.00022045
S        4.43924979       1.26752951       7.68900669       0.00012289      -0.00019535       0.00021738
