9
Lattice="6.785580646580448 2.814724463643678e-06 3.9176615509382278 2.2618629566759463 6.3975033515001485 3.9176613995592358 1.4695068729091618e-06 8.536944652912797e-07 7.835320556615947" Properties=species:S:1:pos:R:3:forces:R:3 energy=-26.422969818115234 free_energy=-26.422969818115234 stress="-1.654730658628978e-05 -9.941187784079375e-08 -2.0683680190813902e-07 -9.941187784079375e-08 -1.650445665291045e-05 1.5103685768735886e-07 -2.0683680190813902e-07 1.5103685768735886e-07 -1.6794187104096636e-05" pbc="T T T"
Sb       2.26186221       1.59938489       3.91766737      -0.00000456       0.00000900       0.00000017
Sb       6.78555768       4.79813357      11.75296645      -0.00001898       0.00000151      -0.00000942
Fe       0.00000328      -0.00000218       0.00000096       0.00000723       0.00000221       0.00000022
Br       1.83047053       1.29433251       7.83531970       0.00125199       0.00087456      -0.00000184
Br       7.21698092       5.10317031       7.83532679      -0.00123899      -0.00088026       0.00000469
Br       5.87035446       1.29433855       5.50289313      -0.00061703       0.00086423       0.00106999
Br       3.17710101       5.10316665      10.16775239       0.00061280      -0.00086747      -0.00105690
Br       3.17709888       5.10316703       5.50289062       0.00063255      -0.00089093       0.00108583
Br       5.87035140       1.29433684      10.16775685      -0.00062484       0.00088689      -0.00109293
