9
Lattice="6.10453285572944 -1.947938441298167e-07 3.5244533193914567 2.0348443286667317 5.755407843519932 3.524452926082488 1.5503971550875874e-07 -3.7207341245444674e-07 7.048906370246258" Properties=species:S:1:pos:R:3:forces:R:3 energy=-34.387168884277344 free_energy=-34.387168884277344 stress="-2.897666308854241e-05 -7.50916040459515e-09 -3.7788595363963395e-08 -7.50916040459515e-09 -2.8924239813932218e-05 4.810124210052891e-08 -3.7788595363963395e-08 4.810124210052891e-08 -2.894910539907869e-05" pbc="T T T"
Sb       2.03484668       1.43884451       3.52445129       0.00000785      -0.00002886      -0.00000872
Sb       6.10453032       4.31656079      10.57336273      -0.00001011       0.00002120       0.00001148
Fe      -0.00000027      -0.00000007      -0.00000035       0.00000354       0.00000140       0.00000641
Te       1.97829692       1.39886185       7.04890665      -0.00325415      -0.00231263       0.00000093
Te       6.16108104       4.35654523       7.04890517       0.00325082       0.00231277      -0.00000326
Te       5.11538587       1.39886506       5.23770764       0.00163220      -0.00230946      -0.00282624
Te       3.02399209       4.35654352       8.86010473      -0.00162960       0.00231086       0.00282181
Te       3.02399346       4.35654498       5.23770646      -0.00162248       0.00231036      -0.00282154
Te       5.11538379       1.39886309       8.86010621       0.00162187      -0.00230569       0.00281907
