9
Lattice="6.91723566164501 3.4868453764799626e-07 3.9936674847139333 2.3057454840903193 6.521632294698093 3.993667597645284 -2.3658835876202486e-07 -2.8981088692491096e-08 7.987335379210913" Properties=species:S:1:pos:R:3:forces:R:3 energy=-23.57124137878418 free_energy=-23.57124137878418 stress="-0.00019158839131705463 1.0734069633144827e-08 1.891937273512667e-08 1.0734069633144827e-08 -0.00019158860959578305 2.5273150683347012e-08 1.891937273512667e-08 2.5273150683347012e-08 -0.0001915835600811988" pbc="T T T"
Sb       2.30574586       1.63040872       3.99366584      -0.00000010       0.00000135       0.00000064
Sb       6.91723645       4.89122649      11.98100773       0.00000223       0.00000149       0.00000266
Fe       0.00000066      -0.00000050      -0.00000110      -0.00002315       0.00000282       0.00001613
I        1.98165335       1.40124024       7.98733518      -0.00564176      -0.00399004      -0.00000167
I        7.24132674       5.12039111       7.98733463       0.00565495       0.00399908       0.00000010
I        5.92640856       1.40124132       5.70983012       0.00282679      -0.00399980      -0.00489835
I        3.29657141       5.12039124      10.26483972      -0.00281810       0.00398543       0.00488176
I        3.29657220       5.12039139       5.70982974      -0.00282263       0.00399090      -0.00488946
I        5.92640835       1.40124056      10.26483983       0.00282197      -0.00399134       0.00488811
