9
Lattice="6.200431486961544 2.0909058401671452e-08 3.579821185379205 2.066810372801653 5.845823238623498 3.5798214323096116 -1.4142144598540775e-06 -6.97573601720008e-07 7.15964482024931" Properties=species:S:1:pos:R:3:forces:R:3 energy=-29.206010818481445 free_energy=-29.206010818481445 stress="2.2260506739257835e-05 -2.052636034477473e-07 6.86751917555739e-08 -2.052636034477473e-07 2.1941623344901018e-05 2.8212047809006435e-08 6.86751917555739e-08 2.8212047809006435e-08 2.156515074602794e-05" pbc="T T T"
Sb       2.06683492       1.46145947       3.57982600       0.00005921       0.00000964       0.00001964
Sb       6.20042522       4.38436880      10.73948267      -0.00000240       0.00000565       0.00003961
Fe      -0.00000113      -0.00000036      -0.00000110      -0.00000344       0.00000073      -0.00000809
Cl       1.79798837       1.27136980       7.15964291      -0.00126757      -0.00089184      -0.00000467
Cl       6.46924876       4.57445232       7.15963809       0.00124902       0.00088506      -0.00001500
Cl       5.30142815       1.27137346       5.13691988       0.00061984      -0.00088871      -0.00109887
Cl       2.96580268       4.57444930       9.18235934      -0.00063587       0.00088331       0.00108171
Cl       2.96580424       4.57444960       5.13692445      -0.00063793       0.00089024      -0.00109153
Cl       5.30143059       1.27136784       9.18235751       0.00061915      -0.00089417       0.00107717
