9
Lattice="4.724493343704258 -8.873777159942956e-08 2.727687577311652 1.5748310341337486 4.454295184973509 2.727687571719822 -1.3716907924419353e-07 -1.0384174996675409e-07 5.455375392207109" Properties=species:S:1:pos:R:3:forces:R:3 energy=-40.11741638183594 free_energy=-40.11741638183594 stress="0.0007540408987551928 4.114021479040275e-08 2.38607867686369e-07 4.114021479040275e-08 0.0007537258788943291 1.6445851258595212e-07 2.38607867686369e-07 1.6445851258595212e-07 0.0007539803627878428" pbc="T T T"
Sb       1.57483178       1.11357794       2.72769158       0.00001175       0.00006504       0.00006621
Sb       4.72449425       3.34072174       8.18305797       0.00001689       0.00000626      -0.00008436
Fe       0.00000001       0.00000029      -0.00000013       0.00000238       0.00000629      -0.00000001
F        1.61944429       1.14512027       5.45537309      -0.00225811      -0.00159393      -0.00003366
F        4.67988080       3.30917359       5.45537780       0.00227149       0.00157513       0.00004263
F        3.91476958       1.14511879       4.13016797       0.00110184      -0.00161744      -0.00195064
F        2.38455381       3.30917413       6.78058369      -0.00111891       0.00158399       0.00196719
F        2.38455104       3.30917290       4.13016735      -0.00116736       0.00155787      -0.00196134
F        3.91477138       1.14512033       6.78058292       0.00113995      -0.00158326       0.00195405
