9
Lattice="6.232281107074119 -1.3180837085764134e-08 3.598209136863352 2.077426969959559 5.875851105795861 3.5982092291899774 1.2791591936041562e-08 1.2212161195319998e-07 7.1964182515709645" Properties=species:S:1:pos:R:3:forces:R:3 energy=-27.364269256591797 free_energy=-27.364269256591797 stress="-3.65948180842679e-05 2.408892862959533e-09 3.696758676952072e-09 2.408892862959533e-09 -3.6585905036190525e-05 -1.4136247727947193e-08 3.696758676952072e-09 -1.4136247727947193e-08 -3.6574598198058084e-05" pbc="T T T"
Sb       2.07742707       1.46896338       3.59820881      -0.00000005       0.00000379      -0.00000108
Sb       6.23228075       4.40688757      10.79462739      -0.00000228      -0.00000539      -0.00000092
Ga      -0.00000000       0.00000011       0.00000023       0.00000086       0.00000004       0.00000153
Te       2.22656807       1.57442217       7.19641821      -0.00439528      -0.00310562       0.00000023
Te       6.08313976       4.30142908       7.19641831       0.00439411       0.00310564       0.00000036
Te       5.11899715       1.57442205       5.52647365       0.00219789      -0.00310535      -0.00380679
Te       3.19071151       4.30142915       8.86636309      -0.00219519       0.00310486       0.00380738
Te       3.19071118       4.30142938       5.52647383      -0.00219771       0.00310743      -0.00380623
Te       5.11899691       1.57442195       8.86636293       0.00219762      -0.00310552       0.00380555
