9
Lattice="6.386525540095082 3.176525284616839e-07 3.6872626710687735 2.1288420671097095 6.021275362051774 3.6872628080294416 -1.7286701344343136e-07 4.550642624066039e-08 7.374525641552072" Properties=species:S:1:pos:R:3:forces:R:3 energy=-25.493206024169922 free_energy=-25.493206024169922 stress="1.4851596461085137e-05 -1.9509990067945182e-07 -6.665370477776378e-08 -1.9509990067945182e-07 1.4500783436233178e-05 -6.80421905485673e-08 -6.665370477776378e-08 -6.80421905485673e-08 1.4362455658556428e-05" pbc="T T T"
Sb       2.12885601       1.50532546       3.68726753       0.00002778       0.00001708       0.00000706
Sb       6.38652353       4.51597408      11.06178114      -0.00000148       0.00003303      -0.00001172
Ge      -0.00000098      -0.00000147       0.00000072      -0.00000295      -0.00000767      -0.00000459
Cl       1.86224906       1.31680118       7.37452405      -0.00096354      -0.00068476       0.00000330
Cl       6.65311760       4.70446805       7.37452491       0.00095186       0.00067023       0.00000372
Cl       5.45539621       1.31680584       5.30001459       0.00048239      -0.00068825      -0.00082716
Cl       3.05996543       4.70446113       9.44904000      -0.00048513       0.00067173       0.00082407
Cl       3.05996335       4.70446319       5.30001602      -0.00049159       0.00067730      -0.00082226
Cl       5.45539953       1.31680544       9.44903541       0.00048282      -0.00068861       0.00082756
