9
Lattice="5.470892112812329 9.045896063076911e-09 3.158620748569114 1.8236306558042108 5.158006480037368 3.15862084728755 7.449285266450969e-09 1.2617235349532082e-07 6.317241484235692" Properties=species:S:1:pos:R:3:forces:R:3 energy=-34.94137191772461 free_energy=-34.94137191772461 stress="-0.00020361383212730289 8.306142440517306e-10 -4.060614067213919e-09 8.306142440517306e-10 -0.00020365875388961285 6.252419026964162e-09 -4.060614067213919e-09 6.252419026964162e-09 -0.00020354919251985848" pbc="T T T"
Sb       1.82363055       1.28950565       3.15862146       0.00000051       0.00004683       0.00000928
Sb       5.47089297       3.86850451       9.47586434       0.00001146      -0.00000735       0.00002233
Ge      -0.00000016      -0.00000010       0.00000016       0.00000390       0.00000026      -0.00000166
S        1.87740440       1.32752625       6.31724077       0.00068557       0.00049010      -0.00000678
S        5.41711839       3.83048023       6.31724101      -0.00068551      -0.00050342      -0.00000970
S        4.53219007       1.32752615       4.78450035      -0.00034656       0.00049722       0.00059620
S        2.76233221       3.83047908       7.84998294       0.00033128      -0.00050248      -0.00059506
S        2.76233279       3.83047987       4.78449989       0.00034311      -0.00050345       0.00058928
S        4.53218985       1.32752486       7.84998137      -0.00034344       0.00048210      -0.00060397
