9
Lattice="6.834780917520783 -3.376045398145421e-08 3.946062631949868 2.278260279943022 6.443893163724687 3.9460626216746184 -1.1211199522335993e-08 -2.051207098595672e-08 7.892125283318129" Properties=species:S:1:pos:R:3:forces:R:3 energy=-18.502553939819336 free_energy=-18.502553939819336 stress="0.00014878649380989373 1.873263144602788e-08 -1.3412369881393715e-08 1.873263144602788e-08 0.00014878599904477596 2.3417284111815206e-08 -1.3412369881393715e-08 2.3417284111815206e-08 0.00014878352521918714" pbc="T T T"
Sb       2.27825922       1.61097346       3.94606245      -0.00000108       0.00000014      -0.00000007
Sb       6.83478249       4.83292015      11.83818834       0.00000442       0.00000105       0.00000001
Ga      -0.00000005      -0.00000001      -0.00000010       0.00000041       0.00000129       0.00000014
I        2.28583713       1.61633115       7.89212525       0.00029781       0.00021240      -0.00000001
I        6.82720399       4.82756183       7.89212522      -0.00029990      -0.00021316      -0.00000014
I        5.69186247       1.61633073       5.92565595      -0.00014891       0.00021126       0.00026044
I        3.42117857       4.82756210       9.85859458       0.00014793      -0.00021167      -0.00026113
I        3.42117867       4.82756230       5.92565593       0.00014869      -0.00021137       0.00026040
I        5.69186226       1.61633072       9.85859452      -0.00014947       0.00020999      -0.00025956
