9
Lattice="5.68393124443161 2.396222832057465e-08 3.2816192615005564 1.894643786059378 5.358861408651174 3.281619234959096 1.1544214843944472e-07 4.912342463561634e-08 6.563238323049369" Properties=species:S:1:pos:R:3:forces:R:3 energy=-32.08128356933594 free_energy=-32.08128356933594 stress="-6.388326437445357e-05 1.5024880894998205e-08 -3.002802984042319e-08 1.5024880894998205e-08 -6.39181598671712e-05 -7.497869880523922e-09 -3.002802984042319e-08 -7.497869880523922e-09 -6.386731547536328e-05" pbc="T T T"
Sb       1.89464497       1.33971367       3.28161836       0.00001331      -0.00001327      -0.00001050
Sb       5.68393145       4.01914465       9.84485886      -0.00000176      -0.00001260       0.00001241
Ge       0.00000006       0.00000007       0.00000017      -0.00000059       0.00000040       0.00000040
Se       1.99230607       1.40877391       6.56323870      -0.00624908      -0.00441087       0.00000225
Se       5.58626846       3.95008873       6.56323793       0.00624083       0.00442201      -0.00000489
Se       4.68777792       1.40877375       5.00700641       0.00312128      -0.00441000      -0.00541371
Se       2.89079694       3.95008853       8.11946952      -0.00312319       0.00441714       0.00540426
Se       2.89079747       3.95008913       5.00700698      -0.00311661       0.00442130      -0.00540485
Se       4.68777724       1.40877349       8.11947036       0.00311562      -0.00441422       0.00541456
