9
Lattice="6.633122239026718 2.0902833447149634e-06 3.8296342601405273 2.2110416847110144 6.253768683471734 3.829636048256476 1.0160834727846232e-06 2.908465295534464e-06 7.659266760372917" Properties=species:S:1:pos:R:3:forces:R:3 energy=-21.452157974243164 free_energy=-21.452157974243164 stress="-1.6168107322300784e-05 -1.0641441861025669e-07 -6.690082443583378e-08 -1.0641441861025669e-07 -1.625474396860227e-05 -4.484417459593715e-08 -6.690082443583378e-08 -4.484417459593715e-08 -1.644703297642991e-05" pbc="T T T"
Sb       2.21104348       1.56344644       3.82964673       0.00000048       0.00001528       0.00003121
Sb       6.63310814       4.69033264      11.48889713      -0.00005389       0.00000586      -0.00000459
Ge       0.00000034      -0.00000010      -0.00000072      -0.00000967       0.00000270       0.00000759
Br       2.01741826       1.42652896       7.65926035      -0.00634409      -0.00449345      -0.00002262
Br       6.82674801       4.82723890       7.65927180       0.00637051       0.00450230       0.00001533
Br       5.62441449       1.42653480       5.57676791       0.00318074      -0.00451063      -0.00552467
Br       3.21975244       4.82723927       9.74177472      -0.00315886       0.00448742       0.00549765
Br       3.21976090       4.82724219       5.57676116      -0.00316850       0.00448701      -0.00550923
Br       5.62441369       1.42653174       9.74176916       0.00318313      -0.00449643       0.00550935
