9
Lattice="6.205958223932417 -2.0911626684418185e-07 3.5830108678481247 2.0686519319507144 5.851034231408059 3.583011928215433 3.0893167285140626e-08 1.3205242536773272e-06 7.16602168218765" Properties=species:S:1:pos:R:3:forces:R:3 energy=-24.485454559326172 free_energy=-24.485454559326172 stress="0.0001332626270595938 1.1514142528312732e-08 2.8737173352055834e-07 1.1514142528312732e-08 0.00013363845937419683 2.009664115121268e-07 2.8737173352055834e-07 2.009664115121268e-07 0.00013327173655852675" pbc="T T T"
Sb       2.06864828       1.46277353       3.58299755      -0.00001389       0.00006104      -0.00005457
Sb       6.20595697       4.38827313      10.74904592      -0.00000561      -0.00000773       0.00005406
Ga       0.00000042      -0.00000035      -0.00000122       0.00000369      -0.00000509       0.00001065
Cl       1.95674649       1.38362782       7.16602757      -0.00208025      -0.00147896       0.00001205
Cl       6.31786712       4.46740498       7.16601631       0.00208427       0.00145443      -0.00000870
Cl       5.22758850       1.38363176       5.27760097       0.00105603      -0.00147153      -0.00180277
Cl       3.04702140       4.46740024       9.05444613      -0.00104406       0.00145100       0.00180611
Cl       3.04702635       4.46740326       5.27760230      -0.00104427       0.00146934      -0.00180978
Cl       5.22758526       1.38362695       9.05444226       0.00104412      -0.00147262       0.00179297
