9
Lattice="5.726431632075097 -1.038810248756402e-06 3.3061579352264787 1.9088099393894458 5.398926366853893 3.306157286116771 -1.0895172978856182e-05 -8.499049425573346e-06 6.6123347414576825" Properties=species:S:1:pos:R:3:forces:R:3 energy=-37.26643371582031 free_energy=-37.26643371582031 stress="-1.7205255062435754e-05 -1.4597533208871027e-06 4.2364231376268435e-06 -1.4597533208871027e-06 -1.301843258261215e-05 3.0617763968621148e-06 4.2364231376268435e-06 3.0617763968621148e-06 -2.1329686205717735e-05" pbc="T T T"
Sb       1.90884490       1.34985876       3.30605286       0.00009032       0.00026905      -0.00024698
Sb       5.72622427       4.04897994       9.91886734      -0.00038855      -0.00041477       0.00074632
Ge       0.00001294       0.00000641      -0.00002186       0.00004795       0.00001424      -0.00006060
F        1.50608528       1.06496524       6.61232155       0.00052679       0.00036180      -0.00006461
F        6.12917725       4.33396064       6.61222565      -0.00045580      -0.00033349      -0.00008968
F        4.97342870       1.06502490       4.61041093      -0.00020039       0.00038928       0.00034961
F        2.66184707       4.33394490       8.61416888       0.00027642      -0.00032297      -0.00048232
F        2.66191356       4.33396004       4.61040632       0.00030524      -0.00033376       0.00034347
F        4.97338904       1.06496657       8.61416867      -0.00020230       0.00037071      -0.00049523
