9
Lattice="5.634810902770362 1.6467409917837851e-09 3.253259554762301 1.8782703077757772 5.31255059416388 3.2532595455828592 2.8448890978876772e-08 8.873933398400546e-09 6.506519060249645" Properties=species:S:1:pos:R:3:forces:R:3 energy=-30.889949798583984 free_energy=-30.889949798583984 stress="0.00044096726924180984 -1.4621710953122147e-08 1.016541961718076e-08 -1.4621710953122147e-08 0.0004410156689118594 2.4401005660479314e-09 1.016541961718076e-08 2.4401005660479314e-09 0.0004409185203257948" pbc="T T T"
Sb       1.87827040       1.32813716       3.25325854       0.00000352      -0.00000217      -0.00000932
Sb       5.63480768       3.98441342       9.75977411      -0.00003142       0.00000095      -0.00004033
Ga       0.00000001       0.00000024       0.00000021      -0.00000013      -0.00000107      -0.00000192
Se       2.01543840       1.42512943       6.50651935      -0.00673397      -0.00477247       0.00000390
Se       5.49764349       3.88742046       6.50652120       0.00674006       0.00476478       0.00001909
Se       4.62709159       1.42512929       4.99868048       0.00336626      -0.00477032      -0.00583012
Se       2.88599124       3.88742046       8.01435945      -0.00335226       0.00476756       0.00584892
Se       2.88599019       3.88742127       4.99868016      -0.00336270       0.00476987      -0.00583524
Se       4.62709198       1.42513065       8.01435916       0.00337057      -0.00475698       0.00584488
