9
Lattice="5.4137305429016855 -1.4504609977696427e-07 3.125618545957053 1.8045766897739501 5.104113885592494 3.1256185825192193 -8.324353615415632e-08 -1.4082752815586468e-08 6.251237236096102" Properties=species:S:1:pos:R:3:forces:R:3 energy=-33.9338493347168 free_energy=-33.9338493347168 stress="-0.0001545785489724949 3.806939474770843e-08 3.7087090731802164e-08 3.806939474770843e-08 -0.00015456130495294929 3.1560755786586014e-08 3.7087090731802164e-08 3.1560755786586014e-08 -0.0001545258128317073" pbc="T T T"
Sb       1.80457734       1.27602704       3.12561795       0.00000307      -0.00001055      -0.00000509
Sb       5.41373047       3.82808480       9.37685202       0.00000185      -0.00000763      -0.00004030
Ga      -0.00000019       0.00000004      -0.00000026      -0.00000013      -0.00000443       0.00000376
S        1.90251395       1.34528166       6.25123742      -0.00450827      -0.00318111       0.00000262
S        5.31579267       3.75883321       6.25123845       0.00450630       0.00319052       0.00001552
S        4.46247274       1.34528004       4.77324513       0.00225004      -0.00319475      -0.00389706
S        2.75583511       3.75883329       7.72923050      -0.00224502       0.00319146       0.00390768
S        2.75583354       3.75883311       4.77324525      -0.00225900       0.00319356      -0.00389716
S        4.46247293       1.34528169       7.72923103       0.00225104      -0.00317702       0.00390983
