9
Lattice="4.63543036467411 -8.960433592526107e-09 2.676266843734842 1.5451434345441404 4.370325697045516 2.676266864344967 -2.1415848999140604e-07 -1.261907858057824e-07 5.352534058403059" Properties=species:S:1:pos:R:3:forces:R:3 energy=-44.725868225097656 free_energy=-44.725868225097656 stress="0.00010165770072489977 1.1453820114581958e-08 6.426061105457848e-08 1.1453820114581958e-08 0.00010164328705286607 1.0134489514257439e-07 6.426061105457848e-08 1.0134489514257439e-07 0.0001017122995108366" pbc="T T T"
Sb       1.54514712       1.09257991       2.67626899       0.00005445      -0.00002207       0.00002726
Sb       4.63543388       3.27774138       8.02879878       0.00004922      -0.00003821      -0.00002410
Ga       0.00000073      -0.00000013      -0.00000026       0.00000008      -0.00000609       0.00000550
O        1.58541375       1.12106048       5.35253254      -0.00056398      -0.00035685      -0.00001764
O        4.59515673       3.24926844       5.35253543       0.00053447       0.00040311       0.00001427
O        3.84271993       1.12105828       4.04927589       0.00024426      -0.00038260      -0.00048554
O        2.33785084       3.24926789       6.65579029      -0.00028116       0.00039119       0.00046188
O        2.33784973       3.24926730       4.04927764      -0.00029629       0.00038415      -0.00046265
O        3.84272157       1.12105872       6.65579178       0.00025925      -0.00037265       0.00048125
