9
Lattice="6.457056759914491 6.940507636273379e-07 3.7279819367049467 2.1523527344866977 6.087768012153362 3.7279822366536286 9.822798366041435e-07 1.0619372719856193e-06 7.455962172051501" Properties=species:S:1:pos:R:3:forces:R:3 energy=-20.787996292114258 free_energy=-20.787996292114258 stress="-7.620080850756494e-06 -7.111767175160821e-09 -8.187885924826332e-08 -7.111767175160821e-09 -7.440743956976803e-06 -3.640880308353189e-08 -8.187885924826332e-08 -3.640880308353189e-08 -7.576145435450599e-06" pbc="T T T"
Sb       2.15235849       1.52195843       3.72799540       0.00003006       0.00007529       0.00007362
Sb       6.45706223       4.56582778      11.18395078       0.00002484       0.00001284       0.00003341
Ga      -0.00000037      -0.00000072      -0.00000173      -0.00000184      -0.00000291       0.00000080
Br       2.10417448       1.48787738       7.45595452      -0.00001909      -0.00000538      -0.00003083
Br       6.50523495       4.59988978       7.45596246       0.00001778      -0.00001258      -0.00001191
Br       5.40496522       1.48787534       5.55024976      -0.00000895      -0.00001644      -0.00002766
Br       3.20443884       4.59989106       9.36167446      -0.00002135      -0.00001043       0.00000101
Br       3.20443989       4.59988634       5.55024533      -0.00001813      -0.00002353      -0.00003529
Br       5.40496822       1.48787370       9.36167438      -0.00000316      -0.00001682      -0.00000326
