9
Lattice="6.240812746785205 -1.3769045335973996e-07 3.6031350145207957 2.0802708115090884 5.8838947881533015 3.6031349699554633 4.884318171697699e-08 -2.0043827905563194e-08 7.20626994444262" Properties=species:S:1:pos:R:3:forces:R:3 energy=-28.4648380279541 free_energy=-28.4648380279541 stress="-6.992880662437528e-05 9.429221847767622e-10 -3.499249112692837e-09 9.429221847767622e-10 -6.994395516812801e-05 9.782805676650241e-09 -3.499249112692837e-09 9.782805676650241e-09 -6.993606803007424e-05" pbc="T T T"
Sb       2.08026908       1.47097606       3.60313525      -0.00001005       0.00001465       0.00000161
Sb       6.24081318       4.41292049      10.80940536       0.00000374      -0.00000397       0.00000265
Ge       0.00000011      -0.00000038       0.00000049       0.00000129       0.00000090      -0.00000424
Te       2.23953022       1.58358780       7.20627007       0.00118038       0.00083809       0.00000039
Te       6.08155386       4.30030641       7.20626991      -0.00117819      -0.00084272      -0.00000141
Te       5.12104834       1.58358724       5.54262559      -0.00058752       0.00083780       0.00102495
Te       3.20003581       4.30030679       8.86991452       0.00058698      -0.00083844      -0.00102250
Te       3.20003563       4.30030677       5.54262450       0.00058924      -0.00084218       0.00102298
Te       5.12104822       1.58358735       8.86991407      -0.00058586       0.00083585      -0.00102437
