9
Lattice="4.800556046844658 4.848691388252462e-08 2.7716021989025617 1.6001852519412136 4.526008033611728 2.77160244610243 2.2343176621137625e-08 3.185557850350995e-07 5.543204359105599" Properties=species:S:1:pos:R:3:forces:R:3 energy=-36.65517807006836 free_energy=-36.65517807006836 stress="7.819660095265135e-05 -6.320816936522533e-08 1.6050893236752017e-07 -6.320816936522533e-08 7.842601917218417e-05 1.1165505497956474e-07 1.6050893236752017e-07 1.1165505497956474e-07 7.822522456990555e-05" pbc="T T T"
Sb       1.60019458       1.13150625       2.77159383       0.00015777       0.00007795      -0.00015780
Sb       4.80055454       3.39449715       8.31482140      -0.00003354      -0.00015684       0.00025392
Ga       0.00000010      -0.00000009       0.00000024       0.00000462      -0.00000281      -0.00000245
F        1.58355756       1.11974885       5.54320880      -0.00075375      -0.00046720       0.00007175
F        4.81718104       3.40626351       5.54319692       0.00071162       0.00052315      -0.00012023
F        4.00877675       1.11975157       4.14300045       0.00037052      -0.00041051      -0.00070018
F        2.39196149       3.40625872       6.94340505      -0.00042667       0.00044522       0.00064601
F        2.39196813       3.40626137       4.14300258      -0.00030503       0.00049722      -0.00066720
F        4.00877113       1.11974624       6.94340688       0.00027455      -0.00050586       0.00067614
