9
Lattice="4.688898341737214 -1.4389816532041785e-08 2.7071366824739704 1.562966062671287 4.4207359088027 2.7071367477277044 -7.47939173368171e-08 2.7031892003865483e-08 5.414273494494836" Properties=species:S:1:pos:R:3:forces:R:3 energy=-57.360145568847656 free_energy=-57.360145568847656 stress="1.6569318177062087e-05 -1.442868864387492e-07 -3.3319192738190395e-08 -1.442868864387492e-07 1.65671190188732e-05 9.986383275872868e-09 -3.3319192738190395e-08 9.986383275872868e-09 1.6543524907319807e-05" pbc="T T T"
Sb       1.56296589       1.10518187       2.70713657      -0.00000168      -0.00003066      -0.00000160
Sb       4.68889844       3.31555092       8.12140965      -0.00000374      -0.00001076      -0.00001397
Hf      -0.00000033       0.00000018       0.00000029       0.00000749      -0.00001073      -0.00002102
O        1.64440805       1.16277233       5.41427346      -0.00070453      -0.00049239       0.00000055
O        4.60745570       3.25796430       5.41427412       0.00069547       0.00050777       0.00000615
O        3.86669442       1.16277232       4.13123596       0.00035241      -0.00049084      -0.00060719
O        2.38517083       3.25796397       6.69731034      -0.00035310       0.00051486       0.00061393
O        2.38516995       3.25796468       4.13123662      -0.00034839       0.00050712      -0.00059485
O        3.86669433       1.16277319       6.69731078       0.00035611      -0.00049406       0.00061733
