9
Lattice="6.508419579458953 2.052377292254845e-08 3.757637910691336 2.1694732884128918 6.136196908254802 3.7576377792114934 -1.4524930402593089e-08 -1.7129993829575176e-07 7.515275846540579" Properties=species:S:1:pos:R:3:forces:R:3 energy=-16.230701446533203 free_energy=-16.230701446533203 stress="7.75052685639821e-05 1.333892996058239e-08 3.2519016368581788e-09 1.333892996058239e-08 7.753026147838682e-05 3.295117423363081e-08 3.2519016368581788e-09 3.295117423363081e-08 7.749741052975878e-05" pbc="T T T"
Sb       2.16947256       1.53404781       3.75763829      -0.00000636      -0.00000549       0.00000037
Sb       6.50841904       4.60214741      11.27291177      -0.00000249      -0.00000028      -0.00000868
Hg      -0.00000020      -0.00000002      -0.00000005       0.00000044      -0.00000014      -0.00000137
Br       2.25996844       1.59803869       7.51527582      -0.00434668      -0.00307478      -0.00000081
Br       6.41792428       4.53815855       7.51527657       0.00434738       0.00307631       0.00000372
Br       5.37843591       1.59803893       5.71482818       0.00217470      -0.00307488      -0.00376378
Br       3.29945787       4.53815803       9.31572391      -0.00217048       0.00307631       0.00376688
Br       3.29945726       4.53815832       5.71482806      -0.00217385       0.00307610      -0.00376283
Br       5.37843621       1.59803930       9.31572355       0.00217738      -0.00307322       0.00376646
