9
Lattice="5.5021250764301355 -3.189335364112296e-08 3.1766535259380815 1.8340416929212637 5.187453246466991 3.176653472509073 5.728325133716493e-08 -2.493152607815993e-08 6.353306952658672" Properties=species:S:1:pos:R:3:forces:R:3 energy=-44.048622131347656 free_energy=-44.048622131347656 stress="-4.912662916467525e-06 1.4070694831502806e-08 -3.053938213426477e-09 1.4070694831502806e-08 -4.835705112782307e-06 -1.2665978488257679e-08 -3.053938213426477e-09 -1.2665978488257679e-08 -4.834625997318653e-06" pbc="T T T"
Sb       1.83404210       1.29686200       3.17665333       0.00000434      -0.00001029      -0.00000089
Sb       5.50212293       3.89059024       9.52995938      -0.00002033       0.00000019      -0.00000983
Hf       0.00000006      -0.00000004       0.00000019      -0.00000246      -0.00000285      -0.00000120
S        1.96923361       1.39245780       6.35330702      -0.00049459      -0.00035670       0.00000018
S        5.36693349       3.79499541       6.35330750       0.00050087       0.00036096       0.00000391
S        4.51750844       1.39245817       4.88205958       0.00024683      -0.00035234      -0.00043222
S        2.81865935       3.79499532       7.82455475      -0.00024075       0.00035848       0.00043892
S        2.81865880       3.79499538       4.88205945      -0.00024380       0.00035594      -0.00043468
S        4.51750851       1.39245854       7.82455472       0.00024994      -0.00035337       0.00043589
