9
Lattice="6.878777139212422 2.3664577276049336e-08 3.9714639786020993 2.292925682958444 6.485373281844426 3.9714640694023764 -1.7177478323896852e-08 9.906086150653672e-08 7.942927986956421" Properties=species:S:1:pos:R:3:forces:R:3 energy=-14.496370315551758 free_energy=-14.496370315551758 stress="0.00010224966536043212 -2.08719068695018e-08 -7.042077143637471e-09 -2.08719068695018e-08 0.00010226103040622547 -3.452372832057904e-09 -7.042077143637471e-09 -3.452372832057904e-09 0.00010226140875602141" pbc="T T T"
Sb       2.29292496       1.62134282       3.97146343      -0.00000305      -0.00000221       0.00000125
Sb       6.87877833       4.86403081      11.91439316       0.00000579       0.00000347       0.00000244
Hg       0.00000003       0.00000016       0.00000003       0.00000069      -0.00000025       0.00000031
I        2.43150303       1.71933235       7.94292801      -0.00016701      -0.00011811       0.00000088
I        6.74019962       4.76604108       7.94292784       0.00016603       0.00011754      -0.00000162
I        5.66302559       1.71933213       6.07720758       0.00008459      -0.00011888      -0.00014409
I        3.50867686       4.76604112       9.80864826      -0.00008616       0.00011864       0.00014272
I        3.50867710       4.76604131       6.07720760      -0.00008391       0.00011921      -0.00014366
I        5.66302573       1.71933183       9.80864831       0.00008300      -0.00011943       0.00014175
