9
Lattice="6.357551735845895 1.1764282449369507e-07 3.6705342305445505 2.1191839933729395 5.993957437153801 3.6705342816234383 -7.469814102515179e-09 5.7276643021703386e-08 7.341068474027219" Properties=species:S:1:pos:R:3:forces:R:3 energy=-35.757476806640625 free_energy=-35.757476806640625 stress="-9.824434528127313e-05 3.478946197787991e-08 -2.539678023438796e-09 3.478946197787991e-08 -9.827530448092148e-05 5.535847336091138e-10 -2.539678023438796e-09 5.535847336091138e-10 -9.827790199778974e-05" pbc="T T T"
Sb       2.11918467       1.49848921       3.67053359       0.00000469       0.00000006      -0.00000424
Sb       6.35755181       4.49546790      11.01160323      -0.00000172      -0.00000137       0.00000363
Hf       0.00000028       0.00000010      -0.00000043      -0.00000435      -0.00000058       0.00000525
Te       2.27837690       1.61105586       7.34106865      -0.00476959      -0.00337242       0.00000158
Te       6.19835839       4.38290167       7.34106831       0.00477266       0.00337562      -0.00000139
Te       5.21836324       1.61105604       5.64366631       0.00238468      -0.00337243      -0.00413230
Te       3.25837207       4.38290189       9.03847091      -0.00238442       0.00336924       0.00412869
Te       3.25837247       4.38290212       5.64366646      -0.00238407       0.00337248      -0.00413033
Te       5.21836306       1.61105564       9.03847090       0.00238200      -0.00337067       0.00412899
