9
Lattice="6.251282823520257 5.029184459682955e-07 3.609180758713161 2.0837617334543914 5.8937671096304625 3.609180207704713 2.5811144074159673e-07 -4.923323915194414e-07 7.2183610703641765" Properties=species:S:1:pos:R:3:forces:R:3 energy=-19.371273040771484 free_energy=-19.371273040771484 stress="-6.78732612868771e-05 1.5550778442730007e-08 -2.2677356881217747e-08 1.5550778442730007e-08 -6.791815394535661e-05 -1.0706624031797674e-08 -2.2677356881217747e-08 -1.0706624031797674e-08 -6.785740697523579e-05" pbc="T T T"
Sb       2.08376699       1.47343782       3.60917637       0.00002217      -0.00002373      -0.00002194
Sb       6.25127973       4.42031514      10.82754197      -0.00001432      -0.00004722       0.00000309
Hg       0.00000008      -0.00000013       0.00000007      -0.00000025      -0.00000133      -0.00000174
Cl       2.15227179       1.52188970       7.21836258       0.00030576       0.00023551       0.00000869
Cl       6.18277057       4.37188157       7.21836015      -0.00031753      -0.00021022      -0.00000277
Cl       5.17514588       1.52188915       5.47310223      -0.00015997       0.00023808       0.00026111
Cl       3.15989913       4.37188113       8.96361879       0.00016230      -0.00021767      -0.00026692
Cl       3.15989940       4.37188367       5.47310474       0.00016484      -0.00021075       0.00027476
Cl       5.17514574       1.52189045       8.96362125      -0.00016297       0.00023726      -0.00025428
