9
Lattice="5.77636635346998 -5.623820624971061e-08 3.33498671401011 1.9254554524844485 5.446010257686332 3.334986619873699 1.60965740594674e-07 -1.4731431665238423e-09 6.669973149219431" Properties=species:S:1:pos:R:3:forces:R:3 energy=-39.56848907470703 free_energy=-39.56848907470703 stress="1.5726303900009952e-05 1.985187658704035e-08 1.4512782087194864e-08 1.985187658704035e-08 1.5559357052552514e-05 7.319390959992234e-08 1.4512782087194864e-08 7.319390959992234e-08 1.557322138978634e-05" pbc="T T T"
Sb       1.92545277       1.36150302       3.33498887      -0.00002979       0.00000104       0.00002081
Sb       5.77636762       4.08450616      10.00495772       0.00000769      -0.00001418      -0.00002452
Hf      -0.00000012       0.00000003      -0.00000032      -0.00000259      -0.00000183      -0.00000369
Se       2.06723394       1.46175561       6.66997290       0.00003004       0.00003184      -0.00000783
Se       5.63458779       3.98425441       6.66997457      -0.00002131      -0.00002670       0.00000866
Se       4.74274976       1.46175461       5.12526374      -0.00001311       0.00002593       0.00003240
Se       2.95907296       3.98425570       8.21468236       0.00001656      -0.00001664      -0.00002983
Se       2.95907134       3.98425507       5.12526381       0.00001240      -0.00003082       0.00003695
Se       4.74275182       1.46175620       8.21468224       0.00000013       0.00003149      -0.00003305
