9
Lattice="6.509960231297791 2.9210270631894083e-07 3.758527849043152 2.169987034775417 6.137648960181959 3.7585278220016076 -3.148304728974705e-07 -2.557377369798247e-07 7.517056243388647" Properties=species:S:1:pos:R:3:forces:R:3 energy=-25.756959915161133 free_energy=-25.756959915161133 stress="-0.0002458691888023168 -1.4487940802609955e-07 4.5673473336727e-10 -1.4487940802609955e-07 -0.0002457302180118859 -1.4408988668890288e-08 4.5673473336727e-10 -1.4408988668890288e-08 -0.00024586464860476553" pbc="T T T"
Sb       2.16999244       1.53441534       3.75852528       0.00001439       0.00000620      -0.00000850
Sb       6.50995434       4.60322898      11.27558223      -0.00001485      -0.00002212      -0.00000695
Ir       0.00000001       0.00000057       0.00000011       0.00000082      -0.00000187       0.00000241
Br       2.03176787       1.43667805       7.51705701       0.00156462       0.00111039       0.00000370
Br       6.64817804       4.70097235       7.51705673      -0.00156540      -0.00110506       0.00000075
Br       5.49407552       1.43667893       5.51809169      -0.00077981       0.00110862       0.00134517
Br       3.18587293       4.70097002       9.51602075       0.00077962      -0.00110235      -0.00134065
Br       3.18587204       4.70097080       5.51809200       0.00078039      -0.00109970       0.00134210
Br       5.49407458       1.43668091       9.51602182      -0.00077980       0.00110590      -0.00133799
