9
Lattice="5.462510407701227 -1.9690545813804868e-07 3.1537819172663797 1.8208366693927875 5.150104112602556 3.15378182638569 -2.2739842023700306e-08 -1.2738511867647943e-07 6.30756387391929" Properties=species:S:1:pos:R:3:forces:R:3 energy=-40.61288833618164 free_energy=-40.61288833618164 stress="-0.0001912046136567369 -2.4876277038288208e-08 -7.294548853842286e-10 -2.4876277038288208e-08 -0.00019129581050947309 1.6656258594593965e-08 -7.294548853842286e-10 1.6656258594593965e-08 -0.00019123440142720938" pbc="T T T"
Sb       1.82083671       1.28752820       3.15378265       0.00000120       0.00002006       0.00000708
Sb       5.46251041       3.86257696       9.46134575       0.00000300      -0.00001058       0.00000061
Ir       0.00000004      -0.00000006       0.00000016       0.00000082       0.00000104       0.00000179
S        1.89099438       1.33713541       6.30756370       0.00120366       0.00085527      -0.00000186
S        5.39235309       3.81296803       6.30756391      -0.00120127      -0.00086367      -0.00000069
S        4.51701281       1.33713522       4.79143085      -0.00060424       0.00085580       0.00104135
S        2.76633392       3.81296869       7.82369633       0.00060153      -0.00085306      -0.00104344
S        2.76633365       3.81296796       4.79143072       0.00059789      -0.00086167       0.00104028
S        4.51701313       1.33713471       7.82369639      -0.00060278       0.00085682      -0.00104520
