9
Lattice="6.318393679988503 -3.202326291225491e-07 3.6479258138326665 2.1061308187648904 5.957038895055182 3.647925997394977 -1.5846730071915616e-07 1.127636783914896e-07 7.295851902138729" Properties=species:S:1:pos:R:3:forces:R:3 energy=-24.083877563476562 free_energy=-24.083877563476562 stress="6.509984814329073e-06 2.7143331138290705e-08 1.5023687183202128e-08 2.7143331138290705e-08 6.529360234708292e-06 3.05171070635879e-08 1.5023687183202128e-08 3.05171070635879e-08 6.568126082129311e-06" pbc="T T T"
Sb       2.10613340       1.48925413       3.64792191       0.00001136      -0.00002070      -0.00001640
Sb       6.31840231       4.46777573      10.94377963       0.00003549      -0.00001348       0.00000738
In      -0.00000094       0.00000054      -0.00000033       0.00000153       0.00000386       0.00000316
Cl       2.07253107       1.46550498       7.29585314      -0.00025019      -0.00016200       0.00000492
Cl       6.35199032       4.49153910       7.29585114       0.00022849       0.00017492      -0.00000181
Cl       5.28212705       1.46550147       5.44279196       0.00011718      -0.00016595      -0.00020501
Cl       3.14239292       4.49153722       9.14891138      -0.00013041       0.00017162       0.00019912
Cl       3.14239544       4.49153913       5.44279284      -0.00012526       0.00017615      -0.00019804
Cl       5.28212580       1.46550242       9.14891331       0.00011179      -0.00016448       0.00020671
