9
Lattice="6.365080122497577 -2.887419371004637e-07 3.6748799731605115 2.1216930792788977 6.001055332792669 3.6748800124061494 4.553730427043854e-07 3.70063252019551e-07 7.349759157591769" Properties=species:S:1:pos:R:3:forces:R:3 energy=-28.66100311279297 free_energy=-28.66100311279297 stress="-1.7209893485414796e-05 -1.2029749640873888e-08 3.3739304683422233e-09 -1.2029749640873888e-08 -1.717199120321311e-05 3.04223206626375e-08 3.3739304683422233e-09 3.04223206626375e-08 -1.7366128304274753e-05" pbc="T T T"
Sb       2.12169576       1.50026300       3.67487994       0.00000717      -0.00000394       0.00000097
Sb       6.36507932       4.50078309      11.02463995      -0.00000274      -0.00001946       0.00000226
Ir      -0.00000008       0.00000121       0.00000015      -0.00000704       0.00000169       0.00000392
Cl       1.91507889       1.35416706       7.34975842      -0.00098611      -0.00068863      -0.00000102
Cl       6.57169405       4.64689119       7.34975930       0.00098422       0.00069898       0.00000134
Cl       5.40753950       1.35416866       5.33338470       0.00049403      -0.00069226      -0.00085400
Cl       3.07923360       4.64689026       9.36613458      -0.00048967       0.00069501       0.00084454
Cl       3.07923320       4.64689101       5.33338593      -0.00049204       0.00069685      -0.00084452
Cl       5.40754029       1.35416622       9.36613356       0.00049224      -0.00068831       0.00084637
