9
Lattice="4.700633245125371 -8.402370455243036e-09 2.7139118936059488 1.5668777240370289 4.431799546869347 2.713911922039771 -4.0437196522766695e-08 6.230761471904996e-09 5.4278238572511635" Properties=species:S:1:pos:R:3:forces:R:3 energy=-50.928001403808594 free_energy=-50.928001403808594 stress="0.0002417984214844182 2.0468723604949446e-08 -2.425600342803591e-08 2.0468723604949446e-08 0.0002418724325252697 6.4344494177248635e-09 -2.425600342803591e-08 6.4344494177248635e-09 0.0002418179647065699" pbc="T T T"
Sb       1.56687891       1.10795070       2.71391181       0.00001487       0.00000971       0.00000196
Sb       4.70063420       3.32384956       8.14173602       0.00001421      -0.00000414       0.00000244
Ir      -0.00000005      -0.00000009      -0.00000018      -0.00000284      -0.00000470      -0.00000535
O        1.55897192       1.10236034       5.42782375       0.00002973       0.00002621      -0.00000128
O        4.70853870       3.32943923       5.42782391      -0.00002803      -0.00002122      -0.00000064
O        3.92114660       1.10235996       4.06402129      -0.00002325       0.00002518       0.00002632
O        2.34636335       3.32943944       6.79162617       0.00000836      -0.00002588      -0.00002439
O        2.34636355       3.32943935       4.06402155       0.00001282      -0.00002644       0.00002675
O        3.92114654       1.10235968       6.79162632      -0.00002582       0.00002131      -0.00002588
