9
Lattice="4.813694576491532 -2.683926651370249e-07 2.7791880795491712 1.6045646578605648 4.538394722205679 2.7791879893559686 -3.943185872990874e-08 -1.383461902162081e-07 5.558376227396334" Properties=species:S:1:pos:R:3:forces:R:3 energy=-38.58937072753906 free_energy=-38.58937072753906 stress="0.00018066700431518257 -3.1814289513931726e-07 -5.722880658254326e-08 -3.1814289513931726e-07 0.0001798336743377149 3.648606305972635e-09 -5.722880658254326e-08 3.648606305972635e-09 0.0001796167198335752" pbc="T T T"
Sb       1.60455748       1.13459175       2.77918933      -0.00009755      -0.00007410       0.00001380
Sb       4.81370853       3.40378506       8.33756872       0.00017769      -0.00012845       0.00004770
Ir      -0.00000021       0.00000084      -0.00000015      -0.00000263      -0.00000053      -0.00000639
F        1.66964308       1.18062598       5.55837484      -0.00002514       0.00010303      -0.00000911
F        4.74861158       3.35777470       5.55837454      -0.00002882      -0.00001909      -0.00002178
F        3.97887286       1.18062168       4.22514486       0.00002031       0.00005287       0.00002580
F        2.43938449       3.35777885       6.89160142      -0.00004197       0.00001913      -0.00008598
F        2.43938617       3.35777858       4.22514958      -0.00002209       0.00001410       0.00007401
F        3.97887284       1.18061981       6.89160609       0.00002017       0.00003307      -0.00003810
