9
Lattice="5.718014311453639 -2.024006428644807e-08 3.3012970481670076 1.9060047552166934 5.3909954832126985 3.3012970415598177 3.193570554369264e-09 -5.833938685552068e-09 6.602594090802609" Properties=species:S:1:pos:R:3:forces:R:3 energy=-37.67153549194336 free_energy=-37.67153549194336 stress="-0.0003327873710077256 2.3923989900254128e-08 1.5761020932814063e-08 2.3923989900254128e-08 -0.00033277887268923223 -6.295183396787252e-08 1.5761020932814063e-08 -6.295183396787252e-08 -0.00033273041481152177" pbc="T T T"
Sb       1.90600454       1.34774972       3.30129712      -0.00000526       0.00000543      -0.00000287
Sb       5.71801440       4.04324756       9.90388972       0.00000044       0.00000827      -0.00001362
Ir       0.00000017      -0.00000002      -0.00000008      -0.00000137       0.00000061       0.00000348
Se       1.98928092       1.40663369       6.60259416       0.00429893       0.00303685       0.00000178
Se       5.63473837       3.98436118       6.60259493      -0.00429587      -0.00304024       0.00000577
Se       4.72337372       1.40663350       5.02406522      -0.00215005       0.00303626       0.00372487
Se       2.90064532       3.98436143       8.18112360       0.00215324      -0.00304292      -0.00372101
Se       2.90064485       3.98436107       5.02406481       0.00214651      -0.00304089       0.00372185
Se       4.72337400       1.40663371       8.18112323      -0.00214642       0.00303654      -0.00372031
