9
Lattice="6.978405592872887 -6.162218489270588e-08 4.028984513722028 2.3261352163408437 6.579303814474086 4.028984380675346 3.9346757580032095e-08 -1.3512586776909491e-07 8.057968959293499" Properties=species:S:1:pos:R:3:forces:R:3 energy=-18.37887191772461 free_energy=-18.37887191772461 stress="1.5403393263113685e-05 -1.3866891634961576e-08 -2.3952049232889294e-08 -1.3866891634961576e-08 1.541219353384804e-05 4.0240610843511604e-08 -2.3952049232889294e-08 4.0240610843511604e-08 1.5418429029523395e-05" pbc="T T T"
Sb       2.32613497       1.64482606       4.02898469      -0.00000017      -0.00000157      -0.00000223
Sb       6.97840630       4.93447740      12.08695196       0.00000220       0.00000029      -0.00000185
In      -0.00000002      -0.00000002       0.00000070      -0.00000035      -0.00000037      -0.00000545
I        2.37616432       1.68020223       8.05796908       0.00085074       0.00060286      -0.00000053
I        6.92837631       4.89910156       8.05796947      -0.00085172      -0.00060248       0.00000091
I        5.79032348       1.68020155       6.08680333      -0.00042666       0.00060309       0.00073911
I        3.51421771       4.89910143      10.02913443       0.00042447      -0.00059959      -0.00073490
I        3.51421697       4.89910198       6.08680330       0.00042567      -0.00060363       0.00074051
I        5.79032335       1.68020222      10.02913451      -0.00042406       0.00060137      -0.00073566
