9
Lattice="5.79027415513709 -4.0201759617092274e-07 3.343026160517662 1.9300890331585778 5.45914690078337 3.3430295775980743 -1.817795635925687e-06 2.8996903181116993e-06 6.686055469514118" Properties=species:S:1:pos:R:3:forces:R:3 energy=-40.06482696533203 free_energy=-40.06482696533203 stress="8.46593757160008e-05 2.2022854295755678e-07 -2.0939166915923124e-06 2.2022854295755678e-07 8.343434456037357e-05 -1.5040321841297555e-06 -2.0939166915923124e-06 -1.5040321841297555e-06 8.512494969181716e-05" pbc="T T T"
Sb       1.93007901       1.36471733       3.34359520      -0.00002876      -0.00012883       0.00090443
Sb       5.79033277       4.09464841      10.02856714       0.00009964       0.00044201      -0.00082989
Mo      -0.00000236      -0.00001080      -0.00000190      -0.00000845      -0.00001388      -0.00000670
F        1.64948809       1.16625654       6.68586757      -0.00077850      -0.00068191      -0.00020471
F        6.07090337       4.29282273       6.68621007       0.00080889       0.00059952       0.00018120
F        4.96541710       1.16618236       4.77152259       0.00026260      -0.00075854      -0.00068280
F        2.75488980       4.29289201       8.60060079      -0.00031030       0.00066552       0.00069377
F        2.75468007       4.29274539       4.77151438      -0.00055435       0.00048371      -0.00070971
F        4.96565858       1.16634472       8.60057199       0.00050938      -0.00060751       0.00065431
