9
Lattice="6.978864980677989 1.4201084124754214e-07 4.029255451177526 2.326288521240789 6.5797458176258825 4.029255346453555 3.681059840740004e-06 2.474642117778562e-06 8.058504526568786" Properties=species:S:1:pos:R:3:forces:R:3 energy=-27.41228485107422 free_energy=-27.41228485107422 stress="3.601263597374782e-05 -4.638324071493116e-07 -2.7294888127471495e-07 -4.638324071493116e-07 3.5369004763197154e-05 -2.2592949733279966e-07 -2.7294888127471495e-07 -2.2592949733279966e-07 3.580974225769751e-05" pbc="T T T"
Sb       2.32630800       1.64492213       4.02927992       0.00001987      -0.00000958       0.00002455
Sb       6.97883950       4.93486060      12.08773407      -0.00002622       0.00004826      -0.00002754
Mn       0.00000551      -0.00000334      -0.00000148      -0.00002356      -0.00000841       0.00002335
Br       1.88246022       1.33108810       8.05850069      -0.00484087      -0.00343720      -0.00000454
Br       7.42270578       5.24865700       8.05852099       0.00482900       0.00339839      -0.00000893
Br       6.03762959       1.33108776       5.65950250       0.00245069      -0.00344373      -0.00420932
Br       3.26752592       5.24864597      10.45750922      -0.00243152       0.00345018       0.00422104
Br       3.26751600       5.24864430       5.65950850      -0.00242866       0.00345535      -0.00422703
Br       6.03763848       1.33109102      10.45750692       0.00245126      -0.00345328       0.00420839
