9
Lattice="5.510088806445768 1.2956120319516248e-07 3.1812514696469525 1.8366963291874934 5.1949619503577695 3.18125157665168 3.850892102722814e-09 1.337765099768979e-07 6.362502932623934" Properties=species:S:1:pos:R:3:forces:R:3 energy=-42.839569091796875 free_energy=-42.839569091796875 stress="-0.00018478039419278502 2.7564947657765515e-08 -9.664463362923925e-08 2.7564947657765515e-08 -0.00018482581072021276 -1.1024268076198496e-07 -9.664463362923925e-08 -1.1024268076198496e-07 -0.0001849243271863088" pbc="T T T"
Sb       1.83669767       1.29874095       3.18125199       0.00001605       0.00000461       0.00001439
Sb       5.51008930       3.89622216       9.54374568       0.00000448       0.00000446      -0.00010628
Mo       0.00000027       0.00000031      -0.00000022      -0.00000346      -0.00000278       0.00000127
S        1.90873906       1.34968257       6.36250270      -0.00296375      -0.00209525      -0.00000255
S        5.43804522       3.84528020       6.36250733       0.00296400       0.00210313       0.00004891
S        4.55571834       1.34968115       4.83426888       0.00146979      -0.00211237      -0.00255410
S        2.79106679       3.84527923       7.89073964      -0.00146578       0.00208808       0.00257885
S        2.79106426       3.84527887       4.83426915      -0.00150416       0.00209026      -0.00255623
S        4.55571967       1.34968346       7.89073892       0.00148284      -0.00208002       0.00257562
