9
Lattice="4.794123344907693 -1.5943154196630635e-07 2.7678882692731075 1.5980410657596968 4.519942412120746 2.7678880941559076 -3.11794716719658e-08 -2.365211219473705e-07 5.535776592550603" Properties=species:S:1:pos:R:3:forces:R:3 energy=-41.45893859863281 free_energy=-41.45893859863281 stress="4.8213565605692565e-05 3.73353316263092e-07 5.170265353626746e-07 3.73353316263092e-07 5.09556193719618e-05 3.604619394081965e-07 5.170265353626746e-07 3.604619394081965e-07 4.920344508718699e-05" pbc="T T T"
Sb       1.59805815       1.12997519       2.76788039       0.00031861      -0.00020821      -0.00013871
Sb       4.79411870       3.38999043       8.30363629      -0.00008803       0.00063944      -0.00052795
Mn       0.00000033       0.00000026      -0.00000066       0.00000481       0.00000583      -0.00001786
F        1.66828911       1.17964001       5.53578067       0.00278085       0.00162593       0.00007607
F        4.72387908       3.34029626       5.53579054      -0.00271472      -0.00172082       0.00026157
F        3.95997302       1.17963723       4.21266812      -0.00150222       0.00155930       0.00240573
F        2.43218777       3.34028782       6.85889676       0.00144273      -0.00186516      -0.00217772
F        2.43217731       3.34029329       4.21266680       0.00124279      -0.00179604       0.00235949
F        3.95997401       1.17964745       6.85889287      -0.00148459       0.00175965      -0.00224051
