9
Lattice="6.062087482701693 2.6044445976032705e-07 3.4999472537009977 2.02069622936217 5.715390548040667 3.4999469830758065 2.3061467139465904e-07 -1.6837762052634347e-07 6.99989410796569" Properties=species:S:1:pos:R:3:forces:R:3 energy=-25.187721252441406 free_energy=-25.187721252441406 stress="0.00010544126416789368 -2.2675850530617936e-08 2.357771577976564e-08 -2.2675850530617936e-08 0.00010528576967772096 5.243827594370032e-09 2.357771577976564e-08 5.243827594370032e-09 0.00010541996016399935" pbc="T T T"
Sb       2.02070169       1.42883866       3.49993369       0.00003325      -0.00005142      -0.00009162
Sb       6.06208279       4.28655183      10.49983077      -0.00002824       0.00005355      -0.00007103
Mg      -0.00000003      -0.00000012       0.00000174       0.00000189       0.00000393      -0.00000697
Cl       1.99069021       1.40762732       6.99990078       0.00119583       0.00082172       0.00003886
Cl       6.09209502       4.30776491       6.99989773      -0.00120792      -0.00082498       0.00002660
Cl       5.06674271       1.40762518       5.22393688      -0.00060142       0.00082411       0.00105410
Cl       3.01604325       4.30776007       8.77585852       0.00061262      -0.00083826      -0.00100515
Cl       3.01603977       4.30776505       5.22393637       0.00060315      -0.00082343       0.00105827
Cl       5.06674043       1.40762967       8.77585688      -0.00060917       0.00083479      -0.00100308
