9
Lattice="4.700598081709218 -1.8291398173497939e-07 2.7138912471687795 1.5668658892155813 4.431765782483943 2.713891187530569 -6.875988576430484e-08 -1.2166216300680488e-07 5.427782613433181" Properties=species:S:1:pos:R:3:forces:R:3 energy=-39.23927688598633 free_energy=-39.23927688598633 stress="0.0004702158912550658 7.179217220709688e-08 1.1642634945019381e-07 7.179217220709688e-08 0.0004705275932792574 5.94957185739986e-08 1.1642634945019381e-07 5.94957185739986e-08 0.00047041758080013096" pbc="T T T"
Sb       1.56687316       1.10793414       2.71389082       0.00012024      -0.00012444      -0.00000132
Sb       4.70059520       3.32382533       8.14166428      -0.00004824       0.00002581      -0.00015566
Mg       0.00000022      -0.00000025      -0.00000039       0.00000060      -0.00000228      -0.00000837
F        1.56790510       1.10867473       5.42778298       0.00146230       0.00100581       0.00000300
F        4.69955654       3.32309398       5.42778733      -0.00149802      -0.00095066       0.00008012
F        3.91664233       1.10867337       4.07173612      -0.00078282       0.00098646       0.00124860
F        2.35082171       3.32309145       6.78382953       0.00078773      -0.00099640      -0.00124139
F        2.35081778       3.32309148       4.07173789       0.00071827      -0.00099743       0.00128125
F        3.91664357       1.10867763       6.78383163      -0.00075991       0.00105343      -0.00120585
