9
Lattice="6.218525601688658 1.1920261770340731e-06 3.590270110785032 2.0728426160236193 5.8628867613895785 3.5902707604061024 -2.1448997055155605e-07 6.439528772548205e-07 7.180540593077205" Properties=species:S:1:pos:R:3:forces:R:3 energy=-30.810583114624023 free_energy=-30.810583114624023 stress="8.208628423744813e-05 -5.355747134672129e-07 -1.312579058776464e-07 -5.355747134672129e-07 8.003079710761085e-05 -1.0768140157324524e-07 -1.312579058776464e-07 -1.0768140157324524e-07 8.044251444516703e-05" pbc="T T T"
Sb       2.07287223       1.46568606       3.59028568       0.00010113      -0.00013387       0.00006232
Sb       6.21848526       4.39718151      10.77081619      -0.00014455       0.00004459       0.00002374
Mn       0.00000143       0.00000239      -0.00000282       0.00000221       0.00000597      -0.00000129
Cl       1.92493528       1.36112671       7.18053221      -0.00254271      -0.00182563      -0.00002103
Cl       6.36642945       4.50176786       7.18054218       0.00255672       0.00185268      -0.00000440
Cl       5.25605416       1.36113748       5.25730564       0.00127210      -0.00180678      -0.00224350
Cl       3.03531599       4.50176160       9.10376826      -0.00125718       0.00183251       0.00221602
Cl       3.03532166       4.50175742       5.25730694      -0.00125468       0.00183634      -0.00224767
Cl       5.25605666       1.36113336       9.10377156       0.00126688      -0.00180591       0.00221591
