9
Lattice="6.5338205440741906 -1.6344046895272208e-06 3.7723022247711366 2.1779391427137247 6.160142706129045 3.7723013547843105 7.33963720478242e-07 -5.465211717164038e-07 7.544603178279719" Properties=species:S:1:pos:R:3:forces:R:3 energy=-31.972248077392578 free_energy=-31.972248077392578 stress="-5.80207743041683e-05 -9.134426193213585e-08 1.0586359167064074e-07 -9.134426193213585e-08 -5.8128367527388036e-05 -4.073826076478326e-08 1.0586359167064074e-07 -4.073826076478326e-08 -5.801930092275143e-05" pbc="T T T"
Sb       2.17795241       1.54008073       3.77228981       0.00002061       0.00008356      -0.00001659
Sb       6.53382762       4.62016361      11.31690670       0.00001322       0.00009837      -0.00000119
Mo      -0.00000101      -0.00000902       0.00000202      -0.00001322       0.00001491      -0.00002019
Cl       1.94513510       1.37539938       7.54460418      -0.00561172      -0.00398717       0.00000585
Cl       6.76663775       4.78471117       7.54460366       0.00558133       0.00392624      -0.00000002
Cl       5.56124525       1.37539254       5.45684119       0.00279975      -0.00398877      -0.00485067
Cl       3.15049875       4.78471035       9.63238212      -0.00280067       0.00393139       0.00484195
Cl       3.15050024       4.78471507       5.45682878      -0.00279710       0.00393090      -0.00483534
Cl       5.56124560       1.37539810       9.63236865       0.00280778      -0.00400930       0.00487623
