9
Lattice="5.806094993102908 -2.4893925990998807e-08 3.352150484705558 1.935364985042542 5.474038807978728 3.352150465979041 7.116776274328167e-08 2.738800478741423e-08 6.7043008461449585" Properties=species:S:1:pos:R:3:forces:R:3 energy=-39.44636535644531 free_energy=-39.44636535644531 stress="-0.00013158195361029357 -1.98952729846269e-08 -9.84462555919663e-09 -1.98952729846269e-08 -0.00013161714014131576 4.473180226227669e-08 -9.84462555919663e-09 4.473180226227669e-08 -0.00013156501518096775" pbc="T T T"
Sb       1.93536582       1.36851050       3.35215131       0.00000657       0.00000773       0.00000818
Sb       5.80609538       4.10553055      10.05645107       0.00000451       0.00001341      -0.00000349
Mo      -0.00000011      -0.00000017       0.00000004       0.00000094       0.00000206      -0.00000226
Se       2.00581400       1.41832422       6.70430069      -0.00310881      -0.00220234      -0.00000180
Se       5.73564605       4.05571430       6.70430127       0.00310453       0.00219492       0.00000166
Se       4.80318745       1.41832418       5.08923599       0.00155036      -0.00220297      -0.00269191
Se       2.93827150       4.05571406       8.31936577      -0.00155576       0.00219707       0.00269092
Se       2.93827161       4.05571367       5.08923538      -0.00155477       0.00219054      -0.00269011
Se       4.80318848       1.41832399       8.31936564       0.00155236      -0.00220066       0.00268877
