9
Lattice="6.083513699191457 -1.8940442598527288e-07 3.5123182301378963 2.0278377391830325 5.735591515097846 3.512318198918098 9.887060895098279e-09 -3.124506488847618e-08 7.024636443150914" Properties=species:S:1:pos:R:3:forces:R:3 energy=-34.69192886352539 free_energy=-34.69192886352539 stress="-2.2571008230443113e-05 -5.368175948206044e-08 4.496023109368252e-09 -5.368175948206044e-08 -2.251943078590557e-05 -7.466987028692529e-09 4.496023109368252e-09 -7.466987028692529e-09 -2.2469035684480332e-05" pbc="T T T"
Sb       2.02783682       1.43389613       3.51231862      -0.00000444      -0.00000802       0.00000233
Sb       6.08351164       4.30169371      10.53695445      -0.00001100       0.00000174       0.00000020
Mn      -0.00000028       0.00000027      -0.00000038       0.00000379      -0.00000121       0.00000237
Te       2.04057370       1.44290224       7.02463631       0.00088683       0.00062354      -0.00000028
Te       6.07077771       4.29268863       7.02463663      -0.00088510      -0.00062340       0.00000024
Te       5.06322732       1.44290342       5.27950665      -0.00043820       0.00062422       0.00076334
Te       3.04812559       4.29268895       8.76976642       0.00044397      -0.00062141      -0.00076340
Te       3.04812544       4.29268854       5.27950672       0.00044215      -0.00061905       0.00076042
Te       5.06322776       1.44290335       8.76976605      -0.00043799       0.00062360      -0.00076514
