9
Lattice="4.6727559345395795 5.223800765504673e-08 2.6978168224864887 1.557585380126783 4.405516395645572 2.6978167889485762 2.4014972392976024e-08 -2.4094231988489165e-08 5.395633603377823" Properties=species:S:1:pos:R:3:forces:R:3 energy=-52.63008117675781 free_energy=-52.63008117675781 stress="0.0006639055209234357 -4.998963376579013e-08 9.257552058272722e-09 -4.998963376579013e-08 0.0006638168124482036 -3.266357495590455e-08 9.257552058272722e-09 -3.266357495590455e-08 0.0006639360217377543" pbc="T T T"
Sb       1.55758524       1.10137891       2.69781667      -0.00000204       0.00000053      -0.00000395
Sb       4.67275659       3.30413699       8.09344965       0.00001047      -0.00000602      -0.00001397
Mo       0.00000007       0.00000003      -0.00000014       0.00000286      -0.00000114      -0.00000289
O        1.57314007       1.11237849       5.39563364      -0.00541794      -0.00382239       0.00000164
O        4.65720116       3.29313798       5.39563404       0.00541204       0.00382471       0.00000787
O        3.88618573       1.11237811       4.06019636       0.00270733      -0.00382984      -0.00468707
O        2.34415562       3.29313849       6.73107099      -0.00270823       0.00383008       0.00468868
O        2.34415528       3.29313841       4.06019649      -0.00271183       0.00383091      -0.00468338
O        3.88618567       1.11237829       6.73107112       0.00270742      -0.00382650       0.00469339
