9
Lattice="6.817154235962892 -1.304914447643877e-07 3.935885984506095 2.2723846650151396 6.427274708182978 3.935885910508214 2.4783688785229524e-08 -7.310378261677278e-08 7.871771926085539" Properties=species:S:1:pos:R:3:forces:R:3 energy=-18.38749885559082 free_energy=-18.38749885559082 stress="7.614870992256328e-05 7.74601804920394e-09 1.210076749913469e-08 7.74601804920394e-09 7.614995411131531e-05 -8.188344224890898e-09 1.210076749913469e-08 -8.188344224890898e-09 7.616716902703047e-05" pbc="T T T"
Sb       2.27238480       1.60681840       3.93588664       0.00000140       0.00000175       0.00000010
Sb       6.81715414       4.82045627      11.80765731      -0.00000187       0.00000027      -0.00000047
Mg       0.00000022       0.00000021      -0.00000040      -0.00000064      -0.00000047       0.00000330
I        2.33668555       1.65228590       7.87177181       0.00007822       0.00005346      -0.00000079
I        6.75285306       4.77498826       7.87177210      -0.00007674      -0.00005359       0.00000130
I        5.64881122       1.65228627       5.95951519      -0.00003914       0.00005271       0.00006581
I        3.44072764       4.77498863       9.78402875       0.00004034      -0.00005462      -0.00006694
I        3.44072765       4.77498812       5.95951513       0.00003769      -0.00005393       0.00006529
I        5.64881142       1.65228595       9.78402879      -0.00003923       0.00005455      -0.00006747
