9
Lattice="6.72887587619292 -9.956501900116281e-08 3.88491809934431 2.242958588546972 6.344045176230979 3.884918000582692 1.0808171702392707e-07 -4.4532474746352146e-08 7.769836011485668" Properties=species:S:1:pos:R:3:forces:R:3 energy=-28.400142669677734 free_energy=-28.400142669677734 stress="-0.000201289527467452 2.45489917283237e-09 -8.998114253699896e-09 2.45489917283237e-09 -0.00020137539831921458 6.887601600169546e-10 -8.998114253699896e-09 6.887601600169546e-10 -0.00020131202472839504" pbc="T T T"
Sb       2.24295946       1.58601348       3.88491855       0.00000225       0.00000657      -0.00000010
Sb       6.72887602       4.75804108      11.65475235       0.00000041       0.00001754      -0.00000305
Mo       0.00000004      -0.00000077       0.00000010      -0.00000267       0.00000094       0.00000204
Br       2.06446396       1.45979292       7.76983623       0.00281793       0.00198597       0.00000021
Br       6.90737094       4.88424910       7.76983653      -0.00281417      -0.00199255       0.00000115
Br       5.69664413       1.45979359       5.67279612      -0.00140922       0.00198569       0.00243957
Br       3.27518993       4.88424848       9.86687757       0.00140824      -0.00199543      -0.00243977
Br       3.27518931       4.88424822       5.67279466       0.00140557      -0.00199440       0.00243868
Br       5.69664456       1.45979395       9.86687628      -0.00140831       0.00198570      -0.00243878
