9
Lattice="6.001354240113075 -1.151652109759022e-07 3.464883029165891 2.000451350021215 5.658132573874559 3.46488295082701 9.538556011570237e-07 5.785326466193433e-07 6.9297644062053525" Properties=species:S:1:pos:R:3:forces:R:3 energy=-21.901927947998047 free_energy=-21.901927947998047 stress="-0.00020380310888867825 1.1320740611608926e-07 -3.564489148288885e-08 1.1320740611608926e-07 -0.0002041735569946468 -6.46299298523445e-08 -3.564489148288885e-08 -6.46299298523445e-08 -0.0002035328943748027" pbc="T T T"
Sb       2.00047690       1.41456715       3.46488540       0.00020348       0.00026088       0.00002719
Sb       6.00135369       4.24358159      10.39466453      -0.00000346      -0.00014066       0.00013404
N       -0.00000031      -0.00000005      -0.00000016      -0.00000719      -0.00000548      -0.00000689
Cl       2.03030039       1.43564601       6.92976390      -0.00139064      -0.00093505      -0.00000899
Cl       5.97150382       4.22248687       6.92975821       0.00136926       0.00092668      -0.00005794
Cl       4.98619712       1.43564995       5.22316747       0.00063667      -0.00090611      -0.00125471
Cl       3.01559811       4.22248083       8.63635685      -0.00073098       0.00087991       0.00121173
Cl       3.01560009       4.22247709       5.22316863      -0.00070295       0.00086928      -0.00125064
Cl       4.98619644       1.43564269       8.63635685       0.00062582      -0.00094950       0.00120629
