9
Lattice="4.485834306402396 -1.571136575698623e-07 2.589897648244004 1.495278022206901 4.2292848359655535 2.5898975301164815 -1.1781519227742748e-08 -1.5300688152381167e-07 5.179795316894254" Properties=species:S:1:pos:R:3:forces:R:3 energy=-44.34238815307617 free_energy=-44.34238815307617 stress="-7.370259845629334e-05 2.8876808499944673e-08 2.0486087493054583e-08 2.8876808499944673e-08 -7.360754534602165e-05 1.5226800931245066e-09 2.0486087493054583e-08 1.5226800931245066e-09 -7.355672278208658e-05" pbc="T T T"
Sb       1.49527757       1.05732295       2.58989583      -0.00000888       0.00002112      -0.00002372
Sb       4.48583426       3.17196289       7.76969258      -0.00000199      -0.00000238      -0.00000654
Ni       0.00000012      -0.00000017      -0.00000006       0.00000340      -0.00000066       0.00000472
O        1.46517697       1.03603683       5.17979597      -0.00045016      -0.00031687       0.00000896
O        4.51593538       3.19324743       5.17979541       0.00045428       0.00030830       0.00000415
O        3.75324627       1.03603645       3.85877847       0.00023098      -0.00031620      -0.00038370
O        2.22786640       3.19324723       6.50081280      -0.00022414       0.00030650       0.00039491
O        2.22786668       3.19324814       3.85877836      -0.00022575       0.00031604      -0.00038926
O        3.75324561       1.03603630       6.50081254       0.00022199      -0.00031590       0.00039060
