9
Lattice="6.056604913288915 3.3832637221960215e-08 3.496782482951855 2.0188683083000316 5.710221858668677 3.4967825314966574 -2.6165154129455462e-08 4.095342538121335e-08 6.993565011223076" Properties=species:S:1:pos:R:3:forces:R:3 energy=-31.476228713989258 free_energy=-31.476228713989258 stress="-0.00016577341011725366 -1.7657475481769325e-08 -9.938588618751965e-09 -1.7657475481769325e-08 -0.0001657510583754629 1.0550467166581257e-08 -9.938588618751965e-09 1.0550467166581257e-08 -0.00016573404718656093" pbc="T T T"
Sb       2.01886803       1.42755388       3.49678308      -0.00000138      -0.00000727       0.00000258
Sb       6.05660507       4.28266771      10.49034756       0.00000029       0.00000580       0.00000077
Ni      -0.00000017      -0.00000004       0.00000067       0.00000522       0.00000047      -0.00000984
Te       2.05646529       1.45413983       6.99356486       0.00365132       0.00257899      -0.00000113
Te       6.01900804       4.25608208       6.99356501      -0.00365459      -0.00258247      -0.00000052
Te       5.02837229       1.45413980       5.27773355      -0.00182698       0.00258211       0.00316508
Te       3.04710092       4.25608214       8.70939583       0.00182323      -0.00257450      -0.00315993
Te       3.04710087       4.25608222       5.27773363       0.00182683      -0.00258134       0.00316415
Te       5.02837246       1.45414013       8.70939594      -0.00182395       0.00257830      -0.00316118
