9
Lattice="6.2962722679421805 -2.232769985718836e-08 3.6351544966198794 2.0987574022549587 5.936182525915467 3.635154495479572 1.7800258556107868e-08 1.1190157573962427e-08 7.27030896240879" Properties=species:S:1:pos:R:3:forces:R:3 energy=-35.66801834106445 free_energy=-35.66801834106445 stress="-0.00020680902525782585 -6.7349628096735614e-09 -1.727713083710114e-08 -6.7349628096735614e-09 -0.0002068124304059893 1.6868909824552247e-08 -1.727713083710114e-08 1.6868909824552247e-08 -0.0002067900204565376" pbc="T T T"
Sb       2.09875697       1.48404577       3.63515423      -0.00000222      -0.00000055      -0.00000132
Sb       6.29627202       4.45213618      10.90546375      -0.00000144      -0.00000331       0.00000424
Nb       0.00000026      -0.00000027       0.00000018      -0.00000301       0.00000399      -0.00000142
Te       2.20861504       1.56172701       7.27030896      -0.00331932      -0.00234576       0.00000013
Te       6.18641462       4.37445575       7.27030861       0.00331852       0.00234668      -0.00000230
Te       5.19196488       1.56172706       5.54787146       0.00166229      -0.00234640      -0.00287697
Te       3.20306497       4.37445558       8.99274673      -0.00165909       0.00234711       0.00287405
Te       3.20306522       4.37445589       5.54787121      -0.00165653       0.00234534      -0.00287251
Te       5.19196478       1.56172709       8.99274667       0.00166086      -0.00234711       0.00287605
