9
Lattice="6.61948390955737 -3.9440666688380217e-10 3.821760728814189 2.206494674322201 6.240909214070993 3.821760662693317 1.637760969502203e-08 -6.940049528389537e-08 7.64352142926154" Properties=species:S:1:pos:R:3:forces:R:3 energy=-20.501020431518555 free_energy=-20.501020431518555 stress="0.0001440203341189772 1.1696208446210221e-08 -2.188108583212056e-09 1.1696208446210221e-08 0.00014403574459720403 -5.027341209995484e-09 -2.188108583212056e-09 -5.027341209995484e-09 0.00014401883527170867" pbc="T T T"
Sb       2.20649412       1.56022670       3.82176147      -0.00000335      -0.00000196       0.00000258
Sb       6.61948417       4.68068160      11.46528078       0.00000095      -0.00000238      -0.00000630
Ni       0.00000010       0.00000004      -0.00000020      -0.00000015      -0.00000002      -0.00000019
I        2.18427254       1.54451416       7.64352128      -0.00253585      -0.00179307      -0.00000076
I        6.64170588       4.69639517       7.64352167       0.00253609       0.00179343       0.00000257
I        5.52734769       1.54451401       5.71339631       0.00126815      -0.00179332      -0.00219604
I        3.29863106       4.69639550       9.57364672      -0.00126634       0.00179488       0.00219670
I        3.29863090       4.69639532       5.71339644      -0.00126941       0.00179422      -0.00219496
I        5.52734794       1.54451406       9.57364681       0.00126988      -0.00179181       0.00219633
