9
Lattice="11.55777208518136 -0.3461367249613734 6.3253532181103544 3.506942599707372 11.243825239809437 6.385508769707585 0.8449539244466852 0.6669388283317683 11.167980079330999" Properties=species:S:1:pos:R:3:forces:R:3 energy=-42.32406997680664 free_energy=-42.32406997680664 stress="3.012612069142051e-06 -1.164086711469281e-06 -2.5538615773257334e-06 -1.164086711469281e-06 9.949476407200564e-07 5.617563374471501e-07 -2.5538615773257334e-06 5.617563374471501e-07 -3.788822198202979e-07" pbc="T T T"
Sb       1.01063706       0.64994046       0.49412560      -0.00154501       0.00069484       0.00029899
Sb      14.76739065      10.06431184      23.48017438      -0.00102707       0.00063211       0.00248824
N        0.60076254      -1.21347362       0.62877902      -0.00011557      -0.00001940      -0.00017121
F        2.55675376       1.94323854      10.00764816      -0.00011282       0.00020577       0.00016701
F       12.23463590       9.95010673      13.12298160       0.00174266      -0.00025925      -0.00135145
F       11.56172305       1.50374918       7.90027194       0.00114515      -0.00061905      -0.00068599
F        3.24342827      10.38498631      15.20309323      -0.00024541      -0.00004227      -0.00127685
F        6.13655035      12.12725120       7.84144292       0.00037682      -0.00000722       0.00030810
F       11.52812125       0.84798343      16.83645297      -0.00021864      -0.00058560       0.00022311
