9
Lattice="5.333322422435954 -1.1558723566747462e-07 3.0791952525496358 1.777774054996252 5.028305171694152 3.07919521243367 -1.1823369335330889e-07 -1.3273565565349187e-07 6.158390709886032" Properties=species:S:1:pos:R:3:forces:R:3 energy=-37.36233139038086 free_energy=-37.36233139038086 stress="-4.15281419918756e-06 -3.650090363294112e-08 7.468329066284696e-09 -3.650090363294112e-08 -4.145767888985574e-06 2.045585745236167e-08 7.468329066284696e-09 2.045585745236167e-08 -4.12617964684614e-06" pbc="T T T"
Sb       1.77777278       1.25707773       3.07919515      -0.00001291       0.00001638      -0.00000003
Sb       5.33332281       3.77122718       9.23758343       0.00000657      -0.00001604      -0.00002450
Ni       0.00000019      -0.00000005       0.00000049      -0.00000061       0.00000312      -0.00001062
S        1.79467427       1.26902743       6.15839068       0.00008976       0.00007328      -0.00000073
S        5.31642245       3.75927727       6.15839152      -0.00009134      -0.00007689       0.00001182
S        4.43598496       1.26902685       4.63342959      -0.00004520       0.00006814       0.00008710
S        2.67511195       3.75927771       7.68335215       0.00004993      -0.00006577      -0.00007774
S        2.67511080       3.75927775       4.63342963       0.00004175      -0.00007264       0.00008814
S        4.43598518       1.26902779       7.68335215      -0.00003803       0.00007036      -0.00007300
