9
Lattice="4.408274253334694 -8.302305825681122e-08 2.5451182575713838 1.469424673496352 4.156160936198189 2.5451182564287538 -7.093901767301137e-08 -5.156085142035996e-08 5.090236638012748" Properties=species:S:1:pos:R:3:forces:R:3 energy=-45.189170837402344 free_energy=-45.189170837402344 stress="-3.2276618640025845e-06 1.4983210405716818e-07 -3.616635524394951e-08 1.4983210405716818e-07 -2.9299778816493927e-06 1.1598325500017381e-07 -3.616635524394951e-08 1.1598325500017381e-07 -3.162857183269807e-06" pbc="T T T"
Sb       1.46942462       1.03904023       2.54511791      -0.00000280      -0.00000152      -0.00000636
Sb       4.40827439       3.11712072       7.63535461       0.00000111       0.00000371      -0.00000634
N       -0.00000008      -0.00000072      -0.00000016       0.00000459      -0.00001002      -0.00000062
O        1.41474898       1.00037885       5.09023671       0.00004435       0.00003147       0.00000234
O        4.46294987       3.15578213       5.09023653      -0.00004077      -0.00002801       0.00000459
O        3.70089969       1.00037865       3.77032767      -0.00002286       0.00003070       0.00003791
O        2.17679898       3.15578230       6.41014634       0.00002092      -0.00002891      -0.00002915
O        2.17679918       3.15578239       3.77032702       0.00001961      -0.00002933       0.00003427
O        3.70089969       1.00037861       6.41014595      -0.00002387       0.00003177      -0.00003558
