9
Lattice="5.8068373621800715 -1.569440924194421e-07 3.352578921180574 1.9356123449391738 5.474738180501922 3.3525788538947916 1.3462162090357758e-07 1.2783927595080992e-08 6.70515760918966" Properties=species:S:1:pos:R:3:forces:R:3 energy=-39.59807205200195 free_energy=-39.59807205200195 stress="-3.084251511609182e-05 9.173404436069177e-08 4.663494124201861e-08 9.173404436069177e-08 -3.062354153371416e-05 3.511987856086307e-08 4.663494124201861e-08 3.511987856086307e-08 -3.066881254198961e-05" pbc="T T T"
Sb       1.93561240       1.36868404       3.35257778      -0.00000216      -0.00001051      -0.00001121
Sb       5.80683731       4.10605302      10.05773532      -0.00000202      -0.00001052      -0.00001598
Nb       0.00000016       0.00000007       0.00000032      -0.00000516      -0.00000161      -0.00000250
Se       2.02395631       1.43115374       6.70515776       0.00014560       0.00010788       0.00000454
Se       5.71849282       4.04358429       6.70515813      -0.00013910      -0.00009650       0.00000463
Se       4.79485936       1.43115295       5.10537709      -0.00007159       0.00010432       0.00012916
Se       2.94759160       4.04358467       8.30493912       0.00007611      -0.00010009      -0.00012144
Se       2.94759032       4.04358546       5.10537674       0.00007471      -0.00009964       0.00013348
Se       4.79485911       1.43115388       8.30493928      -0.00007634       0.00010665      -0.00012064
