9
Lattice="4.6318363497243595 -4.3427282673320896e-08 2.674191955287078 1.5439453836707295 4.3669373708911206 2.674191999097156 -6.180936360753512e-08 9.950338768037546e-09 5.348384017631123" Properties=species:S:1:pos:R:3:forces:R:3 energy=-37.25361633300781 free_energy=-37.25361633300781 stress="0.0003472145472187549 -7.916449362710409e-08 -5.549443571339907e-08 -7.916449362710409e-08 0.00034726300509646535 -7.166160287397361e-08 -5.549443571339907e-08 -7.166160287397361e-08 0.00034749784390442073" pbc="T T T"
Sb       1.54394846       1.09173558       2.67419127       0.00005548       0.00002433      -0.00001303
Sb       4.63183289       3.27520042       8.02257692      -0.00005927      -0.00004116       0.00001683
Ni      -0.00000002       0.00000005      -0.00000004      -0.00000078       0.00000373       0.00000756
F        1.57037207       1.11042088       5.34838417       0.00182376       0.00128832       0.00000663
F        4.60540941       3.25651675       5.34838369      -0.00182875      -0.00128533      -0.00001045
F        3.84664972       1.11042209       4.03417281      -0.00091873       0.00131156       0.00155329
F        2.32913220       3.25651582       6.66259480       0.00092406      -0.00130719      -0.00156257
F        2.32913266       3.25651607       4.03417308       0.00093510      -0.00130192       0.00155969
F        3.84664927       1.11042172       6.66259517      -0.00093066       0.00130789      -0.00155789
