9
Lattice="7.123169239192749 5.2891447628816184e-08 4.112563669225194 2.3743898783086084 6.71578824375575 4.112563527119947 9.989079692280333e-08 -1.0340920679694295e-07 8.225127165434463" Properties=species:S:1:pos:R:3:forces:R:3 energy=-26.8787784576416 free_energy=-26.8787784576416 stress="-0.00018359457317274064 3.1438130321248536e-08 1.3831766842997695e-08 3.1438130321248536e-08 -0.00018361903494223952 -1.8119767020152722e-08 1.3831766842997695e-08 -1.8119767020152722e-08 -0.0001836363662732765" pbc="T T T"
Sb       2.37439044       1.67894604       4.11256339       0.00000071      -0.00000143      -0.00000075
Sb       7.12316873       5.03684185      12.33769141      -0.00000044       0.00000054       0.00000115
Nb       0.00000024      -0.00000037      -0.00000016      -0.00000327       0.00000519       0.00000058
I        2.25745311       1.59625983       8.22512719       0.00520922       0.00368318      -0.00000039
I        7.24010631       5.11952835       8.22512708      -0.00520985      -0.00368270       0.00000005
I        5.99444271       1.59626006       6.06757461      -0.00260639       0.00368522       0.00451314
I        3.50311612       5.11952858      10.38267991       0.00260791      -0.00368773      -0.00451715
I        3.50311635       5.11952834       6.06757460       0.00260698      -0.00368606       0.00451511
I        5.99444286       1.59626005      10.38267945      -0.00260478       0.00368380      -0.00451177
