9
Lattice="6.0308973201485445 1.673916258400066e-06 3.4819423057330763 2.010300476810533 5.685991823108131 3.4819426661552075 -2.7566971404098377e-06 -1.5078539899834881e-06 6.963889386205823" Properties=species:S:1:pos:R:3:forces:R:3 energy=-46.304317474365234 free_energy=-46.304317474365234 stress="-2.9384427762124687e-05 -8.423079975727887e-07 1.0143678537133383e-06 -8.423079975727887e-07 -3.2219359127338976e-05 7.003658311077743e-07 1.0143678537133383e-06 7.003658311077743e-07 -3.1419207516591996e-05" pbc="T T T"
Sb       2.01039174       1.42137753       3.48194557       0.00003685      -0.00005255       0.00000870
Sb       6.03069476       4.26459671      10.44609195      -0.00009039       0.00004407       0.00012236
Nb       0.00000545       0.00000076      -0.00001365       0.00001431       0.00001543      -0.00005029
F        1.58399165       1.11999803       6.96386603       0.00169790       0.00126687      -0.00004848
F        6.45722333       4.56598790       6.96380183      -0.00168091      -0.00125739       0.00003500
F        5.23891335       1.12005547       4.85365660      -0.00083137       0.00119472       0.00146967
F        2.80229997       4.56597711       9.07405550       0.00085482      -0.00121978      -0.00151700
F        2.80235092       4.56596860       4.85364887       0.00079133      -0.00123695       0.00148159
F        5.23890905       1.12000565       9.07404466      -0.00079265       0.00124544      -0.00150162
