9
Lattice="6.9513170756676095 2.695379374688958e-07 4.013344708306371 2.317105914518976 6.553764633992513 4.013344762853967 1.7771643262642756e-07 1.9247139051751412e-07 8.026689108798841" Properties=species:S:1:pos:R:3:forces:R:3 energy=-29.726816177368164 free_energy=-29.726816177368164 stress="-0.00016468827379867435 2.3145934946455782e-08 -1.4316420049453882e-08 2.3145934946455782e-08 -0.00016467479872517288 -2.0828135049999474e-10 -1.4316420049453882e-08 -2.0828135049999474e-10 -0.00016469733964186162" pbc="T T T"
Sb       2.31710370       1.63844408       4.01334511      -0.00000244       0.00000524       0.00000116
Sb       6.95131798       4.91532370      12.04003243      -0.00000011      -0.00000109      -0.00000255
Nb       0.00000000      -0.00000024       0.00000020      -0.00000059      -0.00000090       0.00000064
Br       2.07422701       1.46670025       8.02668889       0.00467378       0.00330440      -0.00000017
Br       7.19419644       5.08706442       8.02668996      -0.00467124      -0.00330535       0.00000133
Br       5.91420427       1.46669973       5.80967824      -0.00233621       0.00330410       0.00404885
Br       3.35421919       5.08706451      10.24370088       0.00233743      -0.00330673      -0.00404760
Br       3.35421954       5.08706370       5.80967773       0.00233609      -0.00330569       0.00404732
Br       5.91420462       1.46670033      10.24370088      -0.00233668       0.00330611      -0.00404903
