9
Lattice="6.660126703597536 1.0062806961008766e-06 3.845226153104913 2.220042537205661 6.279224106681588 3.845227272109289 -4.202435786050996e-07 1.073337781094455e-06 7.690453034093039" Properties=species:S:1:pos:R:3:forces:R:3 energy=-33.56903839111328 free_energy=-33.56903839111328 stress="-0.00017898110672831535 -4.007369369674052e-08 -6.206857694479595e-09 -4.007369369674052e-08 -0.0001788022491382435 5.4025743878582944e-08 -6.206857694479595e-09 5.4025743878582944e-08 -0.00017867556016426533" pbc="T T T"
Sb       2.22004338       1.56979586       3.84521748       0.00000094      -0.00000804      -0.00000778
Sb       6.66014363       4.70941533      11.53567948       0.00001334      -0.00000642      -0.00000172
Nb      -0.00000276       0.00000093      -0.00000026       0.00000122       0.00000483       0.00001190
Cl       1.94460711       1.37505248       7.69045169       0.00129779       0.00092280       0.00000285
Cl       6.93555575       4.90417550       7.69045145      -0.00130048      -0.00090995       0.00000174
Cl       5.68782096       1.37505182       5.52931440      -0.00064433       0.00090344       0.00110261
Cl       3.19234681       4.90417780       9.85159691       0.00064069      -0.00090966      -0.00111540
Cl       3.19234418       4.90418138       5.52931755       0.00064182      -0.00090820       0.00111716
Cl       5.68781627       1.37505381       9.85159727      -0.00065099       0.00091114      -0.00111131
