9
Lattice="6.075471670081255 -1.6795462393059503e-07 3.5076750085802746 2.025157582061241 5.728011875774421 3.5076741130235485 -7.397003148452196e-07 -1.6198757036191184e-06 7.015351298359007" Properties=species:S:1:pos:R:3:forces:R:3 energy=-25.679012298583984 free_energy=-25.679012298583984 stress="6.245156691875309e-05 4.967138167444318e-08 1.5211449522212206e-07 4.967138167444318e-08 6.218037742655724e-05 1.788591106333115e-07 1.5211449522212206e-07 1.788591106333115e-07 6.267820572247729e-05" pbc="T T T"
Sb       2.02515868       1.43198966       3.50767830       0.00000890      -0.00007239       0.00002155
Sb       6.07547681       4.29601349      10.52304230       0.00003611       0.00002222       0.00010251
Ni      -0.00000029       0.00000036      -0.00000066      -0.00000320       0.00000051      -0.00000933
Cl       1.90167629       1.34468875       7.01534919       0.00094993       0.00067330      -0.00001244
Cl       6.19895007       4.38332338       7.01534507      -0.00096430      -0.00065435      -0.00002913
Cl       5.12463238       1.34469131       5.15457199      -0.00048121       0.00067897       0.00080732
Cl       2.97599207       4.38332485       8.87611979       0.00046026      -0.00065043      -0.00085086
Cl       2.97599766       4.38332463       5.15457320       0.00048544      -0.00065469       0.00081907
Cl       5.12463040       1.34468388       8.87612251      -0.00049199       0.00065683      -0.00084868
