9
Lattice="5.584510636583622 -8.849279329601227e-09 3.224218982289398 1.8615036086921828 5.265126959780686 3.2242188584348983 7.233264947332552e-08 -1.0054335116565506e-07 6.448437839294993" Properties=species:S:1:pos:R:3:forces:R:3 energy=-34.56697463989258 free_energy=-34.56697463989258 stress="-0.00013158554793335497 2.5874387077351457e-08 3.0400279626974225e-08 2.5874387077351457e-08 -0.00013157757348380983 8.021307174033154e-09 3.0400279626974225e-08 8.021307174033154e-09 -0.00013157533248886466" pbc="T T T"
Sb       1.86150320       1.31628118       3.22422036      -0.00000446      -0.00000243       0.00000838
Sb       5.58450996       3.94884698       9.67265711      -0.00000649       0.00001181       0.00000211
Ni      -0.00000018      -0.00000025      -0.00000002       0.00000244       0.00000153      -0.00000178
Se       1.89983148       1.34338256       6.44843807       0.00547451       0.00386316      -0.00000239
Se       5.54618359       3.92174351       6.44843827      -0.00547153      -0.00387011      -0.00000001
Se       4.63459496       1.34338316       4.86952036      -0.00273871       0.00386783       0.00473909
Se       2.81141932       3.92174430       8.02735426       0.00273848      -0.00386543      -0.00473928
Se       2.81141928       3.92174357       4.86952033       0.00273902      -0.00387164       0.00473768
Se       4.63459572       1.34338238       8.02735394      -0.00273329       0.00386506      -0.00474390
