9
Lattice="4.681575972273452 -3.0452374574304055e-08 2.70290927702079 1.560525335928185 4.413832155611106 2.702909206789916 7.310354250667045e-08 -3.432288910434257e-08 5.405818427422527" Properties=species:S:1:pos:R:3:forces:R:3 energy=-57.09285354614258 free_energy=-57.09285354614258 stress="8.55962498462759e-05 -4.418898669200644e-08 9.81201253580366e-09 -4.418898669200644e-08 8.537641406292096e-05 -1.4433250150602817e-08 9.81201253580366e-09 -1.4433250150602817e-08 8.561570575693622e-05" pbc="T T T"
Sb       1.56052481       1.10345781       2.70291138      -0.00000906      -0.00000489       0.00003977
Sb       4.68157520       3.31037078       8.10873057      -0.00001248      -0.00005852       0.00004757
Nb      -0.00000001      -0.00000009       0.00000036      -0.00000204      -0.00000288      -0.00000142
O        1.60721079       1.13647089       5.40581746      -0.00003338       0.00000191      -0.00002042
O        4.63489004       3.27736218       5.40581733       0.00002503       0.00001925      -0.00002058
O        3.87797079       1.13647159       4.09479375       0.00001723       0.00001246      -0.00003934
O        2.36413076       3.27736262       6.71684123      -0.00001425       0.00002766       0.00000787
O        2.36413206       3.27736191       4.09479400       0.00000256       0.00001007      -0.00003266
O        3.87797119       1.13647063       6.71684176       0.00002593      -0.00000578       0.00001884
