9
Lattice="4.716437293288885 -1.9635639339020055e-08 2.7230363916898517 1.572145755699969 4.446699729055959 2.7230363747451753 2.368668897001141e-08 -4.003869714690292e-09 5.4460727423531425" Properties=species:S:1:pos:R:3:forces:R:3 energy=-55.14680480957031 free_energy=-55.14680480957031 stress="0.0003522491897456348 -9.043754545245974e-08 4.5813944637984605e-08 -9.043754545245974e-08 0.0003522505285218358 -9.107665022156652e-08 4.5813944637984605e-08 -9.107665022156652e-08 0.00035233591916039586" pbc="T T T"
Sb       1.57214507       1.11167491       2.72303648      -0.00000585      -0.00000145       0.00000055
Sb       4.71643714       3.33502433       8.16910904      -0.00000269      -0.00000482       0.00000263
Os      -0.00000009       0.00000005      -0.00000007       0.00000527       0.00000529       0.00000152
O        1.52854105       1.08084171       5.44607263       0.00101236       0.00071727      -0.00000080
O        4.76004228       3.36585802       5.44607281      -0.00101802      -0.00072256      -0.00000131
O        3.95216705       1.08084205       4.04679162      -0.00050197       0.00071910       0.00087638
O        2.33641635       3.36585786       6.84535390       0.00050773      -0.00071616      -0.00087859
O        2.33641639       3.36585801       4.04679185       0.00050307      -0.00071003       0.00087305
O        3.95216707       1.08084190       6.84535380      -0.00049964       0.00071354      -0.00087338
