9
Lattice="5.691932982927143 -1.0390896981007628e-09 3.286239093898401 1.8973109903531002 5.366406120264844 3.2862390990534145 -1.1771380879338237e-08 -2.0100058551029794e-09 6.57247820818546" Properties=species:S:1:pos:R:3:forces:R:3 energy=-39.478572845458984 free_energy=-39.478572845458984 stress="-0.0001186431254609488 7.823315328892022e-10 9.759864028069387e-09 7.823315328892022e-10 -0.00011863889812957495 -1.4738644082967767e-08 9.759864028069387e-09 -1.4738644082967767e-08 -0.00011869138688780367" pbc="T T T"
Sb       1.89731156       1.34160247       3.28623872       0.00000685       0.00000871      -0.00000463
Sb       5.69193279       4.02480382       9.85871764      -0.00000234      -0.00000695       0.00000603
Os      -0.00000006      -0.00000024       0.00000010       0.00000065       0.00000472       0.00000099
Se       1.98605956       1.40435650       6.57247818       0.00273633       0.00193819      -0.00000019
Se       5.60318463       3.96204979       6.57247782      -0.00274193      -0.00194129      -0.00000307
Se       4.69890314       1.40435641       5.00621709      -0.00137091       0.00193980       0.00237036
Se       2.89034052       3.96204939       8.13873942       0.00137049      -0.00194162      -0.00237373
Se       2.89034085       3.96204985       5.00621699       0.00137259      -0.00194046       0.00237334
Se       4.69890283       1.40435650       8.13873963      -0.00137183       0.00193921      -0.00236923
