9
Lattice="5.412572721293507 -1.537199879770568e-07 3.1249500770624725 1.8041907751947088 5.10302223655209 3.124950054501641 -1.63878528333256e-08 -3.9219201712577435e-08 6.249900182509526" Properties=species:S:1:pos:R:3:forces:R:3 energy=-42.47651672363281 free_energy=-42.47651672363281 stress="-0.00022133365564513952 -3.282144689364941e-08 -4.614798854163382e-08 -3.282144689364941e-08 -0.00022125523537397385 -2.5035280515339764e-08 -4.614798854163382e-08 -2.5035280515339764e-08 -0.0002211470709880814" pbc="T T T"
Sb       1.80419246       1.27575835       3.12495016       0.00001871       0.00002939       0.00000133
Sb       5.41256996       3.82726684       9.37485086      -0.00002786       0.00000430       0.00000565
Os      -0.00000006       0.00000002       0.00000007      -0.00000040       0.00000277      -0.00000042
S        1.91064507       1.35102872       6.24989979      -0.00020450      -0.00015658      -0.00000309
S        5.30611931       3.75199196       6.24989967       0.00021356       0.00014168      -0.00000509
S        4.45725025       1.35102940       4.77961676       0.00010198      -0.00014687      -0.00018895
S        2.75951381       3.75199111       7.72018428      -0.00010347       0.00013942       0.00019431
S        2.75951373       3.75199159       4.77961602      -0.00009948       0.00013864      -0.00019598
S        4.45724940       1.35103012       7.72018368       0.00010148      -0.00015259       0.00019205
