9
Lattice="6.748315672349141 0.2790203080671726 5.859808883696085 3.6932990001299952 5.023531660275679 4.092439608621654 2.442416731453759 -0.2991655223564494 7.4502048421138145" Properties=species:S:1:pos:R:3:forces:R:3 energy=-42.274131774902344 free_energy=-42.274131774902344 stress="0.00011082557466579601 9.4775648904033e-05 0.00010931002179859206 9.4775648904033e-05 0.00010614633356453851 0.00027352795586921275 0.00010931002179859206 0.00027352795586921275 -0.00020987946481909603" pbc="T T T"
Sb       2.14187526       0.76831334       3.18198996       0.00094154       0.00047782      -0.00173682
Sb      10.73665029       4.23442783      14.22363071       0.00070218      -0.00012030      -0.00018319
P        0.00095944       0.00014712      -0.00031650      -0.00151126       0.00040325       0.00152249
F        2.98583305       0.89150655       6.51119040      -0.00504178       0.00247878       0.00266206
F        9.89994443       4.11203691      10.89036015       0.00361651      -0.00056118      -0.00200260
F        5.95224697       1.35138546       6.75225785      -0.00189072      -0.00209457       0.00095889
F        6.93315436       3.65258508      10.64902899       0.00507605      -0.00323862      -0.00174919
F        5.08163495       5.19352861       5.12348225      -0.00259748       0.00312667       0.00270319
F        7.80378848      -0.19037367      12.27815977       0.00070515      -0.00047126      -0.00217462
