9
Lattice="6.4837112951971605 -2.785131893344305e-07 3.7433719386263307 2.161236813480914 6.112901480997151 3.7433719773088354 -1.1890435570597366e-07 -3.670185327595058e-08 7.486744083201042" Properties=species:S:1:pos:R:3:forces:R:3 energy=-23.29578399658203 free_energy=-23.29578399658203 stress="-0.00015632499707862735 -8.479222657342689e-09 -1.490257162117814e-08 -8.479222657342689e-09 -0.00015630741836503148 1.4364596623295256e-08 -1.490257162117814e-08 1.4364596623295256e-08 -0.00015628052642568946" pbc="T T T"
Sb       2.16123581       1.52822392       3.74337104      -0.00000211      -0.00000320      -0.00000299
Sb       6.48371237       4.58467649      11.23011473       0.00000242      -0.00000015      -0.00000339
Pt      -0.00000005       0.00000030      -0.00000034       0.00000191      -0.00000529       0.00001027
Br       2.04405623       1.44536604       7.48674400      -0.00241672      -0.00170790       0.00000105
Br       6.60089186       4.66753543       7.48674422       0.00241631       0.00170916       0.00000186
Br       5.46168261       1.44536621       5.51357716       0.00121288      -0.00171386      -0.00209458
Br       3.18326483       4.66753543       9.45991181      -0.00120985       0.00171167       0.00209337
Br       3.18326513       4.66753512       5.51357707      -0.00121204       0.00171565      -0.00209475
Br       5.46168318       1.44536571       9.45991226       0.00120719      -0.00170608       0.00208906
