9
Lattice="5.729268649248994 -9.019643424229306e-08 3.307794749046801 1.9097561185513248 5.401606155792316 3.3077947712638243 -3.929575871326028e-08 -5.761036435216906e-10 6.615589566155853" Properties=species:S:1:pos:R:3:forces:R:3 energy=-35.01272964477539 free_energy=-35.01272964477539 stress="-0.00043634744361042976 -4.171078060721811e-08 -2.4886587013384087e-08 -4.171078060721811e-08 -0.0004363651678431779 -1.0451394194532782e-09 -2.4886587013384087e-08 -1.0451394194532782e-09 -0.00043626720434986055" pbc="T T T"
Sb       1.90975695       1.35040168       3.30779387       0.00000514       0.00000195      -0.00000848
Sb       5.72926644       4.05120222       9.92338308      -0.00001385      -0.00001458      -0.00001257
Pt      -0.00000014      -0.00000003       0.00000017       0.00000135      -0.00000183      -0.00000494
Se       1.98923608       1.40660262       6.61559000       0.00347653       0.00246029       0.00000354
Se       5.64978856       3.99500382       6.61559011      -0.00347732      -0.00245946       0.00000651
Se       4.73465059       1.40660306       5.03052398      -0.00173608       0.00246086       0.00300756
Se       2.90437525       3.99500314       8.20065526       0.00174138      -0.00245545      -0.00300075
Se       2.90437498       3.99500386       5.03052420       0.00173918      -0.00245588       0.00300808
Se       4.73465024       1.40660389       8.20065568      -0.00173654       0.00246426      -0.00299891
