9
Lattice="5.720467661020063 7.828383821889361e-08 3.3027134788520778 1.9068225857388859 5.393308824014072 3.3027135511498735 -1.3887431488146306e-09 8.756435483701426e-08 6.605426960109508" Properties=species:S:1:pos:R:3:forces:R:3 energy=-33.400909423828125 free_energy=-33.400909423828125 stress="-6.97353170835413e-05 9.47516642924029e-09 -2.693809264542324e-08 9.47516642924029e-09 -6.977932207519189e-05 8.52429771214247e-09 -2.693809264542324e-08 8.52429771214247e-09 -6.973968993406743e-05" pbc="T T T"
Sb       1.90682223       1.34832917       3.30271228      -0.00000435       0.00001715      -0.00001050
Sb       5.72046735       4.04498123       9.90814167      -0.00000149      -0.00000762       0.00001304
Pd      -0.00000000       0.00000011      -0.00000016       0.00000057      -0.00000077      -0.00000139
Se       2.01607939       1.42558374       6.60542733       0.00355434       0.00251594       0.00000486
Se       5.61121118       3.96772467       6.60542636      -0.00355038      -0.00251944      -0.00000573
Se       4.71242845       1.42558412       5.04868951      -0.00177311       0.00251934       0.00307900
Se       2.91486206       3.96772448       8.16216506       0.00177342      -0.00252001      -0.00307645
Se       2.91486243       3.96772513       5.04868912       0.00178036      -0.00251894       0.00307789
Se       4.71242786       1.42558334       8.16216481      -0.00177929       0.00251418      -0.00308093
