9
Lattice="4.513170655399281 8.99138993147966e-08 2.6056804144010832 1.504390236181708 4.255058700843735 2.605680530546087 -7.807687808755273e-08 8.703933660674645e-08 5.211360964035246" Properties=species:S:1:pos:R:3:forces:R:3 energy=-53.813987731933594 free_energy=-53.813987731933594 stress="0.0004635322839021683 -7.194817897016037e-08 -1.074722462135469e-07 -7.194817897016037e-08 0.0004638941609300673 3.49904816232538e-08 -1.074722462135469e-07 3.49904816232538e-08 0.0004634872020687908" pbc="T T T"
Sb       1.50438994       1.06376505       2.60567917      -0.00000753       0.00000308      -0.00001259
Sb       4.51316930       3.19129400       7.81704018      -0.00001433      -0.00000269      -0.00001507
P       -0.00000005       0.00000008       0.00000014       0.00000194      -0.00000043       0.00000508
O        1.39617519       0.98724521       5.21136155      -0.00464702      -0.00328946       0.00000279
O        4.62138604       3.26781336       5.21136138       0.00465393       0.00328922       0.00000846
O        3.81508342       0.98724508       3.81480406       0.00232893      -0.00329256      -0.00402319
O        2.20247816       3.26781362       6.60791877      -0.00231856       0.00328767       0.00403047
O        2.20247843       3.26781377       3.81480376      -0.00232339       0.00329185      -0.00402749
O        3.81508294       0.98724541       6.60791870       0.00232679      -0.00328684       0.00402987
