9
Lattice="6.564274174563484 9.074497015635603e-08 3.7898853201142755 2.1880914069292463 6.1888572852061055 3.7898854416125736 -8.057928525182436e-08 9.182630913954815e-08 7.579770779795881" Properties=species:S:1:pos:R:3:forces:R:3 energy=-26.642126083374023 free_energy=-26.642126083374023 stress="-7.915824244264513e-05 2.393470488470939e-08 1.3520724539972662e-09 2.393470488470939e-08 -7.91872080299072e-05 -6.498894755679885e-09 1.3520724539972662e-09 -6.498894755679885e-09 -7.918699702713639e-05" pbc="T T T"
Sb       2.18809052       1.54721529       3.78988577      -0.00000307       0.00000379       0.00000158
Sb       6.56427388       4.64164315      11.36965424      -0.00000072       0.00000097      -0.00000709
Pb       0.00000023       0.00000015      -0.00000008      -0.00000069      -0.00000088       0.00000256
Te       2.52868079       1.78804755       7.57977073      -0.00103568      -0.00073326      -0.00000217
Te       6.22368489       4.40080941       7.57977174       0.00103879       0.00073136       0.00000279
Te       5.29993408       1.78804700       5.97978738       0.00051741      -0.00073330      -0.00089493
Te       3.45243239       4.40081001       9.17975494      -0.00051545       0.00073233       0.00089771
Te       3.45243094       4.40080963       5.97978714      -0.00052063       0.00073000      -0.00089646
Te       5.29993428       1.78804771       9.17975427       0.00052006      -0.00073093       0.00089599
