9
Lattice="5.439737625701494 8.912260742630784e-08 3.140634087755903 1.813246001946379 5.128633991642815 3.1406340138199806 1.3378578771490708e-07 4.0481456060083175e-09 6.281267943788036" Properties=species:S:1:pos:R:3:forces:R:3 energy=-36.578582763671875 free_energy=-36.578582763671875 stress="-5.641780444420874e-05 -2.697336576318321e-08 3.6456924590311246e-08 -2.697336576318321e-08 -5.6491953728254884e-05 -1.3466833870268147e-08 3.6456924590311246e-08 -1.3466833870268147e-08 -5.650956882163882e-05" pbc="T T T"
Sb       1.81324687       1.28215794       3.14063351       0.00000568      -0.00000198      -0.00000304
Sb       5.43973791       3.84647610       9.42190244       0.00000475       0.00000746       0.00000515
P        0.00000011      -0.00000003      -0.00000018      -0.00000317       0.00000212       0.00000577
S        1.78173351       1.25987594       6.28126810      -0.00352788      -0.00249860       0.00000305
S        5.47125004       3.86875874       6.28126747       0.00352436       0.00249839      -0.00000435
S        4.54887094       1.25987545       4.68366043       0.00176141      -0.00249562      -0.00305387
S        2.70411223       3.86875845       7.87887612      -0.00176010       0.00248793       0.00304863
S        2.70411244       3.86875785       4.68366085      -0.00176585       0.00250056      -0.00305945
S        4.54887099       1.25987589       7.87887549       0.00176093      -0.00250033       0.00305802
