9
Lattice="6.725939361090955 -1.523370545015406e-07 3.8832230159096692 2.241979675802594 6.341276468046626 3.8832229597964134 3.1407899108832765e-08 -4.651568430540852e-08 7.76644597741925" Properties=species:S:1:pos:R:3:forces:R:3 energy=-21.43514060974121 free_energy=-21.43514060974121 stress="6.758398376405239e-05 -1.2708739838274141e-08 1.0347745771355221e-08 -1.2708739838274141e-08 6.758944073226303e-05 -1.4933412728623807e-08 1.0347745771355221e-08 -1.4933412728623807e-08 6.76084600854665e-05" pbc="T T T"
Sb       2.24197965       1.58531858       3.88322296       0.00000133      -0.00000071       0.00000013
Sb       6.72593905       4.75595752      11.64966921      -0.00000204       0.00000020       0.00000226
Pt       0.00000017      -0.00000006       0.00000004       0.00000017       0.00000073      -0.00000284
I        2.21131178       1.56363339       7.76644598       0.00006783       0.00004797      -0.00000008
I        6.75660729       4.77764299       7.76644583      -0.00006856      -0.00004746      -0.00000090
I        5.62028347       1.56363337       5.79827509      -0.00003400       0.00004830       0.00005834
I        3.34763565       4.77764291       9.73461693       0.00003330      -0.00004707      -0.00005830
I        3.34763580       4.77764305       5.79827509       0.00003405      -0.00004744       0.00005909
I        5.62028339       1.56363333       9.73461669      -0.00003212       0.00004545      -0.00005779
