9
Lattice="4.830349072464902 -2.1712165365295855e-08 2.788801840699157 1.6101160363747515 4.554096860650911 2.78880236142847 -1.20477984530431e-06 -2.1414757362193813e-07 5.577605768138013" Properties=species:S:1:pos:R:3:forces:R:3 energy=-35.08843994140625 free_energy=-35.08843994140625 stress="0.0004168032028246671 1.1359619520590059e-06 3.313960405648686e-06 1.1359619520590059e-06 0.0004196496738586575 2.3361660623777425e-06 3.313960405648686e-06 2.3361660623777425e-06 0.00042017188388854265" pbc="T T T"
Sb       1.61015926       1.13853084       2.78885295       0.00082791       0.00006280       0.00107966
Sb       4.83031071       3.41560264       8.36630055      -0.00073101       0.00051077      -0.00196217
Pt      -0.00000034      -0.00000215       0.00000332       0.00000296      -0.00003920       0.00004832
F        1.67476622       1.18421408       5.57758458      -0.00181600      -0.00172958      -0.00044597
F        4.76570440       3.36987133       5.57765064       0.00191107       0.00156540       0.00084626
F        3.99293967       1.18420765       4.23918451       0.00040010      -0.00184608      -0.00174767
F        2.44752554       3.36986769       6.91604439      -0.00038905       0.00151128       0.00205299
F        2.44748025       3.36984924       4.23917936      -0.00124198       0.00112835      -0.00183836
F        3.99296990       1.18424518       6.91603944       0.00103606      -0.00116366       0.00196654
