9
Lattice="5.576755364810789 2.625602298415984e-07 3.219741595859805 1.858918736860791 5.257815492573857 3.2197415363124278 2.6194127657557043e-07 1.1229010212264236e-07 6.439482738024017" Properties=species:S:1:pos:R:3:forces:R:3 energy=-31.523143768310547 free_energy=-31.523143768310547 stress="-1.307988895860035e-05 -1.1407917277495017e-08 -6.352939863063511e-08 -1.1407917277495017e-08 -1.316364523518132e-05 -3.89248029364353e-08 -6.352939863063511e-08 -3.89248029364353e-08 -1.2991668882023077e-05" pbc="T T T"
Sb       1.85891726       1.31445826       3.21973758      -0.00001363       0.00004355      -0.00004843
Sb       5.57675410       3.94336616       9.65922517      -0.00001517       0.00004808       0.00001375
Pb       0.00000009       0.00000002      -0.00000017       0.00000055      -0.00000301       0.00000135
S        2.04734665       1.44769075       6.43948539      -0.00034566      -0.00026715       0.00002400
S        5.38832987       3.81012185       6.43948206       0.00036652       0.00023041      -0.00000601
S        4.55308315       1.44769080       4.99279596       0.00018324      -0.00025984      -0.00029760
S        2.88259184       3.81012187       7.88617245      -0.00017703       0.00023166       0.00032008
S        2.88259203       3.81012306       4.99279457      -0.00017152       0.00024579      -0.00031186
S        4.55308250       1.44769074       7.88617040       0.00017295      -0.00026947       0.00030498
