9
Lattice="4.783977495350397 -1.0366206974822422e-07 2.7620307128350867 1.5946591195686848 4.510377079289142 2.7620306224473112 1.4024305444206496e-07 -1.1535185850619854e-08 5.524061182762114" Properties=species:S:1:pos:R:3:forces:R:3 energy=-35.55803680419922 free_energy=-35.55803680419922 stress="0.0001904251694213599 -1.4581064533558674e-07 -1.6339279795829498e-07 -1.4581064533558674e-07 0.0001903937809402123 -1.8294707615496009e-07 -1.6339279795829498e-07 -1.8294707615496009e-07 0.00019013244309462607" pbc="T T T"
Sb       1.59465413       1.12759608       2.76202732      -0.00008696       0.00003220      -0.00006392
Sb       4.78397809       3.38278651       8.28609396       0.00000948       0.00006299       0.00003439
Pd      -0.00000018       0.00000001      -0.00000010       0.00000816       0.00000227      -0.00000056
F        1.68344132       1.19037077       5.52406300      -0.00677999      -0.00482378       0.00003028
F        4.69519739       3.32000341       5.52406111       0.00680789       0.00477128      -0.00001269
F        3.94225979       1.19037150       4.21993418       0.00343648      -0.00481488      -0.00584692
F        2.43637857       3.32000409       6.82818978      -0.00341226       0.00479040       0.00588316
F        2.43637995       3.32000505       4.21993252      -0.00338843       0.00481329      -0.00587903
F        3.94225788       1.19037046       6.82818824       0.00340537      -0.00483358       0.00585513
