9
Lattice="5.470040695065872 -4.821784651044879e-08 3.158129529804682 1.8233468749311723 5.157203682710227 3.1581294916370246 1.0415455140196526e-07 2.6902751628410173e-08 6.316258879208383" Properties=species:S:1:pos:R:3:forces:R:3 energy=-37.8848876953125 free_energy=-37.8848876953125 stress="-0.00033097309642471373 1.0722506438298751e-08 -5.401819791472917e-08 1.0722506438298751e-08 -0.0003309256862848997 4.165428002522731e-09 -5.401819791472917e-08 4.165428002522731e-09 -0.0003309688763692975" pbc="T T T"
Sb       1.82334972       1.28929847       3.15813207       0.00002762      -0.00002659       0.00002750
Sb       5.47004485       3.86790292       9.47439086       0.00003931       0.00000353       0.00002486
Pt      -0.00000056      -0.00000036      -0.00000077       0.00000946       0.00000364       0.00001744
S        1.89185795       1.33774682       6.31625771      -0.00008491      -0.00004774      -0.00001365
S        5.40152816       3.81945877       6.31625809       0.00006029       0.00006297      -0.00001310
S        4.52410996       1.33774623       4.79652602       0.00002348      -0.00005424      -0.00007728
S        2.76927468       3.81945881       7.83598923      -0.00005111       0.00005904       0.00004339
S        2.76927538       3.81945798       4.79652767      -0.00004786       0.00005665      -0.00006273
S        4.52411057       1.33774499       7.83599072       0.00002362      -0.00005773       0.00005361
