9
Lattice="5.768618377182677 1.737194286981814e-07 3.3305134508862118 1.9228729801933984 5.438703427398141 3.330513409291043 6.137649352810558e-07 3.8305378488608296e-07 6.661025838700374" Properties=species:S:1:pos:R:3:forces:R:3 energy=-29.06886863708496 free_energy=-29.06886863708496 stress="8.79108119988814e-06 1.6043955497480056e-07 -1.5742585901534767e-07 1.6043955497480056e-07 9.814812983677257e-06 -1.4942702364351135e-07 -1.5742585901534767e-07 -1.4942702364351135e-07 9.134039828495588e-06" pbc="T T T"
Sb       1.92286578       1.35965934       3.33050751      -0.00005527      -0.00014658      -0.00004895
Sb       5.76860178       4.07903028       9.99154396      -0.00015754       0.00002092       0.00003583
Pb       0.00000207       0.00000103      -0.00000034       0.00001423       0.00001158       0.00000473
Se       2.26305202       1.60021152       6.66102906      -0.00027515      -0.00025105       0.00002173
Se       5.42844631       3.83849506       6.66102524       0.00029696       0.00025218      -0.00001510
Se       4.63709854       1.60021502       5.29036873       0.00018924      -0.00020697      -0.00025954
Se       3.05440080       3.83849405       8.03168442      -0.00010312       0.00025773       0.00025989
Se       3.05440462       3.83849394       5.29036659      -0.00007695       0.00027198      -0.00026964
Se       4.63709606       1.60021574       8.03168560       0.00016762      -0.00020978       0.00027104
