9
Lattice="5.607053601715557 3.403472107494933e-07 3.2372346353593624 1.8690181265038124 5.2863817490142075 3.2372347420832446 -1.5737655543352189e-07 1.942751118718034e-08 6.4744695433029165" Properties=species:S:1:pos:R:3:forces:R:3 energy=-33.61613845825195 free_energy=-33.61613845825195 stress="-0.0001950522855622694 -5.4628113588250926e-08 -1.54720734002467e-08 -5.4628113588250926e-08 -0.00019500944472383708 3.090042710596208e-08 -1.54720734002467e-08 3.090042710596208e-08 -0.00019503652583807707" pbc="T T T"
Sb       1.86902189       1.32159628       3.23723352       0.00002393       0.00000209      -0.00000411
Sb       5.60705151       3.96478642       9.71170250      -0.00001188       0.00000170      -0.00001296
P       -0.00000039      -0.00000029       0.00000079       0.00000179       0.00000024      -0.00000736
Se       1.89818298       1.34221836       6.47446886       0.00789060       0.00557399       0.00000039
Se       5.57788813       3.94416431       6.47447027      -0.00789340      -0.00557494       0.00000584
Se       4.65796156       1.34221861       4.88111052      -0.00394981       0.00557664       0.00682532
Se       2.81810976       3.94416246       8.06782930       0.00394448      -0.00557857      -0.00681463
Se       2.81810957       3.94416360       4.88111055       0.00394673      -0.00557988       0.00682810
Se       4.65796125       1.34221866       8.06782939      -0.00395245       0.00557883      -0.00682061
