9
Lattice="4.608948171317512 -1.053530445153408e-08 2.660977491578071 1.5363160462790733 4.345357984831668 2.66097749312652 -3.923810606770654e-08 -2.5849085419924663e-08 5.321955051118533" Properties=species:S:1:pos:R:3:forces:R:3 energy=-45.55021667480469 free_energy=-45.55021667480469 stress="-0.00012663866800721735 -9.403035505783919e-08 -8.8836330291997e-08 -9.403035505783919e-08 -0.00012660968059208244 4.640850903570026e-08 -8.8836330291997e-08 4.640850903570026e-08 -0.0001264969614567235" pbc="T T T"
Sb       1.53631582       1.08633936       2.66097651      -0.00000494      -0.00000475      -0.00001510
Sb       4.60894970       3.25901777       7.98293235       0.00002625      -0.00000836      -0.00000460
Pd      -0.00000031       0.00000035      -0.00000368       0.00001342      -0.00001497       0.00016540
O        1.59454679       1.12751530       5.32195533       0.00029927       0.00022271       0.00000847
O        4.55071691       3.21784304       5.32195504      -0.00030568      -0.00021580       0.00000365
O        3.81167455       1.12751578       4.04189699      -0.00012302       0.00018197       0.00022790
O        2.33358845       3.21784344       6.60201473       0.00016136      -0.00024709      -0.00029981
O        2.33358955       3.21784254       4.04189711       0.00011584      -0.00017139       0.00022429
O        3.81167528       1.12751420       6.60201567      -0.00018254       0.00025779      -0.00031114
