9
Lattice="6.220404442666932 -4.624415434196213e-07 3.591351587523465 2.0734678754238076 5.864654408588852 3.5913513037056535 -4.729990077655022e-07 -6.820651982088387e-07 7.182703994305194" Properties=species:S:1:pos:R:3:forces:R:3 energy=-25.141761779785156 free_energy=-25.141761779785156 stress="0.00015261044609360397 -1.0029171448877605e-07 -2.1388034099345532e-07 -1.0029171448877605e-07 0.00015234280726872385 -1.377052143425317e-07 -2.1388034099345532e-07 -1.377052143425317e-07 0.00015222490765154362" pbc="T T T"
Sb       2.07347168       1.46616829       3.59134994       0.00001275       0.00002339      -0.00001699
Sb       6.22038313       4.39849786      10.77402200      -0.00008591       0.00003551      -0.00013920
Pd       0.00000095      -0.00000073       0.00000201       0.00001025      -0.00000475       0.00001324
Cl       1.95602723       1.38311486       7.18270443      -0.00559597      -0.00398769       0.00001253
Cl       6.33784960       4.48153496       7.18271270       0.00561284       0.00395720       0.00004509
Cl       5.24239149       1.38311099       5.28532208       0.00279913      -0.00398374      -0.00483312
Cl       3.05149150       4.48153298       9.08009944      -0.00276282       0.00395573       0.00489122
Cl       3.05147966       4.48153471       5.28531952      -0.00279795       0.00395808      -0.00484625
Cl       5.24239212       1.38311912       9.08009536       0.00280765      -0.00395367       0.00487358
