9
Lattice="6.433989942279599 -4.935753083413338e-07 3.7146654014741323 2.144662930014684 6.066023844637282 3.7146652607125 2.1035550827349193e-07 -2.365329119177923e-08 7.429330438601923" Properties=species:S:1:pos:R:3:forces:R:3 energy=-22.381649017333984 free_energy=-22.381649017333984 stress="-8.33174490253441e-05 6.352469217318912e-09 6.653172679449426e-09 6.352469217318912e-09 -8.331819844897836e-05 -1.1841600588979873e-08 6.653172679449426e-09 -1.1841600588979873e-08 -8.32670193631202e-05" pbc="T T T"
Sb       2.14466118       1.51650414       3.71465876      -0.00000668      -0.00000406      -0.00002644
Sb       6.43399282       4.54951771      11.14399109       0.00001070      -0.00000164      -0.00002019
Pd       0.00000016       0.00000022       0.00000041      -0.00000247       0.00000051       0.00001057
Br       2.06915203       1.46311172       7.42933296      -0.00173114      -0.00122068       0.00001244
Br       6.50950075       4.60291174       7.42933182       0.00173018       0.00122459       0.00000859
Br       5.39941403       1.46311122       5.50660565       0.00087157      -0.00122957      -0.00149278
Br       3.17923940       4.60291242       9.35205914      -0.00086361       0.00121968       0.00149655
Br       3.17923861       4.60291222       5.50660529      -0.00087076       0.00123031      -0.00148936
Br       5.39941335       1.46311188       9.35205926       0.00086222      -0.00121919       0.00150057
