9
Lattice="6.748500029202361 -1.0604150031214958e-06 3.8962488170846807 2.249499489409502 6.362552111270543 3.896247986662152 -1.5074975383731652e-06 -2.0830173757839064e-06 7.7925002452318894" Properties=species:S:1:pos:R:3:forces:R:3 energy=-24.537796020507812 free_energy=-24.537796020507812 stress="-3.854569513350725e-05 -1.8551830294200045e-07 1.1895993878852096e-07 -1.8551830294200045e-07 -3.887599450536072e-05 1.3597140302579191e-08 1.1895993878852096e-07 1.3597140302579191e-08 -3.896255657309666e-05" pbc="T T T"
Sb       2.24952046       1.59064072       3.89624112       0.00000951       0.00000066      -0.00000429
Sb       6.74847084       4.77190808      11.68876484      -0.00001351      -0.00000092       0.00000921
P        0.00000080      -0.00000006      -0.00000102      -0.00000248      -0.00000088      -0.00000201
Cl       1.78222137       1.26021559       7.79249766      -0.00248161      -0.00174057      -0.00000203
Cl       7.21577854       5.10233213       7.79249799       0.00248748       0.00174743       0.00000112
Cl       5.85739189       1.26022025       5.43969691       0.00124747      -0.00175920      -0.00214428
Cl       3.14060858       5.10233246      10.14529686      -0.00124542       0.00174332       0.00214198
Cl       3.14061459       5.10232979       5.43969344      -0.00125235       0.00176084      -0.00215071
Cl       5.85738469       1.26021691      10.14530052       0.00125091      -0.00175077       0.00215095
