9
Lattice="6.8153585007714526 -1.8021112051787405e-07 3.9348490604256563 2.2717860767245543 6.4255813283259835 3.9348489223718266 6.87669754495038e-08 -1.204550736845088e-07 7.869698001743369" Properties=species:S:1:pos:R:3:forces:R:3 energy=-19.410903930664062 free_energy=-19.410903930664062 stress="-3.022875898750499e-05 6.1534546347274954e-09 6.411923436644429e-09 6.1534546347274954e-09 -3.022991404577624e-05 -6.699344190508327e-09 6.411923436644429e-09 -6.699344190508327e-09 -3.0246927053667605e-05" pbc="T T T"
Sb       2.27178571       1.60639475       3.93484914      -0.00000187      -0.00000277      -0.00000021
Sb       6.81535900       4.81918598      11.80454617       0.00000301       0.00000174      -0.00000269
P       -0.00000018      -0.00000034      -0.00000000       0.00000017       0.00000067      -0.00000014
I        2.29356787       1.62179753       7.86969803      -0.00095091      -0.00067201       0.00000046
I        6.79357675       4.80378379       7.86969834       0.00095035       0.00067203       0.00000100
I        5.66857449       1.62179713       5.92113730       0.00047557      -0.00067325      -0.00082244
I        3.41857025       4.80378397       9.81825850      -0.00047601       0.00067356       0.00082342
I        3.41857013       4.80378382       5.92113746      -0.00047546       0.00067240      -0.00082196
I        5.66857461       1.62179747       9.81825902       0.00047513      -0.00067237       0.00082261
