9
Lattice="6.699919765341905 -7.02511579475046e-08 3.8682005191118165 2.233306481414302 6.31674508044463 3.8682005897787137 -5.799657024249179e-08 4.553917383067819e-08 7.736401138676606" Properties=species:S:1:pos:R:3:forces:R:3 energy=-20.490074157714844 free_energy=-20.490074157714844 stress="0.00016695541853550822 6.528990237342214e-09 2.55275822702572e-09 6.528990237342214e-09 0.00016694316582288593 -3.155271377508484e-09 2.55275822702572e-09 -3.155271377508484e-09 0.0001669488992774859" pbc="T T T"
Sb       2.23330596       1.57918576       3.86819991      -0.00000308      -0.00000188      -0.00000313
Sb       6.69991939       4.73755905      11.60460109      -0.00000087      -0.00000013      -0.00000355
Pd       0.00000013       0.00000018      -0.00000014       0.00000162      -0.00000224      -0.00000002
I        2.22848368       1.57577582       7.73640139      -0.00145433      -0.00102965       0.00000167
I        6.70474263       4.74096920       7.73640136       0.00145557       0.00102974       0.00000134
I        5.58567809       1.57577576       5.79812441       0.00072863      -0.00102954      -0.00125810
I        3.34754848       4.74096928       9.67467828      -0.00072778       0.00103123       0.00126231
I        3.34754852       4.74096917       5.79812434      -0.00072790       0.00103121      -0.00126106
I        5.58567789       1.57577600       9.67467836       0.00072816      -0.00102878       0.00126051
