9
Lattice="4.637942091357897 3.353513960498595e-08 2.6777171336825423 1.5459807231006466 4.372693789469289 2.6777171434442066 5.4353814141126735e-09 1.5798925397989856e-08 5.355434257950757" Properties=species:S:1:pos:R:3:forces:R:3 energy=-48.46783447265625 free_energy=-48.46783447265625 stress="0.000313334894599393 -1.5657350971309825e-08 2.2068173066713825e-08 -1.5657350971309825e-08 0.00031323794974014163 -4.00624351470924e-08 2.2068173066713825e-08 -4.00624351470924e-08 0.0003131880075670779" pbc="T T T"
Sb       1.54597812       1.09317477       2.67771770      -0.00004013       0.00002090       0.00000918
Sb       4.63794424       3.27952189       8.03315109       0.00003127       0.00002818      -0.00001031
Rh      -0.00000004      -0.00000013      -0.00000024      -0.00000190       0.00000571       0.00001323
O        1.58043420       1.11753585       5.35543413      -0.00237340      -0.00167745      -0.00000385
O        4.60348920       3.25515709       5.35543435       0.00238192       0.00165817       0.00000546
O        3.84772546       1.11753489       4.04641423       0.00119528      -0.00169438      -0.00204501
O        2.33619715       3.25515833       6.66445482      -0.00118928       0.00167036       0.00204381
O        2.33619700       3.25515790       4.04641390      -0.00120094       0.00167501      -0.00205100
O        3.84772593       1.11753481       6.66445422       0.00119737      -0.00168642       0.00203770
