9
Lattice="6.3797955240801985 3.301235839096891e-07 3.6833769256285733 2.1265989394981735 6.01493003826597 3.683376717387697 -6.885148737686421e-07 -7.418953301430822e-07 7.366755043799779" Properties=species:S:1:pos:R:3:forces:R:3 energy=-29.100008010864258 free_energy=-29.100008010864258 stress="0.00014569240738637745 1.413251595749898e-07 2.988911163015473e-08 1.413251595749898e-07 0.00014551397180184722 3.38700267832337e-08 2.988911163015473e-08 3.38700267832337e-08 0.00014591698709409684" pbc="T T T"
Sb       2.12658069       1.50372622       3.68337610      -0.00004291      -0.00001428      -0.00000002
Sb       6.37979888       4.51121049      11.05013502       0.00000479       0.00003077       0.00000930
Ru       0.00000158       0.00000003      -0.00000033      -0.00001184      -0.00001309       0.00001061
Cl       1.92286629       1.35966810       7.36675500      -0.00267734      -0.00190221       0.00000248
Cl       6.58352877       4.65525575       7.36675176       0.00270846       0.00190771      -0.00000155
Cl       5.41836589       1.35966885       5.34863253       0.00135470      -0.00191306      -0.00232700
Cl       3.08803098       4.65526251       9.38487834      -0.00133868       0.00189863       0.00232121
Cl       3.08803454       4.65526045       5.34862917      -0.00134357       0.00190789      -0.00233157
Cl       5.41836742       1.35966619       9.38487720       0.00134609      -0.00190251       0.00231643
