9
Lattice="5.688753118484687 6.789360699779691e-08 3.284403220250266 1.896251102300101 5.36340768965555 3.2844032223382587 4.449852762957916e-09 5.703794357713559e-09 6.568806432793161" Properties=species:S:1:pos:R:3:forces:R:3 energy=-36.54222869873047 free_energy=-36.54222869873047 stress="-0.0004469706618692726 2.3985062824749548e-08 -4.69260630353574e-10 2.3985062824749548e-08 -0.00044697601697407663 6.861962553728063e-09 -4.69260630353574e-10 6.861962553728063e-09 -0.0004470360872801393" pbc="T T T"
Sb       1.89625037       1.34085144       3.28440307      -0.00000393      -0.00000331      -0.00000213
Sb       5.68875388       4.02255664       9.85321085       0.00000458       0.00000546       0.00000482
Rh       0.00000022       0.00000021      -0.00000019      -0.00000167      -0.00000457      -0.00000125
Se       1.97888711       1.39928431       6.56880654       0.00808035       0.00571302       0.00000037
Se       5.60611695       3.96412304       6.56880609      -0.00807485      -0.00571047      -0.00000127
Se       4.69930992       1.39928432       4.99816944      -0.00404017       0.00571410       0.00700240
Se       2.88569399       3.96412359       8.13944302       0.00403763      -0.00571385      -0.00699973
Se       2.88569466       3.96412374       4.99816973       0.00403859      -0.00571115       0.00699884
Se       4.69930977       1.39928375       8.13944296      -0.00404024       0.00571087      -0.00700194
