9
Lattice="5.787143849310861 -4.176556523530855e-08 3.3412089066822306 1.9290478982256507 5.456171460869358 3.341208927757291 -5.113579798034061e-08 -1.0346871473907316e-08 6.6824179019342544" Properties=species:S:1:pos:R:3:forces:R:3 energy=-41.28923034667969 free_energy=-41.28923034667969 stress="-0.00011533733049873263 2.1473383071679564e-08 2.733195181292558e-08 2.1473383071679564e-08 -0.00011545902816578746 -7.846627880780943e-08 2.733195181292558e-08 -7.846627880780943e-08 -0.00011546740279300138" pbc="T T T"
Sb       1.92904759       1.36404278       3.34120916      -0.00000249      -0.00000009       0.00000357
Sb       5.78714316       4.09212844      10.02362554      -0.00000343      -0.00000257      -0.00001023
Re       0.00000027      -0.00000007      -0.00000013      -0.00000482       0.00000018       0.00000411
Se       1.98953226       1.40681179       6.68241784       0.00024110       0.00017104      -0.00000071
Se       5.72665949       4.04935953       6.68241836      -0.00023645      -0.00016733       0.00000376
Se       4.79237758       1.40681156       5.06419437      -0.00012116       0.00017042       0.00021118
Se       2.92381454       4.04935981       8.30064192       0.00012644      -0.00017476      -0.00021206
Se       2.92381405       4.04935992       5.06419445       0.00011903      -0.00016800       0.00020903
Se       4.79237790       1.40681194       8.30064145      -0.00011854       0.00017107      -0.00020872
