9
Lattice="6.697838403045337 1.7678130207579856e-08 3.8669987116661204 2.232612798897842 6.3147826279623915 3.8669987442015814 -6.186845417965544e-08 -3.899930037446564e-09 7.733997530491502" Properties=species:S:1:pos:R:3:forces:R:3 energy=-24.047910690307617 free_energy=-24.047910690307617 stress="5.8373894717078656e-05 1.2851300468241789e-08 -9.372618237080133e-09 1.2851300468241789e-08 5.835392221342772e-05 1.610552047281999e-08 -9.372618237080133e-09 1.610552047281999e-08 5.8346049627289176e-05" pbc="T T T"
Sb       2.23261301       1.57869606       3.86699804       0.00000015       0.00000104      -0.00000109
Sb       6.69783811       4.73608668      11.60099736       0.00000098      -0.00000021       0.00000187
Ru      -0.00000004      -0.00000009      -0.00000008      -0.00000085       0.00000076       0.00000129
I        2.19464321       1.55184709       7.73399754       0.00046698       0.00033018       0.00000088
I        6.73580813       4.76293567       7.73399726      -0.00046717      -0.00033014      -0.00000098
I        5.60051685       1.55184727       5.76761529      -0.00023358       0.00033142       0.00040431
I        3.32993410       4.76293550       9.70037955       0.00023361      -0.00033295      -0.00040608
I        3.32993449       4.76293553       5.76761527       0.00023495      -0.00033116       0.00040511
I        5.60051670       1.55184686       9.70037971      -0.00023505       0.00033104      -0.00040528
