9
Lattice="4.677871652320925 -3.965661114744449e-08 2.700770496888218 1.559290502244335 4.4103397093170305 2.7007705161844666 -1.6877451835571994e-08 1.1698809026055225e-08 5.401541023009013" Properties=species:S:1:pos:R:3:forces:R:3 energy=-51.8565788269043 free_energy=-51.8565788269043 stress="0.00012282506213523448 -2.9185990513269644e-08 -5.611354225720788e-08 -2.9185990513269644e-08 0.00012287353456486017 2.4944943888272064e-08 -5.611354225720788e-08 2.4944943888272064e-08 0.00012285512639209628" pbc="T T T"
Sb       1.55928757       1.10258133       2.70077068      -0.00004845      -0.00005330       0.00000399
Sb       4.67787058       3.30775655       8.10231714      -0.00001363       0.00002510       0.00008030
Ru      -0.00000013      -0.00000020       0.00000036      -0.00000356       0.00000070      -0.00000594
O        1.54280156       1.09092411       5.40154091       0.00050849       0.00034186      -0.00000425
O        4.69436089       3.31941557       5.40153798      -0.00050098      -0.00034347      -0.00003823
O        3.90647282       1.09092557       4.03687549      -0.00022791       0.00035864       0.00043327
O        2.33069057       3.31941604       6.76620539       0.00024465      -0.00032723      -0.00044832
O        2.33069281       3.31941624       4.03687522       0.00028022      -0.00033510       0.00043455
O        3.90647186       1.09092343       6.76620509      -0.00023861       0.00033247      -0.00045529
