9
Lattice="6.703904317679036 -6.061780123561295e-08 3.870501020378932 2.23463473215321 6.3205015715284505 3.8705009913765025 3.218957354807856e-08 -1.2759072112637454e-08 7.7410019850038525" Properties=species:S:1:pos:R:3:forces:R:3 energy=-23.086578369140625 free_energy=-23.086578369140625 stress="0.0001779681333573535 -1.2536208515712133e-08 -2.241963947824388e-09 -1.2536208515712133e-08 0.00017797821783460677 4.895178928876476e-09 -2.241963947824388e-09 4.895178928876476e-09 0.0001779822341632098" pbc="T T T"
Sb       2.23463471       1.58012482       3.87050173      -0.00000001      -0.00000149       0.00000203
Sb       6.70390449       4.74037646      11.61150198       0.00000086       0.00000103      -0.00000421
Rh      -0.00000020      -0.00000025      -0.00000005       0.00000217       0.00000313      -0.00000258
I        2.18839170       1.54742645       7.74100171      -0.00089968      -0.00063590      -0.00000105
I        6.75014747       4.77307508       7.74100233       0.00089626       0.00063439       0.00000215
I        5.60970834       1.54742640       5.76570395       0.00044903      -0.00063686      -0.00077807
I        3.32883069       4.77307531       9.71630038      -0.00044966       0.00063688       0.00077881
I        3.32883057       4.77307497       5.76570385      -0.00044976       0.00063538      -0.00077722
I        5.60970852       1.54742672       9.71630013       0.00045078      -0.00063662       0.00078016
