9
Lattice="5.423491563471915 -9.987633425003614e-08 3.1312543868214204 1.8078304509199181 5.113317035551531 3.1312543453787747 -6.7827925304495195e-09 -5.55528627510108e-08 6.262508785390986" Properties=species:S:1:pos:R:3:forces:R:3 energy=-39.47196578979492 free_energy=-39.47196578979492 stress="-0.00019409028755035251 -2.7141613401227005e-08 5.274442926861411e-08 -2.7141613401227005e-08 -0.00019401870667934418 4.8232191574015815e-08 5.274442926861411e-08 4.8232191574015815e-08 -0.00019405815692152828" pbc="T T T"
Sb       1.80782976       1.27832912       3.13125430      -0.00000668      -0.00000169      -0.00000083
Sb       5.42349077       3.83498851       9.39376130      -0.00000510       0.00000512      -0.00001442
Rh      -0.00000020      -0.00000001      -0.00000000       0.00000274       0.00000286      -0.00000340
S        1.89063225       1.33687770       6.26250892       0.00124305       0.00087237       0.00000077
S        5.34069040       3.77643871       6.26250967      -0.00124246      -0.00087792       0.00000770
S        4.47817604       1.33687804       4.76858999      -0.00061619       0.00087243       0.00107843
S        2.75314664       3.77643820       7.75642829       0.00062236      -0.00087348      -0.00106937
S        2.75314612       3.77643826       4.76858951       0.00061926      -0.00087616       0.00107384
S        4.47817632       1.33687906       7.75642813      -0.00061697       0.00087634      -0.00107253
