9
Lattice="6.50482978322892 -3.5711828120971353e-08 3.7555652620244953 2.168276653459268 6.132812043635557 3.755565101430406 4.3932920556175294e-08 -1.6562152060170884e-07 7.511130447954969" Properties=species:S:1:pos:R:3:forces:R:3 energy=-26.235546112060547 free_energy=-26.235546112060547 stress="-0.00021167164959479123 5.321664886537292e-08 -2.4433792766842544e-09 5.321664886537292e-08 -0.0002116855321219191 1.1964803370290156e-08 -2.4433792766842544e-09 1.1964803370290156e-08 -0.00021170834952499717" pbc="T T T"
Sb       2.16827686       1.53320411       3.75556547       0.00000126       0.00000344       0.00000237
Sb       6.50483284       4.59960974      11.26669632       0.00000915       0.00000359       0.00000103
Ru      -0.00000033      -0.00000011      -0.00000049       0.00000029      -0.00000036       0.00000769
Br       2.03803386       1.44110752       7.51113024       0.00039653       0.00028191      -0.00000048
Br       6.63507192       4.69170384       7.51113015      -0.00039844      -0.00028277      -0.00000051
Br       5.48581233       1.44110731       5.52055437      -0.00020048       0.00027997       0.00034591
Br       3.18729243       4.69170432       9.50170632       0.00019849      -0.00028647      -0.00035094
Br       3.18729323       4.69170387       5.52055453       0.00019585      -0.00028294       0.00034503
Br       5.48581277       1.44110675       9.50170634      -0.00020272       0.00028363      -0.00035022
