9
Lattice="4.822094902895128 3.5118313700729176e-08 2.7840375389771714 1.607364931158215 4.546315300620962 2.7840376594991167 -5.877161681961133e-07 -2.6796948441476204e-07 5.568076095908565" Properties=species:S:1:pos:R:3:forces:R:3 energy=-39.60895919799805 free_energy=-39.60895919799805 stress="0.0006329682073555887 -1.1165938929025288e-07 1.0653021718098898e-06 -1.1165938929025288e-07 0.0006325685535557568 6.850218028375821e-07 1.0653021718098898e-06 6.850218028375821e-07 0.0006323661655187607" pbc="T T T"
Sb       1.60735108       1.13658045       2.78405983      -0.00020884       0.00002711       0.00036403
Sb       4.82208963       3.40973747       8.35208806      -0.00005782       0.00001677      -0.00041676
Ru       0.00000069       0.00000005      -0.00000025       0.00000680       0.00000035       0.00001074
F        1.67727582       1.18601120       5.56806663      -0.00063932      -0.00048070      -0.00015722
F        4.75218764       3.36029888       5.56808624       0.00069346       0.00040777       0.00018074
F        3.98345639       1.18600850       4.23660322       0.00030703      -0.00053764      -0.00052386
F        2.44601007       3.36030680       6.89955169      -0.00019503       0.00053846       0.00057472
F        2.44599852       3.36029985       4.23660078      -0.00040039       0.00041557      -0.00056546
F        3.98346719       1.18601704       6.89954883       0.00049416      -0.00038777       0.00053294
