9
Lattice="5.692886809492866 -4.243231150396172e-08 3.286789737892599 1.8976288989069268 5.367305408406216 3.2867897337099907 1.7132634076832616e-08 6.991916634529347e-09 6.573579446110602" Properties=species:S:1:pos:R:3:forces:R:3 energy=-38.29375076293945 free_energy=-38.29375076293945 stress="-0.0001951158046722412 -1.6901761767940116e-08 3.108393542561316e-08 -1.6901761767940116e-08 -0.0001951242593349889 -1.2478210464905715e-08 3.108393542561316e-08 -1.2478210464905715e-08 -0.0001950790174305439" pbc="T T T"
Sb       1.89762901       1.34182751       3.28678989      -0.00000101       0.00000825      -0.00000072
Sb       5.69288693       4.02547816       9.86036819      -0.00000107      -0.00000847      -0.00000782
Ru       0.00000010       0.00000011       0.00000050      -0.00000035      -0.00000177      -0.00000414
Se       1.97636591       1.39750262       6.57357913       0.00231180       0.00163636      -0.00000148
Se       5.61414940       3.96980244       6.57358001      -0.00230604      -0.00163507       0.00000467
Se       4.70470368       1.39750225       4.99837316      -0.00115689       0.00163503       0.00200054
Se       2.88581240       3.96980273       8.14878561       0.00115481      -0.00163285      -0.00199571
Se       2.88581193       3.96980291       4.99837328       0.00115224      -0.00163399       0.00199814
Se       4.70470353       1.39750282       8.14878593      -0.00115373       0.00163254      -0.00199357
