9
Lattice="4.799004756676523 -6.801294175258504e-08 2.770706510070068 1.5996682030763458 4.524544522235481 2.7707064841342652 -2.547023974104108e-07 -2.118665551776558e-07 5.541413461297651" Properties=species:S:1:pos:R:3:forces:R:3 energy=-38.610107421875 free_energy=-38.610107421875 stress="0.0005981752183288336 -4.282840748714989e-08 3.718192260748765e-07 -4.282840748714989e-08 0.0005984929739497602 1.2784528280462837e-07 3.718192260748765e-07 1.2784528280462837e-07 0.0005981146241538227" pbc="T T T"
Sb       1.59966647       1.13113148       2.77071224      -0.00002147      -0.00005400       0.00006896
Sb       4.79900528       3.39341157       8.31211395       0.00001330       0.00004309      -0.00007271
Rh       0.00000012       0.00000004       0.00000022       0.00000324      -0.00000301       0.00000632
F        1.65867617       1.17285964       5.54141048      -0.00088726      -0.00064365      -0.00003495
F        4.73999647       3.35168481       5.54141632       0.00088489       0.00064538       0.00003634
F        3.96966537       1.17285825       4.20716293       0.00042949      -0.00066257      -0.00076023
F        2.42900776       3.35168641       6.87566342      -0.00042432       0.00066624       0.00075857
F        2.42900478       3.35168426       4.20716276      -0.00046641       0.00064068      -0.00076088
F        3.96966847       1.17286035       6.87566339       0.00046830      -0.00063208       0.00075890
