9
Lattice="5.490116164910609 -8.65564347709019e-08 3.1697199943630197 1.8300386751912046 5.176131454527298 3.169719933463196 -8.321155523375818e-08 -1.334261743073368e-07 6.339440132852664" Properties=species:S:1:pos:R:3:forces:R:3 energy=-31.740991592407227 free_energy=-31.740991592407227 stress="-0.00010372581164119765 -1.579333996915011e-08 9.960402991282535e-08 -1.579333996915011e-08 -0.00010387438669567928 1.0789225513008205e-07 9.960402991282535e-08 1.0789225513008205e-07 -0.0001038708069245331" pbc="T T T"
Sb       1.83003856       1.29403343       3.16972482       0.00000224       0.00000599       0.00006673
Sb       5.49011736       3.88209914       9.50915586       0.00001847       0.00001288      -0.00005865
Se      -0.00000007       0.00000012       0.00000016       0.00000184       0.00000180      -0.00000289
S        1.87630306       1.32674589       6.33943827      -0.00336070      -0.00237703      -0.00003469
S        5.44385211       3.84938496       6.33944330       0.00335865       0.00237283       0.00003648
S        4.55196325       1.32674569       4.79464543       0.00165935      -0.00238906      -0.00290717
S        2.76818963       3.84938505       7.88423363      -0.00167938       0.00238787       0.00290586
S        2.76818956       3.84938426       4.79464552      -0.00169723       0.00235678      -0.00290647
S        4.55196558       1.32674646       7.88423329       0.00169665      -0.00237191       0.00290087
