9
Lattice="6.463619067871457 -3.792352189388504e-07 3.731771776346318 2.154539011818608 6.093958870999597 3.7317723304734702 -3.4657805788304865e-07 4.335966676021909e-07 7.463544152983536" Properties=species:S:1:pos:R:3:forces:R:3 energy=-25.538524627685547 free_energy=-25.538524627685547 stress="-8.988787953967403e-07 5.1464411399138044e-08 -6.04096257461606e-08 5.1464411399138044e-08 -1.0572130122454837e-06 -2.5183096497016777e-08 -6.04096257461606e-08 -2.5183096497016777e-08 -8.147496828314615e-07" pbc="T T T"
Sb       2.15452324       1.52347578       3.73177942      -0.00003618      -0.00002765       0.00001313
Sb       6.46361239       4.57047543      11.19531163      -0.00001687       0.00000809      -0.00000717
Sn       0.00000176       0.00000012      -0.00000048       0.00000136       0.00000273       0.00000176
Cl       2.02935643       1.43496876       7.46354287      -0.00000291      -0.00001119      -0.00000465
Cl       6.58880514       4.65898964       7.46354643       0.00001835       0.00001241       0.00000220
Cl       5.44894626       1.43497098       5.48924373       0.00001371      -0.00000762      -0.00000582
Cl       3.16921962       4.65899327       9.43784267       0.00000430       0.00001609       0.00000566
Cl       3.16921855       4.65899199       5.48924520       0.00000115       0.00001438      -0.00000737
Cl       5.44894751       1.43496974       9.43784154       0.00001701      -0.00000718       0.00000235
