9
Lattice="6.264794340110668 -3.950949622260354e-07 3.6169802769152324 2.0882645867332768 5.906504813374632 3.6169799665395703 -3.959010572719445e-07 -6.600753773668665e-07 7.233961239551309" Properties=species:S:1:pos:R:3:forces:R:3 energy=-31.929487228393555 free_energy=-31.929487228393555 stress="0.00018064540927298367 -1.7363699811312472e-08 2.8307251653814092e-08 -1.7363699811312472e-08 0.00018054926476906985 -1.6754384546402434e-08 2.8307251653814092e-08 -1.6754384546402434e-08 0.0001805071806302294" pbc="T T T"
Sb       2.08828374       1.47660764       3.61697783       0.00007445      -0.00007832      -0.00000868
Sb       6.26480112       4.42986087      10.85094067       0.00003545      -0.00007172      -0.00000416
Sc      -0.00000133       0.00000171      -0.00000041      -0.00001000       0.00000715       0.00000313
Cl       2.02989427       1.43536143       7.23396235       0.00038627       0.00031075       0.00000549
Cl       6.32315107       4.47115737       7.23396128      -0.00042140      -0.00024593      -0.00000076
Cl       5.24984103       1.43535977       5.37492058      -0.00022101       0.00030795       0.00033915
Cl       3.10321259       4.47115370       9.09299495       0.00019054      -0.00026965      -0.00035734
Cl       3.10321113       4.47115238       5.37492747       0.00018760      -0.00026598       0.00035541
Cl       5.24984048       1.43536023       9.09300113      -0.00022198       0.00030577      -0.00033224
