9
Lattice="6.993695186391938 -1.4271253803810435e-08 4.037811793714448 2.33123179856039 6.593719016841057 4.037811649576294 6.403176488799932e-08 -1.3125511872036478e-07 8.075623476522644" Properties=species:S:1:pos:R:3:forces:R:3 energy=-19.38824462890625 free_energy=-19.38824462890625 stress="7.44752396713011e-05 3.620749566835002e-08 8.67851923658236e-09 3.620749566835002e-08 7.447307871188968e-05 1.2089711454166263e-08 8.67851923658236e-09 1.2089711454166263e-08 7.446500967489555e-05" pbc="T T T"
Sb       2.33123263       1.64842919       4.03781175       0.00000471       0.00000024       0.00000004
Sb       6.99369440       4.94528896      12.11343411      -0.00000526      -0.00000119      -0.00000295
Sn       0.00000004       0.00000002       0.00000003      -0.00000096      -0.00000054      -0.00000196
I        2.42181917       1.71248495       8.07562356       0.00060765       0.00042909      -0.00000006
I        6.90310781       4.88123420       8.07562388      -0.00060743      -0.00042823       0.00000200
I        5.78278549       1.71248486       6.13516869      -0.00030483       0.00042915       0.00052626
I        3.54214170       4.88123412      10.01607837       0.00030500      -0.00042871      -0.00052522
I        3.54214135       4.88123431       6.13516879       0.00030465      -0.00043000       0.00052622
I        5.78278561       1.71248492      10.01607847      -0.00030363       0.00043018      -0.00052439
