9
Lattice="4.488097491286938 -7.76449271453568e-08 2.59120427864331 1.4960324248093895 4.2314188232713414 2.5912042770531674 -9.568783620426253e-08 -6.960902985983822e-08 5.182408723022812" Properties=species:S:1:pos:R:3:forces:R:3 energy=-49.20543670654297 free_energy=-49.20543670654297 stress="-0.00013245486479718238 -5.5117382657954295e-08 5.091289168035473e-08 -5.5117382657954295e-08 -0.00013243842113297433 3.1736032468643316e-08 5.091289168035473e-08 3.1736032468643316e-08 -0.00013261103595141321" pbc="T T T"
Sb       1.49603230       1.05785524       2.59120409      -0.00000004       0.00000468      -0.00000269
Sb       4.48809705       3.17356366       7.77361372      -0.00000274      -0.00000151       0.00000822
S       -0.00000015      -0.00000004       0.00000005       0.00000514       0.00000216       0.00000029
O        1.35963786       0.96140912       5.18240901       0.00285590       0.00202328      -0.00000032
O        4.62449202       3.27000935       5.18240827      -0.00285518      -0.00202173      -0.00000246
O        3.80827864       0.96140942       3.76868495      -0.00142556       0.00202006       0.00247383
O        2.17585116       3.27000939       6.59613217       0.00142658      -0.00202453      -0.00247741
O        2.17585180       3.27000960       3.76868499       0.00142449      -0.00201851       0.00247324
O        3.80827836       0.96140903       6.59613181      -0.00142741       0.00201672      -0.00247180
