9
Lattice="6.768161264894569 -4.177162018392933e-07 3.9075998238450085 2.256054109111953 6.381083094026505 3.9075985283165315 1.9504282496864e-06 -2.075308674899831e-07 7.81519626944928" Properties=species:S:1:pos:R:3:forces:R:3 energy=-18.558086395263672 free_energy=-18.558086395263672 stress="-6.571161065949127e-05 1.4400457715169068e-08 -1.2037362218109138e-08 1.4400457715169068e-08 -6.573890277650207e-05 -1.98482403845901e-08 -1.2037362218109138e-08 -1.98482403845901e-08 -6.570713594555855e-05" pbc="T T T"
Sb       2.25605125       1.59526756       3.90759457      -0.00000731      -0.00000660      -0.00002001
Sb       6.76816311       4.78581610      11.72278287      -0.00000320       0.00000943      -0.00003572
Se       0.00000012      -0.00000033       0.00000112       0.00000130      -0.00000014       0.00000318
Br       2.15358873       1.52281352       7.81519944       0.00034836       0.00023916       0.00000594
Br       6.87062820       4.85826800       7.81520187      -0.00034472      -0.00024232       0.00001811
Br       5.69137151       1.52281344       5.77266042      -0.00017225       0.00023651       0.00031415
Br       3.33285040       4.85826780       9.85773879       0.00018201      -0.00024457      -0.00029647
Br       3.33284690       4.85826824       5.77266139       0.00016627      -0.00023851       0.00030786
Br       5.69136908       1.52281558       9.85773804      -0.00017041       0.00024701      -0.00029698
