9
Lattice="6.406268295377507 5.638344833237578e-10 3.698660718960229 2.1354227675211854 6.0398877075477015 3.6986607157320632 -2.0823662636116598e-08 -1.867823452097459e-08 7.39732147398808" Properties=species:S:1:pos:R:3:forces:R:3 energy=-27.652881622314453 free_energy=-27.652881622314453 stress="1.1119263945147395e-05 -2.448647062891496e-09 1.0670755834496504e-08 -2.448647062891496e-09 1.1125645869469736e-05 -6.774738992021412e-09 1.0670755834496504e-08 -6.774738992021412e-09 1.1120349881821312e-05" pbc="T T T"
Sb       2.13542256       1.50997250       3.69866040      -0.00000219       0.00000555      -0.00000286
Sb       6.40626780       4.52991439      11.09598375      -0.00000259      -0.00000873       0.00000841
Sn      -0.00000005       0.00000015      -0.00000026       0.00000003      -0.00000003       0.00000096
Te       2.34619476       1.65901093       7.39732176      -0.00034648      -0.00024179       0.00000152
Te       6.19549618       4.38087716       7.39732066       0.00034718       0.00024321      -0.00000297
Te       5.23317142       1.65901125       5.73052456       0.00017633      -0.00023989      -0.00030198
Te       3.30851987       4.38087697       9.06411807      -0.00017355       0.00024063       0.00030000
Te       3.30852057       4.38087717       5.73052485      -0.00017176       0.00024461      -0.00030279
Te       5.23317103       1.65901024       9.06411783       0.00017304      -0.00024357       0.00029970
