9
Lattice="6.762151351414664 -5.087196012911002e-08 3.9041298925029215 2.254050459416869 6.3754172826157856 3.904129793935633 1.1877416972027215e-08 -1.1232121667449783e-07 7.808259764433539" Properties=species:S:1:pos:R:3:forces:R:3 energy=-16.9615535736084 free_energy=-16.9615535736084 stress="0.00012607146345544606 -1.562703566548862e-08 2.965287126954763e-09 -1.562703566548862e-08 0.00012608908582478762 7.928205647544928e-09 2.965287126954763e-09 7.928205647544928e-09 0.00012610778503585607" pbc="T T T"
Sb       2.25405079       1.59385464       3.90412979       0.00000128       0.00000205       0.00000034
Sb       6.76215133       4.78156300      11.71238757      -0.00000044      -0.00000026      -0.00000848
S        0.00000021       0.00000003       0.00000018       0.00000030       0.00000040      -0.00000063
I        2.37635154       1.68033415       7.80825970      -0.00122029      -0.00086302       0.00000023
I        6.63985020       4.69508286       7.80826049       0.00122029       0.00086223       0.00000310
I        5.57397533       1.68033387       5.96211117       0.00060984      -0.00086443      -0.00105593
I        3.44222647       4.69508285       9.65440902      -0.00060967       0.00086237       0.00105852
I        3.44222584       4.69508267       5.96211083      -0.00061175       0.00086211      -0.00105585
I        5.57397562       1.68033443       9.65440906       0.00061043      -0.00086153       0.00105876
