9
Lattice="7.081978225679376 1.4274098072278813e-08 4.08878198279026 2.360659418062017 6.676952968120472 4.088781989641449 2.5962590011449183e-08 2.6749277095447222e-08 8.177563920611954" Properties=species:S:1:pos:R:3:forces:R:3 energy=-25.43866729736328 free_energy=-25.43866729736328 stress="-8.205751510104164e-05 2.8590860789989847e-09 -3.298132433826595e-09 2.8590860789989847e-09 -8.204297046177089e-05 9.394271138774002e-09 -3.298132433826595e-09 9.394271138774002e-09 -8.206180791603401e-05" pbc="T T T"
Sb       2.36065968       1.66923995       4.08878114       0.00000195       0.00000490      -0.00000004
Sb       7.08197821       5.00771322      12.26634842      -0.00000152      -0.00000511       0.00000494
Sc       0.00000006      -0.00000033      -0.00000024      -0.00000020       0.00000437       0.00000139
I        2.33262693       1.64941625       8.17756389       0.00291304       0.00206268       0.00000079
I        7.11001065       5.02753688       8.17756334      -0.00291470      -0.00206336      -0.00000190
I        5.91566486       1.64941666       6.10889585      -0.00145512       0.00206089       0.00252225
I        3.52697260       5.02753643      10.24623184       0.00145599      -0.00206298      -0.00252649
I        3.52697322       5.02753682       6.10889575       0.00145789      -0.00206191       0.00252364
I        5.91566445       1.64941620      10.24623157      -0.00145730       0.00206050      -0.00252449
