9
Lattice="6.64960471156141 2.2340693675108597e-07 3.8391516022155714 2.2165352412838364 6.269307122646481 3.839151382591663 6.430627858256565e-07 1.8573075688738112e-07 7.678302090613793" Properties=species:S:1:pos:R:3:forces:R:3 energy=-21.752099990844727 free_energy=-21.752099990844727 stress="-5.1613063988042995e-05 -7.869336293708784e-09 -1.9453532118518524e-08 -7.869336293708784e-09 -5.160329965292476e-05 -2.9225799558219023e-09 -1.9453532118518524e-08 -2.9225799558219023e-09 -5.1633705879794434e-05" pbc="T T T"
Sb       2.21653725       1.56732536       3.83915113       0.00000609      -0.00000535      -0.00000423
Sb       6.64960490       4.70197846      11.51745023      -0.00000003      -0.00000796      -0.00001024
Sn      -0.00000006       0.00000042      -0.00000020      -0.00000133       0.00000013      -0.00000029
Br       2.16734242       1.53254311       7.67830264       0.00050272       0.00035965      -0.00000013
Br       6.69879772       4.73676575       7.67830431      -0.00050617      -0.00035388       0.00000569
Br       5.56593370       1.53254262       5.71612471      -0.00025516       0.00035880       0.00043679
Br       3.30020712       4.73676558       9.64048116       0.00025502      -0.00035544      -0.00043540
Br       3.30020597       4.73676588       5.71612506       0.00025161      -0.00035623       0.00043986
Br       5.56593338       1.53254294       9.64048122      -0.00025276       0.00036028      -0.00043200
