9
Lattice="6.512904990221536 4.846976764914117e-07 3.7602275150910427 2.1709687500777766 6.140426526825214 3.7602275791309006 1.5005887908828414e-07 1.845400734948213e-07 7.520454770272452" Properties=species:S:1:pos:R:3:forces:R:3 energy=-21.499914169311523 free_energy=-21.499914169311523 stress="1.7691929315333255e-05 6.406992714147464e-09 3.812093041233311e-08 6.406992714147464e-09 1.7389998902217485e-05 4.598926039989237e-08 3.812093041233311e-08 4.598926039989237e-08 1.766610330378171e-05" pbc="T T T"
Sb       2.17097752       1.53510015       3.76022148       0.00002517      -0.00001231      -0.00001264
Sb       6.51291638       4.60534163      11.28068828       0.00002744       0.00005040       0.00001281
Se      -0.00000186      -0.00000144       0.00000019      -0.00000571      -0.00000343      -0.00000185
Cl       2.03934724       1.44203148       7.52045843      -0.00510458      -0.00361863       0.00000439
Cl       6.64452449       4.69839218       7.52045441       0.00510035       0.00361550      -0.00000371
Cl       5.49322795       1.44203141       5.52635253       0.00254111      -0.00362148      -0.00441615
Cl       3.19063791       4.69839234       9.51455633      -0.00256316       0.00360672       0.00441563
Cl       3.19063906       4.69839423       5.52635163      -0.00255571       0.00360707      -0.00441069
Cl       5.49322692       1.44202687       9.51455621       0.00253510      -0.00362383       0.00441220
