9
Lattice="6.203147472500184 1.106568777440917e-09 3.5813886620220803 2.0677158848497443 5.848383351852271 3.581388558722992 1.5258029177813497e-07 -1.862443399222415e-08 7.1627770597673495" Properties=species:S:1:pos:R:3:forces:R:3 energy=-29.140106201171875 free_energy=-29.140106201171875 stress="-1.0589766361590591e-06 4.523421637259162e-09 -3.762173905741406e-10 4.523421637259162e-09 -1.067081825567584e-06 -9.680491075414466e-09 -3.762173905741406e-10 -9.680491075414466e-09 -1.0520594742047251e-06" pbc="T T T"
Sb       2.06771831       1.46209534       3.58138808       0.00001724      -0.00000314      -0.00000368
Sb       6.20314483       4.38628654      10.74416407      -0.00001778      -0.00000460      -0.00000784
Si       0.00000002      -0.00000005      -0.00000004      -0.00000009      -0.00000019       0.00000063
Te       2.14380821       1.51590077       7.16277724      -0.00055040      -0.00039273       0.00000186
Te       6.12705526       4.33248298       7.16277758       0.00055028       0.00039484       0.00000250
Te       5.13124293       1.51590126       5.43797990       0.00027100      -0.00038817      -0.00048205
Te       3.13962142       4.33248252       8.88757496      -0.00026835       0.00038938       0.00048377
Te       3.13962030       4.33248219       5.43798012      -0.00027297       0.00039027      -0.00048003
Te       5.13124276       1.51590181       8.88757520       0.00027100      -0.00038560       0.00048491
