9
Lattice="5.623949386049609 3.4652651852687684e-08 3.2469885575923976 1.8746498309895936 5.302310028870395 3.2469885524500826 7.204503070189857e-08 4.464554454508869e-08 6.493976990399125" Properties=species:S:1:pos:R:3:forces:R:3 energy=-33.93740463256836 free_energy=-33.93740463256836 stress="9.187193791149184e-05 4.6918678719976015e-08 1.6515720346887974e-08 4.6918678719976015e-08 9.185398084810004e-05 -1.6902494959225578e-09 1.6515720346887974e-08 -1.6902494959225578e-09 9.18396472116001e-05" pbc="T T T"
Sb       1.87465410       1.32557652       3.24698830       0.00003625      -0.00000996      -0.00000134
Sb       5.62395199       3.97673402       9.74096725       0.00002012       0.00001344       0.00001170
Si      -0.00000008      -0.00000004       0.00000000      -0.00000790       0.00000160      -0.00000103
Se       1.92199642       1.35905682       6.49397690      -0.00252749      -0.00178321       0.00000011
Se       5.57660165       3.94325388       6.49397622       0.00252229       0.00179696      -0.00000553
Se       4.66294952       1.35905655       4.91148587       0.00124942      -0.00178843      -0.00219278
Se       2.83564721       3.94325342       8.07646731      -0.00126996       0.00178196       0.00218076
Se       2.83564710       3.94325338       4.91148678      -0.00127053       0.00178330      -0.00218329
Se       4.66294926       1.35905592       8.07646773       0.00124776      -0.00179549       0.00219136
