9
Lattice="5.851194357469123 1.7586322885593092e-07 3.378188820383123 1.9503982332229732 5.516558924403553 3.3781889099973954 8.4055810804279e-08 1.691910603375932e-07 6.756377495177327" Properties=species:S:1:pos:R:3:forces:R:3 energy=-30.838659286499023 free_energy=-30.838659286499023 stress="-3.1152692827163264e-05 4.998201408312752e-09 -1.161627061208037e-08 4.998201408312752e-09 -3.101698530372232e-05 3.37975798458956e-08 -1.161627061208037e-08 3.37975798458956e-08 -3.107415614067577e-05" pbc="T T T"
Sb       1.95039627       1.37913739       3.37818962      -0.00001612      -0.00002030       0.00000697
Sb       5.85119568       4.13742072      10.13456761       0.00001221       0.00001154       0.00000379
Sn      -0.00000007      -0.00000022       0.00000005       0.00000136      -0.00000300      -0.00000462
Se       2.11850462       1.49800873       6.75637734      -0.00007547      -0.00005618      -0.00000331
Se       5.68308783       4.01855106       6.75637728       0.00007360       0.00005616      -0.00000673
Se       4.79194267       1.49800890       5.21286770       0.00004081      -0.00005483      -0.00005841
Se       3.00965073       4.01855081       8.29988617      -0.00004400       0.00006873       0.00006216
Se       3.00965010       4.01855054       5.21286844      -0.00003949       0.00005823      -0.00005931
Se       4.79194290       1.49800913       8.29988666       0.00004680      -0.00006049       0.00005946
