9
Lattice="6.379029128387946 0.40245222838773614 4.022693996799244 2.8232874231960805 8.163036215727507 3.7999251830308562 2.106327519667727 0.7226564957031304 5.0132984627402655" Properties=species:S:1:pos:R:3:forces:R:3 energy=-41.07406997680664 free_energy=-41.07406997680664 stress="0.00010798551375046372 0.0011040401877835393 0.0003625539829954505 0.0011040401877835393 -0.0001596080546732992 4.382721454021521e-05 0.0003625539829954505 4.382721454021521e-05 0.0007718798005953431" pbc="T T T"
Sb       3.21006276       3.43263636       3.71853547      -0.02511768      -0.01513153       0.03154206
Sb      10.42322100       7.53012098       9.62831919       0.02394262       0.01204288      -0.03145494
S       -0.35093938      -0.08155204      -1.01636293       0.02507013       0.00917798      -0.03848882
F        4.17047801       5.77005433       7.02121753       0.02634440      -0.00999418      -0.00921346
F        7.74531862       4.21772795       8.49821117      -0.01558729      -0.00460432       0.03400165
F        3.70037007       2.82248689       5.51232917      -0.00454351      -0.00830115      -0.00563261
F        6.06679635       6.71517357       5.24894404      -0.00521272       0.00509639       0.00472548
F        3.68433669       5.34405825       4.34483837      -0.02631735       0.00370192       0.02175935
F        6.58495737       1.40189505       8.38770192       0.00142139       0.00801182      -0.00723875
