9
Lattice="5.622505052505819 -0.2815621798411316 3.8413167774885966 0.950852600488838 4.346295042615416 5.1407984702187575 -0.5776024001295681 1.0506216167959468 8.063349698219472" Properties=species:S:1:pos:R:3:forces:R:3 energy=-40.25251007080078 free_energy=-40.25251007080078 stress="-0.0005590436048805714 -3.3929380151676014e-05 2.109932029270567e-05 -3.3929380151676014e-05 -0.0003621634969022125 6.282592948991805e-05 2.109932029270567e-05 6.282592948991805e-05 -0.0003324311983305961" pbc="T T T"
Sb       0.58631166       1.33838526       4.78038018      -0.00214612       0.01482180      -0.01146644
Sb       4.69632836       3.62504132      11.55674599       0.00022532       0.00395945      -0.00178230
Se       1.28575727      -0.49569776       0.45295298       0.00161134       0.00198009      -0.00057384
F        1.70188563       0.61483638       6.66644111      -0.00132081      -0.00591239       0.00255948
F        4.52617466       4.64750788       9.88043128       0.00260333      -0.00021207       0.00152561
F        4.47884173       1.08889626       7.24381835       0.00081711      -0.00336707       0.00094935
F        0.65029687       3.95178615      10.33275869      -0.00305042      -0.01079431       0.00654651
F        1.16509284       3.77500075       7.38273549      -0.00162810       0.00498735      -0.00250900
F        4.89231813       1.91565925       9.88557488       0.00288826      -0.00546273       0.00475065
