9
Lattice="6.547232728524796 6.102072917442551e-07 3.780048189802901 2.1824115699819933 6.172789212039672 3.7800480422932847 1.9842527187798992e-06 1.2224168187123365e-06 7.560092942779198" Properties=species:S:1:pos:R:3:forces:R:3 energy=-18.297075271606445 free_energy=-18.297075271606445 stress="-0.0001194892538478598 -1.731122623027659e-08 -1.9894494940331242e-08 -1.731122623027659e-08 -0.00011945340520469472 -1.6237093447557527e-08 -1.9894494940331242e-08 -1.6237093447557527e-08 -0.0001194983851746656" pbc="T T T"
Sb       2.18240763       1.54319517       3.78003453      -0.00002101      -0.00002129      -0.00005393
Sb       6.54722193       4.62957388      11.34015494      -0.00006059      -0.00008579       0.00005358
S        0.00000135       0.00000134      -0.00000024       0.00000204       0.00000497       0.00000071
Br       2.17968350       1.54127039       7.56009890      -0.00204369      -0.00142573       0.00002528
Br       6.54996514       4.63152361       7.56008992       0.00204305       0.00144416      -0.00002557
Br       5.45739679       1.54127633       5.66770409       0.00104984      -0.00139888      -0.00178333
Br       3.27225664       4.63152377       9.45248302      -0.00100875       0.00144152       0.00177392
Br       3.27225804       4.63152581       5.66770798      -0.00098745       0.00146009      -0.00177133
Br       5.45739414       1.54127381       9.45248345       0.00102654      -0.00141906       0.00178067
