9
Lattice="5.576332424309501 1.4467709231565094e-07 3.219497200028022 1.8587776403069345 5.2574165399025965 3.2194971495660294 2.372710314424336e-07 1.0597291200118199e-07 6.438993989090537" Properties=species:S:1:pos:R:3:forces:R:3 energy=-33.68583679199219 free_energy=-33.68583679199219 stress="-0.00030181146576069295 -6.2097589292875455e-09 -1.0818766327247431e-07 -6.2097589292875455e-09 -0.0003017931885551661 -2.015377553732378e-08 -1.0818766327247431e-07 -2.015377553732378e-08 -0.0003017695853486657" pbc="T T T"
Sb       1.85877736       1.31435365       3.21949603      -0.00000214      -0.00000939      -0.00002070
Sb       5.57633483       3.94306292       9.65849253       0.00002942       0.00000762       0.00001073
Sn       0.00000006      -0.00000003       0.00000002       0.00000201      -0.00000229      -0.00000419
S        1.99019153       1.40727897       6.43899429      -0.00478442      -0.00337096       0.00000629
S        5.44491869       3.85013797       6.43899373       0.00477913       0.00337420      -0.00000385
S        4.58123692       1.40727794       4.94305423       0.00238878      -0.00337946      -0.00413181
S        2.85387290       3.85013864       7.93493362      -0.00240054       0.00338186       0.00413497
S        2.85387349       3.85013967       4.94305489      -0.00239243       0.00338654      -0.00412810
S        4.58123546       1.40727736       7.93493411       0.00238024      -0.00338802       0.00413698
