9
Lattice="5.335476930973074 -4.3716194431897243e-07 3.0804385915579915 1.7784918382116262 5.030337172535743 3.0804386953988154 -1.2985237017742741e-06 -7.910164541367784e-07 6.1608794322251095" Properties=species:S:1:pos:R:3:forces:R:3 energy=-44.76070022583008 free_energy=-44.76070022583008 stress="-5.348624085854681e-07 7.846562510849253e-09 2.923034116975032e-07 7.846562510849253e-09 -7.217340112219972e-07 1.774103566276608e-07 2.923034116975032e-07 1.774103566276608e-07 -5.797975290988688e-07" pbc="T T T"
Sb       1.77850994       1.25763981       3.08051149       0.00009314       0.00033986       0.00048591
Sb       5.33551536       3.77275299       9.24120805       0.00023746      -0.00001592      -0.00069743
Sc       0.00000156       0.00000138      -0.00000091       0.00001379       0.00001081      -0.00000427
F        1.65749928       1.17203971       6.16085342      -0.00000453       0.00006387      -0.00017759
F        5.45647027       3.85829097       6.16092174       0.00002412      -0.00009432       0.00028567
F        4.50669353       1.17200731       4.51588505      -0.00019558      -0.00013428       0.00004736
F        2.60724829       3.85829430       7.80588510       0.00004513      -0.00006406       0.00002640
F        2.60719735       3.85827179       4.51588332      -0.00027125      -0.00021160       0.00003092
F        4.50673439       1.17204541       7.80587950       0.00005782       0.00010563       0.00000308
