9
Lattice="4.535009824589366 3.1243347871898805e-07 2.618289114154473 1.5116702285067836 4.275648584774896 2.6182891272974587 7.266004989687987e-08 6.747521351600631e-08 5.236578102458062" Properties=species:S:1:pos:R:3:forces:R:3 energy=-53.12698745727539 free_energy=-53.12698745727539 stress="-6.086822395445779e-05 1.9895698244454252e-07 8.458727762672424e-08 1.9895698244454252e-07 -6.090906754252501e-05 -8.153958930279259e-08 8.458727762672424e-08 -8.153958930279259e-08 -6.120517355157062e-05" pbc="T T T"
Sb       1.51167083       1.06891185       2.61828935       0.00000194       0.00000579      -0.00000093
Sb       4.53500963       3.20673760       7.85486575       0.00000037       0.00000670      -0.00001937
Si      -0.00000007       0.00000018      -0.00000211       0.00000296      -0.00000444       0.00006582
O        1.44718294       1.02331244       5.23657776       0.00179553       0.00126028       0.00000512
O        4.59949776       3.25233592       5.23657862      -0.00179636      -0.00126171       0.00000853
O        3.81141851       1.02331296       3.87158574      -0.00089812       0.00125539       0.00154603
O        2.23526093       3.25233753       6.60157242       0.00092214      -0.00129318      -0.00157821
O        2.23526042       3.25233527       3.87158618       0.00088626      -0.00125945       0.00154984
O        3.81142012       1.02331190       6.60157175      -0.00091422       0.00129044      -0.00157690
