9
Lattice="6.908789352335988 6.29027192279655e-08 3.9887913433092446 2.3029298287285034 6.513668956227729 3.988791368750924 1.3321828831236396e-08 4.057947993537713e-08 7.977582663544383" Properties=species:S:1:pos:R:3:forces:R:3 energy=-17.054079055786133 free_energy=-17.054079055786133 stress="0.00022657320369035006 3.3234162089001984e-08 3.2358642432228635e-09 3.3234162089001984e-08 0.00022654076747130603 2.748478777903074e-09 3.2358642432228635e-09 2.748478777903074e-09 0.00022653385531157255" pbc="T T T"
Sb       2.30292959       1.62841701       3.98879198       0.00000105       0.00000043       0.00000067
Sb       6.90878995       4.88525242      11.96637396       0.00000166       0.00000199       0.00000247
Se       0.00000013       0.00000003      -0.00000007      -0.00000123      -0.00000077       0.00000069
I        2.39035881       1.69023871       7.97758258      -0.00426380      -0.00301603      -0.00000067
I        6.82136029       4.82343028       7.97758261       0.00426435       0.00301541      -0.00000083
I        5.71360989       1.69023878       6.05890267       0.00213167      -0.00301570      -0.00369259
I        3.49810921       4.82343020       9.89626254      -0.00213321       0.00301554       0.00369139
I        3.49810911       4.82343015       6.05890270      -0.00213247       0.00301548      -0.00369266
I        5.71360982       1.69023867       9.89626255       0.00213195      -0.00301635       0.00369149
