9
Lattice="5.412920069058924 -1.5511174677604888e-07 3.125150748871463 1.804306563753448 5.103350290496007 3.1251507136970886 -1.47257403453706e-07 -1.4720632589182536e-07 6.250301752800271" Properties=species:S:1:pos:R:3:forces:R:3 energy=-37.252357482910156 free_energy=-37.252357482910156 stress="-5.728967153117992e-05 2.5844766327054458e-08 5.5364754558695495e-08 2.5844766327054458e-08 -5.7191355153918266e-05 3.183828312103287e-08 5.5364754558695495e-08 3.183828312103287e-08 -5.7196273701265454e-05" pbc="T T T"
Sb       1.80430575       1.27583631       3.12514903      -0.00001129      -0.00001178      -0.00001828
Sb       5.41292254       3.82751185       9.37545583       0.00002662      -0.00000257       0.00003367
Si      -0.00000012      -0.00000017       0.00000008      -0.00000125       0.00000291      -0.00000042
S        1.81471977       1.28320189       6.25030234       0.00094092       0.00067678       0.00000680
S        5.40250584       3.82014953       6.25029985      -0.00094917      -0.00066662      -0.00001503
S        4.50556037       1.28320173       4.69674507      -0.00046514       0.00067362       0.00081757
S        2.71166565       3.82014866       7.80385784       0.00046150      -0.00067136      -0.00082648
S        2.71166669       3.82015001       4.69674541       0.00047280      -0.00066161       0.00082582
S        4.50555939       1.28320015       7.80385737      -0.00047487       0.00066042      -0.00082365
