9
Lattice="6.396672350924679 4.6535477811345216e-07 3.6931231102089095 2.1322251455783165 6.030839898041552 3.693122088536601 1.4454307821112222e-06 -2.2921394827254415e-07 7.386243716858321" Properties=species:S:1:pos:R:3:forces:R:3 energy=-20.972938537597656 free_energy=-20.972938537597656 stress="-6.913847028044984e-05 1.2337116217508992e-08 -1.2130533377785468e-07 1.2337116217508992e-08 -6.899795698700473e-05 -4.464133951387339e-08 -1.2130533377785468e-07 -4.464133951387339e-08 -6.90895612933673e-05" pbc="T T T"
Sb       2.13221135       1.50772291       3.69313518      -0.00004947       0.00004620       0.00004457
Sb       6.39666869       4.52313241      11.07936062      -0.00001883       0.00001180      -0.00001819
S        0.00000235      -0.00000182      -0.00000117       0.00000684      -0.00000441      -0.00000161
Cl       2.04865957       1.44861729       7.38624109      -0.00599049      -0.00424735      -0.00001638
Cl       6.48024781       4.58221477       7.38624886       0.00601141       0.00421555       0.00000789
Cl       5.37234470       1.44861743       5.46730794       0.00299956      -0.00423975      -0.00519009
Cl       3.15655491       4.58222128       9.30517987      -0.00298335       0.00423303       0.00519660
Cl       3.15655356       4.58221927       5.46731190      -0.00299800       0.00422822      -0.00520138
Cl       5.37235301       1.44861702       9.30517136       0.00302234      -0.00424330       0.00517857
