9
Lattice="5.702261346129976 5.007224074143932e-07 3.292202346934479 1.9007541997712083 5.376143591562588 3.2922024410847777 2.1038293638107874e-07 2.6407328245398716e-07 6.584404329475093" Properties=species:S:1:pos:R:3:forces:R:3 energy=-38.260318756103516 free_energy=-38.260318756103516 stress="-0.00011069568427046761 -2.086281591928696e-09 2.7860831863790736e-08 -2.086281591928696e-09 -0.0001106781346607022 7.7983823842942e-09 2.7860831863790736e-08 7.7983823842942e-09 -0.00011068527965107933" pbc="T T T"
Sb       1.90075535       1.34403460       3.29220303       0.00001440      -0.00001406       0.00000506
Sb       5.70226165       4.03211161       9.87660335      -0.00000410       0.00003045      -0.00003498
Ti      -0.00000014      -0.00000023      -0.00000028      -0.00000088       0.00000039       0.00000268
Se       1.97826766       1.39884459       6.58440493       0.00594272       0.00418467       0.00000103
Se       5.62474807       3.97729882       6.58440593      -0.00593811      -0.00418875       0.00001309
Se       4.71312734       1.39884530       5.00543182      -0.00297791       0.00418150       0.00514318
Se       2.88988829       3.97729868       8.16337807       0.00297573      -0.00419329      -0.00513740
Se       2.88988682       3.97729747       5.00543221       0.00295874      -0.00419527       0.00514413
Se       4.71312797       1.39884654       8.16337743      -0.00297067       0.00419422      -0.00513686
