9
Lattice="6.218178529364491 3.6290465388197266e-08 3.5900670733944664 2.072726177880014 5.862554899661112 3.5900671301880496 -1.7502269999493617e-08 5.7181689699260386e-08 7.180134177103682" Properties=species:S:1:pos:R:3:forces:R:3 energy=-34.140708923339844 free_energy=-34.140708923339844 stress="-4.510316557571059e-06 -1.9700523878896092e-08 -1.4956217375683423e-09 -1.9700523878896092e-08 -4.491536856221501e-06 2.5249804469495984e-09 -1.4956217375683423e-09 2.5249804469495984e-09 -4.476788944884902e-06" pbc="T T T"
Sb       2.07272601       1.46563880       3.59006707      -0.00000032      -0.00000102      -0.00000021
Sb       6.21817874       4.39691609      10.77020128      -0.00000001      -0.00000118       0.00000107
Ti      -0.00000029      -0.00000026       0.00000007       0.00000276       0.00000334      -0.00000138
Te       2.17229920       1.53604753       7.18013421      -0.00147626      -0.00104269      -0.00000014
Te       6.11860547       4.32650772       7.18013412       0.00147443       0.00104201      -0.00000110
Te       5.13202897       1.53604756       5.47133365       0.00073848      -0.00104244      -0.00127804
Te       3.15887593       4.32650736       8.88893465      -0.00073987       0.00104397       0.00127812
Te       3.15887582       4.32650750       5.47133374      -0.00073794       0.00104258      -0.00127773
Te       5.13202891       1.53604767       8.88893468       0.00073877      -0.00104463       0.00127929
