9
Lattice="5.766629538099684 -1.0697770823406274e-08 3.329365038987717 1.9222097675099972 5.43683041159552 3.3293651575246233 -8.863880659951875e-08 8.250035869432906e-08 6.658730231502367" Properties=species:S:1:pos:R:3:forces:R:3 energy=-41.53703689575195 free_energy=-41.53703689575195 stress="1.6112706362036988e-05 2.1130407645841842e-08 1.759526035982617e-08 2.1130407645841842e-08 1.616663212189451e-05 2.2475701300095352e-08 1.759526035982617e-08 2.2475701300095352e-08 1.6164220141945407e-05" pbc="T T T"
Sb       1.92220881       1.35920617       3.32936561      -0.00000913      -0.00001134       0.00000426
Sb       5.76662946       4.07762362       9.98809496       0.00000361       0.00000768       0.00000062
Ta      -0.00000018       0.00000001       0.00000026       0.00000153       0.00000070      -0.00000639
Se       2.02461883       1.43162135       6.65873024      -0.00059542      -0.00042912      -0.00000143
Se       5.66422085       4.00520922       6.65873026       0.00059226       0.00042261      -0.00000190
Se       4.75432039       1.43162157       5.08273668       0.00029787      -0.00042248      -0.00051300
Se       2.93451913       4.00520933       8.23472352      -0.00029889       0.00043260       0.00051661
Se       2.93451883       4.00520891       5.08273669      -0.00029623       0.00042403      -0.00051540
Se       4.75432075       1.43162171       8.23472348       0.00030444      -0.00042491       0.00051667
