9
Lattice="6.286349694348782 -2.669946069920083e-09 3.629425608949137 2.0954499418777024 5.926827433107388 3.6294255287921016 -1.671588795785588e-08 -1.0999180118478761e-07 7.258851246850961" Properties=species:S:1:pos:R:3:forces:R:3 energy=-37.35597610473633 free_energy=-37.35597610473633 stress="-1.5243776942952536e-05 1.5421495191958456e-08 -1.1452256032384867e-08 1.5421495191958456e-08 -1.5265726688085124e-05 1.3677755816843273e-08 -1.1452256032384867e-08 1.3677755816843273e-08 -1.526637061033398e-05" pbc="T T T"
Sb       2.09545030       1.48170693       3.62942558       0.00000286       0.00000161      -0.00000152
Sb       6.28634951       4.44512080      10.88827610      -0.00000250       0.00000101      -0.00000354
Ta      -0.00000002      -0.00000018      -0.00000065      -0.00000082       0.00000143       0.00000559
Te       2.21292621       1.56477472       7.25885133      -0.00288518      -0.00204119       0.00000153
Te       6.16887363       4.36205240       7.25885143       0.00288424       0.00203972       0.00000188
Te       5.17988633       1.56477511       5.54587572       0.00144190      -0.00204152      -0.00249805
Te       3.20191295       4.36205250       8.97182711      -0.00143922       0.00203623       0.00249553
Te       3.20191280       4.36205221       5.54587576      -0.00144184       0.00203882      -0.00249624
Te       5.17988678       1.56477481       8.97182711       0.00144062      -0.00203612       0.00249487
