9
Lattice="6.038615287454503 1.0276782077161545e-06 3.4864023888282056 2.0128724466545114 5.693263499646701 3.486402882003191 2.627135574563528e-07 7.897800110188738e-07 6.972804322623162" Properties=species:S:1:pos:R:3:forces:R:3 energy=-49.572776794433594 free_energy=-49.572776794433594 stress="-0.00024221700732596219 2.173180604359004e-07 -6.239078231828898e-08 2.173180604359004e-07 -0.00024243576626759022 -9.132308065318284e-08 -6.239078231828898e-08 -9.132308065318284e-08 -0.00024135409330483526" pbc="T T T"
Sb       2.01277409       1.42333142       3.48643271      -0.00003121       0.00000913       0.00000717
Sb       6.03862064       4.27006633      10.45918512       0.00000125       0.00004010      -0.00000765
Ta       0.00000578      -0.00000560      -0.00000226       0.00001295       0.00002231       0.00010082
F        1.56545505       1.10690379       6.97279660       0.00149709       0.00106150       0.00000602
F        6.48607619       4.58630915       6.97280845      -0.00153804      -0.00108981      -0.00000561
F        5.25591080       1.10689794       4.84213262      -0.00073788       0.00106299       0.00124544
F        2.79559515       4.58632949       9.10350212       0.00079650      -0.00112385      -0.00133109
F        2.79559690       4.58632524       4.84210570       0.00077239      -0.00107741       0.00127625
F        5.25591690       1.10690291       9.10347711      -0.00077307       0.00109488      -0.00129151
