9
Lattice="6.6939896140005475 2.3313389723671828e-07 3.864780279093674 2.2313303314298594 6.311156984561321 3.8647798628894448 6.576654288762524e-07 -4.470405437378264e-08 7.729559419077008" Properties=species:S:1:pos:R:3:forces:R:3 energy=-36.03995895385742 free_energy=-36.03995895385742 stress="0.00016472925199195743 6.11983637099911e-08 -8.20982819504934e-08 6.11983637099911e-08 0.0001647846365813166 6.682851250161548e-08 -8.20982819504934e-08 6.682851250161548e-08 0.00016470678383484483" pbc="T T T"
Sb       2.23131699       1.57777520       3.86474334      -0.00000953      -0.00000632      -0.00002712
Sb       6.69398305       4.73337800      11.59431274      -0.00000731       0.00000322      -0.00002411
Ta       0.00000183       0.00000076       0.00000566       0.00000710       0.00000124       0.00000624
Cl       1.93125756       1.36560493       7.72956800      -0.00260091      -0.00184834       0.00001448
Cl       6.99406959       4.94555072       7.72956809       0.00259784       0.00184469       0.00000662
Cl       5.72836708       1.36560197       5.53730634       0.00130521      -0.00184518      -0.00224617
Cl       3.19696375       4.94555147       9.92183395      -0.00129598       0.00184374       0.00225917
Cl       3.19695603       4.94555705       5.53730554      -0.00128892       0.00184144      -0.00223596
Cl       5.72836656       1.36560862       9.92183451       0.00129247      -0.00183436       0.00224686
