9
Lattice="5.769917110395936 3.441505946458036e-08 3.33126362435025 1.9233057160157763 5.439930714231942 3.331263658811814 -3.2088600932418443e-07 -1.8469421883519515e-07 6.662527804491458" Properties=species:S:1:pos:R:3:forces:R:3 energy=-28.89977264404297 free_energy=-28.89977264404297 stress="-0.0003144873189739883 -3.735937781357279e-08 2.6008322606685397e-07 -3.735937781357279e-08 -0.0003145950904581696 1.9171200449363823e-07 2.6008322606685397e-07 1.9171200449363823e-07 -0.0003146544040646404" pbc="T T T"
Sb       1.92330253       1.35998307       3.33126744      -0.00002840       0.00000134       0.00003935
Sb       5.76991732       4.07994740       9.99378283       0.00000574      -0.00000228      -0.00008929
Te      -0.00000001       0.00000000       0.00000001       0.00000242      -0.00000083      -0.00000219
Se       2.20767607       1.56106221       6.66252537      -0.00338982      -0.00239696      -0.00001954
Se       5.48554749       3.87886789       6.66253209       0.00339458       0.00238894       0.00004019
Se       4.66607914       1.56106060       5.24316770       0.00169405      -0.00241011      -0.00292341
Se       3.02714523       3.87886818       8.08188833      -0.00168219       0.00240561       0.00294304
Se       3.02714106       3.87886847       5.24316833      -0.00171378       0.00239374      -0.00292465
Se       4.66608123       1.56106449       8.08188822       0.00171757      -0.00237949       0.00293635
