9
Lattice="6.720854179566666 4.439574652544037e-08 3.880288239964984 2.2402847694349637 6.336479074575445 3.8802882381358783 1.3352470466647778e-06 9.419220665948535e-07 7.760574167214163" Properties=species:S:1:pos:R:3:forces:R:3 energy=-28.129955291748047 free_energy=-28.129955291748047 stress="-0.00013416486035566777 -5.9399155816208804e-08 -1.0632755476081002e-07 -5.9399155816208804e-08 -0.00013381027383729815 -5.256820756471825e-08 -1.0632755476081002e-07 -5.256820756471825e-08 -0.00013411325926426798" pbc="T T T"
Sb       2.24030111       1.58413618       3.88029991       0.00005326       0.00004109       0.00003255
Sb       6.72087164       4.75234901      11.64085933       0.00004973      -0.00002497      -0.00000723
Ti      -0.00000153      -0.00000034      -0.00000026      -0.00000137       0.00000210      -0.00000509
Br       2.06179471       1.45791592       7.76057213      -0.00288898      -0.00201676      -0.00001351
Br       6.89933894       4.87856577       7.76057758       0.00286435       0.00202422      -0.00000016
Br       5.68994688       1.45791297       5.66585507       0.00141549      -0.00203226      -0.00250433
Br       3.27118160       4.87856385       9.85529038      -0.00146016       0.00202858       0.00249249
Br       3.27117603       4.87856148       5.66585649      -0.00146192       0.00201109      -0.00249239
Br       5.68995172       1.45791537       9.85529204       0.00142949      -0.00203315       0.00249778
