9
Lattice="7.173510478162786 8.472955656073013e-08 4.141628263882887 2.3911701750431464 6.763250713623158 4.141628375129577 3.3298468271801354e-08 1.597944035878673e-07 8.283256470091233" Properties=species:S:1:pos:R:3:forces:R:3 energy=-25.685279846191406 free_energy=-25.685279846191406 stress="-2.0807570763281547e-05 -1.0869466215979173e-08 -5.377363443415106e-09 -1.0869466215979173e-08 -2.080548983940389e-05 6.347876113643736e-10 -5.377363443415106e-09 6.347876113643736e-10 -2.0785260858247057e-05" pbc="T T T"
Sb       2.39117067       1.69081319       4.14162805       0.00000132       0.00000094       0.00000049
Sb       7.17351060       5.07243945      12.42488352      -0.00000035       0.00000229      -0.00000239
Ti      -0.00000016      -0.00000017      -0.00000035       0.00000013      -0.00000032       0.00000425
I        2.21041466       1.56299888       8.28325662      -0.00162441      -0.00114981       0.00000028
I        7.35426634       5.20025174       8.28325694       0.00162411       0.00114849       0.00000065
I        6.06830285       1.56299891       6.05590417       0.00081342      -0.00115091      -0.00140921
I        3.49637740       5.20025158      10.51060960      -0.00081248       0.00114808       0.00140797
I        3.49637744       5.20025143       6.05590445      -0.00081353       0.00114990      -0.00140949
I        6.06830288       1.56299888      10.51060946       0.00081179      -0.00114861       0.00140749
