9
Lattice="5.659642136109572 -3.2928336641326063e-07 3.267595486254694 1.8865471490252772 5.335961635626954 3.2675953463510474 -1.2702192107704116e-07 -2.611643843315337e-07 6.535191192517808" Properties=species:S:1:pos:R:3:forces:R:3 energy=-30.665019989013672 free_energy=-30.665019989013672 stress="-9.413442603545263e-05 -1.4365638456581564e-08 1.8916826149961707e-07 -1.4365638456581564e-08 -9.401543502463028e-05 -4.553617571900759e-08 1.8916826149961707e-07 -4.553617571900759e-08 -9.403446892974898e-05" pbc="T T T"
Sb       1.88653914       1.33398436       3.26760047      -0.00011492      -0.00007898       0.00005312
Sb       5.65964239       4.00197083       9.80280562       0.00001385       0.00000010       0.00026381
Te      -0.00000022      -0.00000013      -0.00000007      -0.00000743      -0.00000348       0.00001416
S        1.95710858       1.38388544       6.53518815      -0.00401112      -0.00283217      -0.00003687
S        5.58908057       3.95207506       6.53518179       0.00401387       0.00283051      -0.00012867
S        4.68109043       1.38388941       4.96249971       0.00204611      -0.00277701      -0.00348851
S        2.86509887       3.95207952       8.10787578      -0.00204560       0.00288615       0.00340500
S        2.86510704       3.95207859       4.96250101      -0.00193913       0.00286964      -0.00349072
S        4.68108990       1.38388113       8.10787565       0.00204426      -0.00289464       0.00340894
