9
Lattice="7.036025445860707 1.2182550062849935e-07 4.062252759126151 2.3453423948161136 6.633626582474664 4.062251954292395 1.2750053919938825e-06 -8.415110614748655e-08 8.124503309878191" Properties=species:S:1:pos:R:3:forces:R:3 energy=-31.908344268798828 free_energy=-31.908344268798828 stress="-3.0079252610448748e-05 -4.35639684326361e-08 -3.577782692332221e-08 -4.35639684326361e-08 -3.0094532121438533e-05 -3.449748220418769e-08 -3.577782692332221e-08 -3.449748220418769e-08 -3.0183193302946165e-05" pbc="T T T"
Sb       2.34534640       1.65840789       4.06228732       0.00000284       0.00000072       0.00004052
Sb       7.03601406       4.97521334      12.18677442      -0.00001379      -0.00000688       0.00002499
Ta       0.00000079       0.00000053      -0.00000442       0.00000309       0.00000336       0.00000072
Br       2.06403955       1.45949387       8.12449200      -0.00540286      -0.00382072      -0.00001512
Br       7.31733156       5.17413453       8.12449739       0.00539908       0.00381795      -0.00001045
Br       6.00400606       1.45949654       5.84975267       0.00270019      -0.00381553      -0.00468969
Br       3.37736269       5.17413541      10.39924027      -0.00269717       0.00382188       0.00466803
Br       3.37736426       5.17412908       5.84975023      -0.00269653       0.00381634      -0.00468969
Br       6.00401096       1.45949531      10.39924243       0.00270518      -0.00381713       0.00467061
