9
Lattice="4.661641066823746 1.4117047424884625e-08 2.691399698567662 1.5538803552065383 4.395037388681246 2.6913997223159205 -1.9262042731099555e-08 1.5465241555832215e-08 5.382799430498148" Properties=species:S:1:pos:R:3:forces:R:3 energy=-47.263153076171875 free_energy=-47.263153076171875 stress="0.0003929979866370559 -6.2739773376563335e-09 4.228535388506316e-08 -6.2739773376563335e-09 0.0003929621016141027 -3.554985195108884e-09 4.228535388506316e-08 -3.554985195108884e-09 0.0003930459206458181" pbc="T T T"
Sb       1.55387998       1.09875962       2.69139923      -0.00000340       0.00000154      -0.00000465
Sb       4.66164139       3.29627780       8.07419977       0.00000374      -0.00000090       0.00000724
Te      -0.00000010       0.00000005      -0.00000027       0.00000303       0.00000777       0.00000192
O        1.55209924       1.09750005       5.38279979      -0.00407347      -0.00287706       0.00000037
O        4.66342234       3.29753751       5.38279911       0.00406817       0.00287455      -0.00000206
O        3.88559170       1.09750004       4.03555702       0.00203685      -0.00287613      -0.00352389
O        2.32992958       3.29753722       6.73004194      -0.00203612       0.00287297       0.00351951
O        2.32992997       3.29753762       4.03555703      -0.00203598       0.00287724      -0.00352243
O        3.88559150       1.09749974       6.73004167       0.00203721      -0.00288016       0.00352430
