9
Lattice="5.7024457705007405 -8.391930355014781e-07 3.292307549828706 1.900814141248274 5.3763163942831556 3.2923081116828774 -2.737760458158646e-07 4.945388681960522e-07 6.584615573851723" Properties=species:S:1:pos:R:3:forces:R:3 energy=-45.190040588378906 free_energy=-45.190040588378906 stress="0.0001183101485366933 3.7027234611741733e-07 -3.164976547509468e-08 3.7027234611741733e-07 0.00011901040852535516 -6.643683292395508e-08 -3.164976547509468e-08 -6.643683292395508e-08 0.00011954868386965245" pbc="T T T"
Sb       1.90073796       1.34408630       3.29228993      -0.00016299       0.00001263      -0.00003861
Sb       5.70245424       4.03222686       9.87689689       0.00001914      -0.00001930      -0.00005598
Ti       0.00000255      -0.00000017       0.00000198       0.00001364       0.00000079      -0.00000090
F        1.55814784       1.10177333       6.58461971      -0.00022241      -0.00016807       0.00001322
F        6.04512403       4.27453487       6.58462686       0.00026184       0.00016251       0.00002010
F        4.92340069       1.10177270       4.64171662       0.00015351      -0.00016662      -0.00018951
F        2.67989238       4.27454194       8.52753497      -0.00010727       0.00017110       0.00022508
F        2.67988808       4.27454867       4.64170938      -0.00010769       0.00017539      -0.00019808
F        4.92339080       1.10177951       8.52752873       0.00015238      -0.00016853       0.00022461
