9
Lattice="7.200594546674499 1.2031537171163468e-07 4.1572652986579905 2.4001983505510833 6.788785649363511 4.157265203582541 1.1287555727999414e-07 -3.662812445670535e-08 8.314530401809789" Properties=species:S:1:pos:R:3:forces:R:3 energy=-28.725553512573242 free_energy=-28.725553512573242 stress="-1.2218776646477636e-05 8.981166921273598e-09 8.11384648358171e-09 8.981166921273598e-09 -1.222836635861313e-05 2.975534929561263e-09 8.11384648358171e-09 2.975534929561263e-09 -1.2232286280777771e-05" pbc="T T T"
Sb       2.40019938       1.69719688       4.15726544       0.00000007      -0.00000034       0.00000064
Sb       7.20059373       5.09158870      12.47179508       0.00000029       0.00000000      -0.00000070
Ta      -0.00000008       0.00000013       0.00000012       0.00000080       0.00000010      -0.00000068
I        2.25108101       1.59175496       8.31453042       0.00018096       0.00012772      -0.00000022
I        7.34971196       5.19703092       8.31453059      -0.00018150      -0.00012858       0.00000027
I        6.07505430       1.59175468       6.10675827      -0.00009154       0.00012926       0.00015820
I        3.52573873       5.19703102      10.52230247       0.00009095      -0.00012851      -0.00015714
I        3.52573882       5.19703103       6.10675859       0.00009080      -0.00012859       0.00015710
I        6.07505422       1.59175464      10.52230267      -0.00009089       0.00012892      -0.00015752
