9
Lattice="4.58547303384055 -1.287624289900987e-07 2.6474241796071047 1.5284909338875967 4.323225567878673 2.647424103386854 -1.399200732312439e-07 -1.9228881799130577e-07 5.2948486015628955" Properties=species:S:1:pos:R:3:forces:R:3 energy=-55.084678649902344 free_energy=-55.084678649902344 stress="2.5939272745745257e-05 -3.0209275081460873e-08 -1.0664686556083325e-07 -3.0209275081460873e-08 2.5822793759289198e-05 -1.499468140764293e-07 -1.0664686556083325e-07 -1.499468140764293e-07 2.603492066555191e-05" pbc="T T T"
Sb       1.52849702       1.08080974       2.64742135       0.00011252       0.00006141      -0.00004621
Sb       4.58547598       3.24241797       7.94227323       0.00005426      -0.00001335      -0.00000041
Ti      -0.00000001       0.00000022      -0.00000068       0.00001111       0.00000017       0.00000664
O        1.56516029       1.10673750       5.29485016      -0.00269639      -0.00187415       0.00003021
O        4.54880231       3.21648875       5.29484784       0.00266635       0.00189042      -0.00000561
O        3.80288960       1.10673591       4.00289302       0.00130081      -0.00189841      -0.00233078
O        2.31107014       3.21648723       6.58680400      -0.00136995       0.00185496       0.00233102
O        2.31107047       3.21648734       4.00289349      -0.00136548       0.00186968      -0.00232399
O        3.80288949       1.10673621       6.58680473       0.00128680      -0.00188994       0.00234038
