9
Lattice="6.142281507876362 -4.132268773631152e-09 3.546247923885363 2.047427194748734 5.790998505927921 3.5462478730452536 8.418269799445257e-08 -2.740028567376009e-09 7.092495701962054" Properties=species:S:1:pos:R:3:forces:R:3 energy=-34.4701042175293 free_energy=-34.4701042175293 stress="-6.537493027281016e-05 -5.413305359525111e-10 1.2350720446363539e-08 -5.413305359525111e-10 -6.535977445309982e-05 -1.536168170446217e-08 1.2350720446363539e-08 -1.536168170446217e-08 -6.539594323839992e-05" pbc="T T T"
Sb       2.04742673       1.44775054       3.54624838      -0.00000138       0.00000502       0.00000318
Sb       6.14228149       4.34324831      10.63874555      -0.00000101      -0.00000290       0.00000848
V       -0.00000008       0.00000018       0.00000042       0.00000074      -0.00000128      -0.00000159
Te       2.13130396       1.50705958       7.09249555      -0.00032840      -0.00023084      -0.00000158
Te       6.05840510       4.28393842       7.09249482       0.00032854       0.00022950      -0.00000308
Te       5.07662974       1.50706010       5.39201087       0.00016381      -0.00022872      -0.00028428
Te       3.11307892       4.28393883       8.79297975      -0.00016514       0.00023147       0.00028218
Te       3.11307971       4.28393854       5.39201091      -0.00016226       0.00023037      -0.00028626
Te       5.07662961       1.50705951       8.79297974       0.00016513      -0.00023278       0.00028295
