9
Lattice="5.425810146107797 -1.0327569093716677e-07 3.1325927903775725 1.8086033023785542 5.1155028675296235 3.1325927596996506 -2.832336633583904e-07 -2.3784911213323025e-07 6.26518607133024" Properties=species:S:1:pos:R:3:forces:R:3 energy=-41.878204345703125 free_energy=-41.878204345703125 stress="-0.00010006494994740933 -2.2959364187613573e-08 6.165477017816556e-09 -2.2959364187613573e-08 -9.999464236898348e-05 2.4949533994345074e-08 6.165477017816556e-09 2.4949533994345074e-08 -9.998597670346498e-05" pbc="T T T"
Sb       1.80860533       1.27887769       3.13259002       0.00003046       0.00002961      -0.00004015
Sb       5.42580875       3.83662927       9.39778277      -0.00001476       0.00002819       0.00005196
V       -0.00000019       0.00000023       0.00000058       0.00000124       0.00000043      -0.00000144
S        1.86390971       1.31798139       6.26518733      -0.00004265      -0.00004803       0.00001865
S        5.37050494       3.79751966       6.26518340       0.00004643       0.00002778      -0.00002444
S        4.49385506       1.31798246       4.74678587       0.00002418      -0.00003722      -0.00004542
S        2.74055692       3.79751826       7.78358582      -0.00003819       0.00002037       0.00005114
S        2.74055866       3.79751908       4.74678475      -0.00001298       0.00002934      -0.00005549
S        4.49385342       1.31798208       7.78358600       0.00000641      -0.00005059       0.00004548
