9
Lattice="6.879637015459514 2.9747167511819145e-07 3.971960030230878 2.2932125670636925 6.486184058908613 3.9719601200928643 -4.096558784375608e-08 8.10909196671501e-08 7.943920131416245" Properties=species:S:1:pos:R:3:forces:R:3 energy=-25.29947853088379 free_energy=-25.29947853088379 stress="6.74489710945636e-05 1.1616048567475445e-08 -3.2571678687531858e-09 1.1616048567475445e-08 6.745016435161233e-05 4.074167225809333e-09 -3.2571678687531858e-09 4.074167225809333e-09 6.744355778209865e-05" pbc="T T T"
Sb       2.29321208       1.62154715       3.97195918      -0.00000354       0.00000587      -0.00000293
Sb       6.87963736       4.86463681      11.91587953       0.00000298      -0.00000756      -0.00000266
V        0.00000011       0.00000001       0.00000052      -0.00000117       0.00000051      -0.00000417
I        2.17667404       1.53914140       7.94392047      -0.00208353      -0.00147234       0.00000080
I        6.99617541       4.94704291       7.94392037       0.00208434       0.00147370       0.00000044
I        5.79130027       1.53914143       5.85701535       0.00104075      -0.00147092      -0.00180356
I        3.38154953       4.94704280      10.03082515      -0.00104154       0.00147298       0.00180608
I        3.38154922       4.94704331       5.85701543      -0.00104092       0.00147105      -0.00180186
I        5.79130015       1.53914193      10.03082513       0.00104288      -0.00147328       0.00180773
