9
Lattice="6.391215224312746 1.009030397378012e-06 3.6899693762417725 2.130405939888012 6.025696903924435 3.6899695255547003 -1.2160230212929718e-06 -6.769876624803536e-07 7.37994085869705" Properties=species:S:1:pos:R:3:forces:R:3 energy=-31.500581741333008 free_energy=-31.500581741333008 stress="-1.3032933566137217e-05 3.455340236158122e-09 -2.2570812063804624e-07 3.455340236158122e-09 -1.3335786206880584e-05 -1.2987699449240608e-07 -2.2570812063804624e-07 -1.2987699449240608e-07 -1.3231205230113119e-05" pbc="T T T"
Sb       2.13040384       1.50642580       3.68997106      -0.00000848       0.00000721       0.00000083
Sb       6.39119993       4.51928686      11.06989165      -0.00002997       0.00003123      -0.00003951
V        0.00000143      -0.00000070       0.00000006      -0.00000015      -0.00000254       0.00002260
Cl       1.90816996       1.34927269       7.37993731       0.00004858       0.00002147       0.00000686
Cl       6.61345669       4.67641837       7.37994969      -0.00004211      -0.00003181       0.00000731
Cl       5.43713530       1.34927371       5.34249588      -0.00001313       0.00002551       0.00003885
Cl       3.08449033       4.67642063       9.41739447       0.00003682      -0.00004962      -0.00004706
Cl       3.08448920       4.67641680       5.34248739       0.00003801      -0.00003760       0.00004818
Cl       5.43713315       1.34927476       9.41739152      -0.00002956       0.00003625      -0.00003821
