9
Lattice="6.56396012478361 -7.443246743220755e-07 3.789703255309593 2.187986014576533 6.188559367222485 3.789703241329599 1.6985925215186965e-07 1.0298668695201165e-07 7.579406216414313" Properties=species:S:1:pos:R:3:forces:R:3 energy=-27.75989532470703 free_energy=-27.75989532470703 stress="-5.130815407028422e-05 6.16792306118441e-08 -1.811461558531846e-08 6.16792306118441e-08 -5.1184968469897285e-05 -4.204709469490808e-08 -1.811461558531846e-08 -4.204709469490808e-08 -5.105104355607182e-05" pbc="T T T"
Sb       2.18797127       1.54713821       3.78969900      -0.00005036      -0.00000589      -0.00001683
Sb       6.56396171       4.64141691      11.36910096       0.00000008      -0.00000757      -0.00003065
V        0.00000109       0.00000007       0.00000077      -0.00000240       0.00000056      -0.00000128
Br       2.03173620       1.43665377       7.57940844      -0.00087209      -0.00061473       0.00000756
Br       6.72021131       4.75190371       7.57940999       0.00088842       0.00061820       0.00001168
Br       5.54809705       1.43665299       5.54924273       0.00045656      -0.00062475      -0.00075005
Br       3.20385608       4.75190686       9.60957422      -0.00043570       0.00062604       0.00076520
Br       3.20385397       4.75190707       5.54924045      -0.00044078       0.00062681      -0.00075212
Br       5.54809654       1.43665528       9.60957421       0.00045630      -0.00061870       0.00076632
