9
Lattice="4.621009722245534 -3.3077939072544663e-08 2.667941237968397 1.5403365467734595 4.3567298180396445 2.6679412312518687 2.307790991896598e-08 8.09253811123179e-09 5.335882435964691" Properties=species:S:1:pos:R:3:forces:R:3 energy=-53.42139434814453 free_energy=-53.42139434814453 stress="6.46630724077113e-05 -7.427536274917657e-08 5.075851738922665e-09 -7.427536274917657e-08 6.463486352004111e-05 6.720950551653004e-08 5.075851738922665e-09 6.720950551653004e-08 6.457386916736141e-05" pbc="T T T"
Sb       1.54033930       1.08917998       2.66794194       0.00004395      -0.00003816       0.00001310
Sb       4.62100969       3.26754740       8.00382330       0.00000585      -0.00000324      -0.00000449
V        0.00000007      -0.00000028       0.00000021       0.00000544      -0.00000352      -0.00000248
O        1.53125234       1.08275853       5.33588210       0.00262403       0.00185794      -0.00000844
O        4.63009307       3.27397254       5.33588273      -0.00264418      -0.00183576       0.00000321
O        3.85538250       1.08275902       3.99404440      -0.00132993       0.00185502       0.00226140
O        2.30596289       3.27397133       6.67771980       0.00130871      -0.00184023      -0.00227290
O        2.30596276       3.27397132       3.99404476       0.00130874      -0.00184941       0.00227314
O        3.85538266       1.08275907       6.67772050      -0.00132266       0.00185764      -0.00226229
