9
Lattice="5.671140354495608 6.811702086674802e-08 3.2742343593253618 1.8903801931489967 5.346802358709203 3.274234340684278 -7.123924574671266e-08 -7.320438709335211e-08 6.548468842040752" Properties=species:S:1:pos:R:3:forces:R:3 energy=-38.48305130004883 free_energy=-38.48305130004883 stress="-0.0004333907272666693 9.144275558981008e-09 7.575552629646154e-09 9.144275558981008e-09 -0.00043341124546714127 -1.2689890027672845e-08 7.575552629646154e-09 -1.2689890027672845e-08 -0.00043343205470591784" pbc="T T T"
Sb       1.89037804       1.33670220       3.27423506      -0.00002041       0.00001405       0.00000624
Sb       5.67114010       4.01010168       9.82270469      -0.00000068       0.00000156       0.00001049
V        0.00000015      -0.00000006       0.00000007       0.00000018       0.00000127      -0.00000266
Se       1.94303152       1.37393072       6.54846833      -0.00073686      -0.00052156      -0.00000532
Se       5.61848961       3.97287055       6.54846791       0.00074259       0.00051250      -0.00000469
Se       4.69962534       1.37393020       4.95694925       0.00037317      -0.00051894      -0.00063366
Se       2.86189551       3.97287174       8.13998841      -0.00036994       0.00051926       0.00063482
Se       2.86189637       3.97287180       4.95694828      -0.00036238       0.00051444      -0.00063992
Se       4.69962525       1.37393064       8.13998816       0.00037408      -0.00052263       0.00063454
