9
Lattice="6.2386232465788645 5.9564510254644885e-08 3.6018707078199803 2.079541123650373 5.881830085885644 3.6018707332820963 -4.571510953831189e-08 -1.140839319483682e-09 7.203741494820843" Properties=species:S:1:pos:R:3:forces:R:3 energy=-37.31074142456055 free_energy=-37.31074142456055 stress="-1.0928856681857724e-05 3.9898274906136066e-08 8.754137970079512e-10 3.9898274906136066e-08 -1.09467991933343e-05 -2.4224919847881665e-09 8.754137970079512e-10 -2.4224919847881665e-09 -1.097824042517459e-05" pbc="T T T"
Sb       2.07954130       1.47045792       3.60187080       0.00000065       0.00000199      -0.00000014
Sb       6.23862333       4.41137241      10.80561235      -0.00000011      -0.00000235       0.00000087
W       -0.00000030      -0.00000020      -0.00000021       0.00000253       0.00000005      -0.00000161
Te       2.16890669       1.53364881       7.20374145       0.00045294       0.00032080      -0.00000008
Te       6.14925780       4.34818155       7.20374146      -0.00045557      -0.00032180      -0.00000044
Te       5.15416983       1.53364841       5.48019870      -0.00022956       0.00032525       0.00039724
Te       3.16399434       4.34818180       8.92728415       0.00022892      -0.00032370      -0.00039561
Te       3.16399442       4.34818156       5.48019878       0.00022983      -0.00032437       0.00039631
Te       5.15416989       1.53364832       8.92728427      -0.00022966       0.00032421      -0.00039654
