9
Lattice="5.79450847392996 9.55033290965206e-08 3.345461208791145 1.931502860174244 5.463115095467955 3.3454613032060454 -3.8286702424879444e-08 8.856137626598367e-08 6.690922483896815" Properties=species:S:1:pos:R:3:forces:R:3 energy=-41.689327239990234 free_energy=-41.689327239990234 stress="-0.0003341652627568692 -2.1859424492731705e-08 2.42062156985412e-08 -2.1859424492731705e-08 -0.0003342237905599177 -1.1100339314396024e-08 2.42062156985412e-08 -1.1100339314396024e-08 -0.0003341964620631188" pbc="T T T"
Sb       1.93150315       1.36577813       3.34546236       0.00000262      -0.00000490       0.00000564
Sb       5.79450721       4.09733508      10.03638328      -0.00000982      -0.00001274      -0.00000098
W       -0.00000022       0.00000051      -0.00000040       0.00000469      -0.00000674       0.00000612
Se       1.98844103       1.40604091       6.69092217      -0.00455679      -0.00321830      -0.00000232
Se       5.73756993       4.05707527       6.69092247       0.00455449       0.00322601       0.00000043
Se       4.80028791       1.40604063       5.06750159       0.00227777      -0.00322094      -0.00394977
Se       2.92572410       4.05707525       8.31434309      -0.00227176       0.00322444       0.00394864
Se       2.92572381       4.05707458       5.06750199      -0.00228032       0.00322758      -0.00395438
Se       4.80028826       1.40604075       8.31434344       0.00227896      -0.00321452       0.00394675
