9
Lattice="5.553991973498039 -5.1047745147434095e-08 3.2065990136758105 1.851330632625955 5.236353956356893 3.2065989739745793 1.5151788082498284e-07 5.85154135972774e-08 6.413197764914947" Properties=species:S:1:pos:R:3:forces:R:3 energy=-45.19050979614258 free_energy=-45.19050979614258 stress="-9.213522571371868e-05 -2.989326119973157e-08 -6.870327240449114e-08 -2.989326119973157e-08 -9.21889441087842e-05 -5.4267811577801695e-08 -6.870327240449114e-08 -5.4267811577801695e-08 -9.215207683155313e-05" pbc="T T T"
Sb       1.85133034       1.30908972       3.20659800      -0.00000470       0.00001543      -0.00000658
Sb       5.55399142       3.92726327       9.61979298      -0.00000926      -0.00002822      -0.00004091
W        0.00000022       0.00000013       0.00000050      -0.00000417      -0.00000204      -0.00000444
S        1.89921217       1.34294651       6.41319863      -0.00048985      -0.00033891       0.00000391
S        5.50611024       3.89340722       6.41319955       0.00049841       0.00034541       0.00001734
S        4.60438595       1.34294591       4.85136541       0.00024692      -0.00034506      -0.00042176
S        2.80093774       3.89340735       7.97503116      -0.00023801       0.00034223       0.00043390
S        2.80093667       3.89340803       4.85136537      -0.00024932       0.00034346      -0.00041967
S        4.60438622       1.34294774       7.97503141       0.00025008      -0.00033243       0.00043801
