9
Lattice="4.700207993928248 6.419532696673603e-08 2.7136664010295055 1.5667360341890062 4.431398601692551 2.7136664431373765 2.0919290159446567e-08 6.63635967375757e-08 5.427332765825729" Properties=species:S:1:pos:R:3:forces:R:3 energy=-54.116756439208984 free_energy=-54.116756439208984 stress="0.0007424431969411671 8.094247050394188e-09 6.780147554508176e-10 8.094247050394188e-09 0.0007425325457006693 5.07803044058619e-09 6.780147554508176e-10 5.07803044058619e-09 0.0007424536161124706" pbc="T T T"
Sb       1.56673556       1.10784869       2.71366614      -0.00001017      -0.00001802      -0.00000263
Sb       4.70020525       3.32355117       8.14100019      -0.00004668       0.00003635       0.00001303
W       -0.00000007      -0.00000005       0.00000016      -0.00000572       0.00000755       0.00000157
O        1.57717806       1.11523137       5.42733284      -0.00720972      -0.00512791      -0.00000165
O        4.68976685       3.31616642       5.42733228       0.00722229       0.00510913      -0.00000247
O        3.91161968       1.11523242       4.07954208       0.00361615      -0.00511438      -0.00625420
O        2.35532554       3.31616641       6.77512418      -0.00359237       0.00511163       0.00625592
O        2.35532618       3.31616664       4.07954136      -0.00358886       0.00511307      -0.00626069
O        3.91161914       1.11523200       6.77512330       0.00361493      -0.00511789       0.00625151
