9
Lattice="7.737293643992868 -3.142449382025227e-08 4.467128499778987 2.579097844164025 7.294790699182084 4.467128512837978 -1.8492662719707748e-07 -1.1476895164173669e-07 8.934257319860356" Properties=species:S:1:pos:R:3:forces:R:3 energy=-26.103836059570312 free_energy=-26.103836059570312 stress="-8.623584108136129e-06 -1.137648020232973e-08 -2.6143858189442426e-09 -1.137648020232973e-08 -8.603980859334115e-06 1.3158749645469925e-09 -2.6143858189442426e-09 1.3158749645469925e-09 -8.598636668466497e-06" pbc="T T T"
Sb       2.57909724       1.82369815       4.46713200      -0.00000047       0.00000116       0.00000369
Sb       7.73729531       5.47109349      13.40138409       0.00000198       0.00000084      -0.00000085
Y       -0.00000003      -0.00000024       0.00000005       0.00000030      -0.00000039      -0.00000393
I        2.46546350       1.74334658       8.93425638      -0.00135572      -0.00095899      -0.00000167
I        7.85092728       5.55144409       8.93425749       0.00135539       0.00095804       0.00000027
I        6.50456162       1.74334611       6.60228271       0.00067781      -0.00095958      -0.00117514
I        3.81182974       5.55144381      11.26623077      -0.00067966       0.00096162       0.00117674
I        3.81182915       5.55144397       6.60228304      -0.00067922       0.00095852      -0.00117488
I        6.50456143       1.74334628      11.26623078       0.00067962      -0.00096118       0.00117572
