9
Lattice="5.898123556456328 -1.3449150526931263e-07 3.4052828491707645 1.9660410810315312 5.560804788596157 3.4052828104664705 -4.39938613712184e-07 -3.584863852412594e-07 6.810566460337586" Properties=species:S:1:pos:R:3:forces:R:3 energy=-34.05495834350586 free_energy=-34.05495834350586 stress="-1.2595834050443955e-05 -1.0802094863038292e-07 4.4758849071513396e-08 -1.0802094863038292e-07 -1.2679420251515694e-05 6.546390807216085e-08 4.4758849071513396e-08 6.546390807216085e-08 -1.254896505997749e-05" pbc="T T T"
Sb       1.96603828       1.39020435       3.40528702      -0.00002933       0.00003457       0.00004209
Sb       5.89812366       4.17060108      10.21584514       0.00000589      -0.00002728      -0.00003870
Y       -0.00000006      -0.00000022      -0.00000046       0.00000120      -0.00000509       0.00001021
Se       2.16885688       1.53361561       6.81056509      -0.00039500      -0.00025767      -0.00002088
Se       5.69530770       4.02718736       6.81056762       0.00040635       0.00024650       0.00002355
Se       4.81369375       1.53361565       5.28356981       0.00019406      -0.00027481      -0.00034088
Se       3.05047167       4.02719032       8.33756190      -0.00018348       0.00028273       0.00033802
Se       3.05047001       4.02718826       5.28357025      -0.00021218       0.00026074      -0.00034508
Se       4.81369496       1.53361490       8.33756227       0.00021274      -0.00026029       0.00033167
