9
Lattice="6.542498641003819 -2.55436836990675e-08 3.777313316862174 2.1808328580527707 6.168326855301593 3.7773133137427526 8.71399169806229e-09 2.341215185700233e-09 7.554626618631262" Properties=species:S:1:pos:R:3:forces:R:3 energy=-31.70410919189453 free_energy=-31.70410919189453 stress="-8.026435534702614e-05 7.2844890119938555e-09 2.702943646681888e-09 7.2844890119938555e-09 -8.026652358239517e-05 1.3915922858487306e-09 2.702943646681888e-09 1.3915922858487306e-09 -8.024962880881503e-05" pbc="T T T"
Sb       2.18083355       1.54208034       3.77731374       0.00000365      -0.00001028       0.00000275
Sb       6.54249706       4.62624645      11.33194261      -0.00000754       0.00000876       0.00001608
Y        0.00000057       0.00000046       0.00000048      -0.00000099      -0.00000216      -0.00000239
Te       2.43688846       1.72313874       7.55462639      -0.00163707      -0.00116450      -0.00000018
Te       6.28644325       4.44518739       7.55462544       0.00164005       0.00116415      -0.00000535
Te       5.32405447       1.72313982       5.88771984       0.00081855      -0.00115900      -0.00142340
Te       3.39927661       4.44518744       9.22153230      -0.00082056       0.00116307       0.00141731
Te       3.39927791       4.44518749       5.88771948      -0.00081374       0.00116257      -0.00142366
Te       5.32405415       1.72313917       9.22153270       0.00081774      -0.00116266       0.00141881
