9
Lattice="5.435496050404034 -1.224199716182996e-07 3.1381862731187917 1.8118321273776943 5.1246345476530335 3.138185881684068 1.205704385616166e-06 3.7315397826735436e-07 6.276370457896145" Properties=species:S:1:pos:R:3:forces:R:3 energy=-44.93526077270508 free_energy=-44.93526077270508 stress="-7.312145316973329e-05 -1.233967736880004e-07 -7.263465136020386e-07 -1.233967736880004e-07 -7.414279389195144e-05 -5.038089057052275e-07 -7.263465136020386e-07 -5.038089057052275e-07 -7.349480438278988e-05" pbc="T T T"
Sb       1.81182558       1.28116173       3.13817142      -0.00003544       0.00002149      -0.00008237
Sb       5.43550241       3.84345473       9.41458948       0.00003131      -0.00010934       0.00016858
Y        0.00000023      -0.00000060       0.00000082      -0.00000127      -0.00000963       0.00000499
F        1.77171079       1.25279800       6.27637533       0.00293440       0.00214004       0.00003584
F        5.47561423       3.87184276       6.27635807      -0.00296040      -0.00210839      -0.00008718
F        4.54964833       1.25280457       4.67253008      -0.00142788       0.00217427       0.00254065
F        2.69768108       3.87184114       7.88020370       0.00142567      -0.00211363      -0.00258389
F        2.69769367       3.87184607       4.67253532       0.00151490      -0.00208677       0.00256881
F        4.54964118       1.25279080       7.88020590      -0.00148134       0.00209197      -0.00256537
