9
Lattice="6.6870556063980775 4.3486642396192186e-08 3.860773394585933 2.2290185924160504 6.304616300441897 3.860773366958954 -3.778613918093684e-08 -6.055482340961523e-08 7.721546854619309" Properties=species:S:1:pos:R:3:forces:R:3 energy=-28.583938598632812 free_energy=-28.583938598632812 stress="-0.00026637184782885015 1.9076420443298048e-08 3.3218312545102435e-09 1.9076420443298048e-08 -0.0002663729537744075 -1.1835188828968057e-08 3.3218312545102435e-09 -1.1835188828968057e-08 -0.0002663981285877526" pbc="T T T"
Sb       2.22901741       1.57615304       3.86077392      -0.00000005      -0.00000284       0.00000279
Sb       6.68705894       4.72846223      11.58232082       0.00001067      -0.00000191       0.00000395
Y        0.00000009      -0.00000014       0.00000038      -0.00000390       0.00000026      -0.00000451
Br       2.26508120       1.60165471       7.72154664       0.00151920       0.00107790      -0.00000085
Br       6.65099248       4.70296182       7.72154676      -0.00152010      -0.00107415      -0.00000189
Br       5.55451518       1.60165438       5.82239117      -0.00076181       0.00107865       0.00132138
Br       3.36155837       4.70296228       9.62070185       0.00075708      -0.00107566      -0.00132394
Br       3.36155810       4.70296259       5.82239155       0.00075906      -0.00107718       0.00132382
Br       5.55451485       1.60165420       9.62070144      -0.00076017       0.00107489      -0.00132072
