9
Lattice="5.616167522584625 -5.43311450230349e-08 3.242495847111291 1.8720558684245907 5.294973789220326 3.242495710648249 -2.131215582342251e-07 -3.178320884350257e-07 6.48499206335991" Properties=species:S:1:pos:R:3:forces:R:3 energy=-37.455074310302734 free_energy=-37.455074310302734 stress="3.3000519579218235e-06 6.245547012895258e-08 1.5276117437679204e-07 6.245547012895258e-08 3.424775513849454e-06 1.3150716071663737e-08 1.5276117437679204e-07 1.3150716071663737e-08 3.079102270930889e-06" pbc="T T T"
Sb       1.87205669       1.32373804       3.24249804       0.00001440      -0.00005526       0.00002153
Sb       5.61616781       3.97123292       9.72748403       0.00000587       0.00002867      -0.00004370
Y       -0.00000032       0.00000014      -0.00000031       0.00000921      -0.00000411       0.00000835
S        2.05298878       1.45168149       6.48499004      -0.00036389      -0.00027044      -0.00001642
S        5.43523368       3.84329401       6.48499298       0.00035062       0.00027648       0.00001589
S        4.58967326       1.45167992       5.02043608       0.00016788      -0.00027001      -0.00029786
S        2.89855130       3.84329274       7.94954770      -0.00016938       0.00027426       0.00031142
S        2.89854915       3.84329267       5.02043784      -0.00019261       0.00027508      -0.00030793
S        4.58967236       1.45168165       7.94954806       0.00017779      -0.00025409       0.00030863
