9
Lattice="4.808018856294072 9.809789208612018e-08 2.775911070258314 1.6026730415485229 4.533043662282721 2.7759110755186924 8.364532991128948e-08 6.558879498489731e-08 5.551821995638666" Properties=species:S:1:pos:R:3:forces:R:3 energy=-48.69324493408203 free_energy=-48.69324493408203 stress="0.00027800086536444724 4.171312539824612e-08 -7.03048215200397e-08 4.171312539824612e-08 0.0002780472859740257 2.5553859472893237e-08 -7.03048215200397e-08 2.5553859472893237e-08 0.00027765356935560703" pbc="T T T"
Sb       1.60267251       1.13326049       2.77591117      -0.00000449      -0.00000232       0.00000203
Sb       4.80801978       3.39978362       8.32773409       0.00000891       0.00000850       0.00001037
Y        0.00000026       0.00000006       0.00000009      -0.00000512      -0.00000316       0.00000243
O        1.75376592       1.24009939       5.55182217       0.00382170       0.00270081      -0.00000037
O        4.65692612       3.29294404       5.55182175      -0.00381836      -0.00269946      -0.00000560
O        3.93113616       1.24009952       4.29471665      -0.00190888       0.00269964       0.00331184
O        2.47955527       3.29294459       6.80892705       0.00190531      -0.00269979      -0.00331730
O        2.47955580       3.29294435       4.29471641       0.00191262      -0.00270316       0.00331375
O        3.93113613       1.24009920       6.80892732      -0.00191191       0.00269869      -0.00331667
