9
Lattice="6.35470264966473 5.63416188093324e-07 3.668890596852125 2.118234987966939 5.9912705655954 3.668890180782142 3.155832868630012e-07 -2.8642849211450884e-07 7.337780647097998" Properties=species:S:1:pos:R:3:forces:R:3 energy=-32.47001266479492 free_energy=-32.47001266479492 stress="0.00011763143993448466 -2.233981533095175e-08 1.4024550409885705e-08 -2.233981533095175e-08 0.00011763549264287576 -4.0306623816377396e-08 1.4024550409885705e-08 -4.0306623816377396e-08 0.00011763229122152552" pbc="T T T"
Sb       2.11823061       1.49781107       3.66888850      -0.00001875      -0.00002656      -0.00000597
Sb       6.35469871       4.49345125      11.00666637      -0.00001754      -0.00000872      -0.00001760
Y        0.00000061       0.00000043       0.00000118      -0.00000203      -0.00000177       0.00000154
Cl       2.13577950       1.51022282       7.33778160       0.00012317       0.00008371       0.00000408
Cl       6.33715738       4.48104981       7.33778261      -0.00011443      -0.00007115       0.00000767
Cl       5.28681662       1.51022585       5.51853081      -0.00004992       0.00008447       0.00010283
Cl       3.18612661       4.48104948       9.15703203       0.00006845      -0.00007579      -0.00009816
Cl       3.18612527       4.48104774       5.51853096       0.00005955      -0.00007080       0.00010011
Cl       5.28681644       1.51022488       9.15703152      -0.00004842       0.00008661      -0.00009450
