9
Lattice="6.358725629978477 -1.7408414007454888e-08 3.671211840193392 2.119575241983375 5.995063775672215 3.671211756356311 3.080843279920928e-08 -8.089420411642687e-08 7.3424236270249885" Properties=species:S:1:pos:R:3:forces:R:3 energy=-34.54231643676758 free_energy=-34.54231643676758 stress="3.619435301516205e-05 2.0247215459789913e-08 2.6523037099934754e-09 2.0247215459789913e-08 3.619745257310569e-05 -2.14226911765536e-08 2.6523037099934754e-09 -2.14226911765536e-08 3.6161498428555205e-05" pbc="T T T"
Sb       2.11957612       1.49876549       3.67121154       0.00000559      -0.00000304      -0.00000227
Sb       6.35872598       4.49629767      11.01363584       0.00000275       0.00000098       0.00000241
Zr       0.00000007      -0.00000039      -0.00000001      -0.00000261       0.00000528      -0.00000197
Te       2.28225401       1.61379724       7.34242346      -0.00183220      -0.00129440      -0.00000042
Te       6.19604672       4.38126682       7.34242336       0.00182953       0.00129649      -0.00000021
Te       5.21759887       1.61379689       5.64770155       0.00091308      -0.00129396      -0.00158469
Te       3.26070167       4.38126700       9.03714605      -0.00091487       0.00129135       0.00158072
Te       3.26070206       4.38126690       5.64770131      -0.00091398       0.00129265      -0.00158191
Te       5.21759809       1.61379707       9.03714580       0.00091279      -0.00129528       0.00158836
