9
Lattice="6.36599108421224 5.960309514346746e-07 3.6754072284257986 2.121997557172022 6.001914717216872 3.6754072853099538 -1.1785806010683345e-07 -1.366963065755852e-08 7.350814660987722" Properties=species:S:1:pos:R:3:forces:R:3 energy=-18.890430450439453 free_energy=-18.890430450439453 stress="-8.956782949098852e-06 -3.698778527905233e-08 2.418299160922288e-08 -3.698778527905233e-08 -9.009333552967291e-06 1.5819514587178674e-08 2.418299160922288e-08 1.5819514587178674e-08 -9.06814238987863e-06" pbc="T T T"
Sb       2.12200331       1.50047333       3.67540522       0.00003063      -0.00003280      -0.00000793
Sb       6.36598306       4.50143117      11.02622763      -0.00004471      -0.00003065       0.00003104
Zn       0.00000013       0.00000060      -0.00000041       0.00000047       0.00000144      -0.00000103
Br       2.10078337       1.48547956       7.35081490       0.00134277       0.00095177       0.00000240
Br       6.38720352       4.51643895       7.35081249      -0.00134625      -0.00093266      -0.00001356
Br       5.31559894       1.48548176       5.49473693      -0.00067182       0.00096541       0.00114756
Br       3.17239138       4.51643729       9.20689036       0.00067914      -0.00094076      -0.00115736
Br       3.17239197       4.51643811       5.49473845       0.00068826      -0.00093830       0.00115320
Br       5.31559839       1.48548042       9.20689110      -0.00067842       0.00095652      -0.00115443
