9
Lattice="6.035329214386367 -3.169621659091301e-07 3.4844981562152206 2.011776150520651 5.6901633076260945 3.484498079035055 1.7159225156247377e-07 2.6808098826597413e-08 6.9689960152239765" Properties=species:S:1:pos:R:3:forces:R:3 energy=-22.35139274597168 free_energy=-22.35139274597168 stress="0.0001288198836846277 1.4986984808729176e-07 1.0675045558627971e-07 1.4986984808729176e-07 0.00012906573829241097 8.713389121339787e-08 1.0675045558627971e-07 8.713389121339787e-08 0.00012907182099297643" pbc="T T T"
Sb       2.01176284       1.42254207       3.48448278      -0.00009520       0.00001377      -0.00010398
Sb       6.03533375       4.26762093      10.45349228       0.00003026      -0.00000977      -0.00002526
Zn      -0.00000064      -0.00000005       0.00000162       0.00000740       0.00000445      -0.00000669
Cl       1.95671247       1.38360579       6.96900140      -0.00003160      -0.00001424       0.00003713
Cl       6.09039632       4.30655701       6.96899781       0.00003264       0.00000237       0.00001200
Cl       5.05697910       1.38360223       5.17906476       0.00004805      -0.00001675       0.00001229
Cl       2.99013193       4.30655605       8.75893390      -0.00001701       0.00001222       0.00003309
Cl       2.99013195       4.30656129       5.17906432      -0.00000594       0.00003118       0.00000665
Cl       5.05697439       1.38360678       8.75893001       0.00003148      -0.00002329       0.00003469
