9
Lattice="6.739718177712251 -9.369025189563571e-08 3.8911781550355897 2.2465726961958454 6.35426719171985 3.8911780534962506 7.094441542759958e-08 -7.419449838154708e-08 7.78235618719189" Properties=species:S:1:pos:R:3:forces:R:3 energy=-16.54242706298828 free_energy=-16.54242706298828 stress="0.0002691637782845646 -6.6037828538867416e-09 9.869448591715013e-10 -6.6037828538867416e-09 0.0002691646513994783 1.5258656560490635e-09 9.869448591715013e-10 1.5258656560490635e-09 0.0002691612462513149" pbc="T T T"
Sb       2.24657280       1.58856684       3.89117680       0.00000078       0.00000034      -0.00000346
Sb       6.73971801       4.76569965      11.67353503      -0.00000115      -0.00000251       0.00000171
Zn       0.00000007       0.00000006      -0.00000007       0.00000057      -0.00000106      -0.00000005
I        2.27569255       1.60915775       7.78235657      -0.00590840      -0.00417747       0.00000267
I        6.71059834       4.74510950       7.78235603       0.00590854       0.00417762      -0.00000170
I        5.60187204       1.60915767       5.86198585       0.00295529      -0.00417664      -0.00511638
I        3.38441904       4.74510932       9.70272667      -0.00295526       0.00417797       0.00511759
I        3.38441913       4.74510963       5.86198586      -0.00295286       0.00417840      -0.00511725
I        5.60187181       1.60915769       9.70272686       0.00295258      -0.00417668       0.00511682
