9
Lattice="5.7769412306818575 4.417319164580492e-08 3.335318458226363 1.9256470863167607 5.446552506749018 3.3353185140401584 2.8958523910830703e-10 6.856241458671817e-08 6.670636915951154" Properties=species:S:1:pos:R:3:forces:R:3 energy=-38.07557678222656 free_energy=-38.07557678222656 stress="-7.832967821741477e-05 2.395597498150437e-08 1.3282566158068221e-08 2.395597498150437e-08 -7.8386532550212e-05 7.940860768940183e-08 1.3282566158068221e-08 7.940860768940183e-08 -7.836741133360192e-05" pbc="T T T"
Sb       1.92564883       1.36163823       3.33532071       0.00001967       0.00000153       0.00001691
Sb       5.77694199       4.08491147      10.00595249       0.00000561      -0.00002652      -0.00003298
Zr      -0.00000029      -0.00000017      -0.00000015       0.00000394       0.00000619      -0.00000297
Se       2.07426640       1.46672992       6.67063703      -0.00034286      -0.00022355      -0.00000097
Se       5.62832104       3.97982432       6.67063864       0.00032504       0.00023399       0.00001123
Se       4.73980634       1.46672861       5.13168560       0.00015321      -0.00023028      -0.00029030
Se       2.96278160       3.97982489       8.20958715      -0.00016074       0.00024116       0.00028636
Se       2.96277937       3.97982335       5.13168630      -0.00017294       0.00022030      -0.00028169
Se       4.73980801       1.46672979       8.20958780       0.00016944      -0.00022285       0.00029452
