9
Lattice="5.519476182682673 -1.1907757633327013e-07 3.18667093551814 1.8398252564070536 5.2038117701824 3.1866709797774138 -5.360963015567238e-08 1.6298591839805014e-08 6.373341963890906" Properties=species:S:1:pos:R:3:forces:R:3 energy=-42.21783447265625 free_energy=-42.21783447265625 stress="-3.152435601805337e-05 -1.0266344219189705e-08 -1.4802126635515833e-08 -1.0266344219189705e-08 -3.1480703910347074e-05 5.41636024919967e-09 -1.4802126635515833e-08 5.41636024919967e-09 -3.155616286676377e-05" pbc="T T T"
Sb       1.83982528       1.30095284       3.18667029       0.00000011      -0.00000446      -0.00000567
Sb       5.51947534       3.90286029       9.56001286      -0.00000681       0.00001687      -0.00000146
Zr      -0.00000010      -0.00000039       0.00000026      -0.00000090       0.00000812      -0.00000502
S        1.98577203       1.40415170       6.37334186      -0.00039806      -0.00028887       0.00000221
S        5.37352993       3.79965945       6.37334219       0.00039656       0.00028184      -0.00000026
S        4.52659048       1.40415213       4.90640003       0.00020198      -0.00028623      -0.00034720
S        2.83271151       3.79965916       7.84028436      -0.00019816       0.00028197       0.00034763
S        2.83271128       3.79965945       4.90639992      -0.00019490       0.00028077      -0.00034050
S        4.52658979       1.40415200       7.84028373       0.00020029      -0.00028977       0.00035024
