9
Lattice="4.722865057815425 -4.9327805362189155e-08 2.726747386365652 1.5742883376680328 4.452759760958767 2.7267473316854933 1.051892149569954e-08 -5.953123607863507e-08 5.453494754511978" Properties=species:S:1:pos:R:3:forces:R:3 energy=-55.02745056152344 free_energy=-55.02745056152344 stress="7.396347064059228e-05 9.098346964719894e-08 -8.351526581407143e-09 9.098346964719894e-08 7.412177365040407e-05 6.790213546992163e-08 -8.351526581407143e-09 6.790213546992163e-08 7.390973041765392e-05" pbc="T T T"
Sb       1.57428843       1.11319019       2.72674681       0.00000401       0.00000886      -0.00000802
Sb       4.72286503       3.33957099       8.18024024      -0.00000177       0.00001629      -0.00002477
Zr       0.00000015       0.00000015      -0.00000033      -0.00000185       0.00000074       0.00000860
O        1.66591686       1.17798102       5.45349499      -0.00018251      -0.00013500       0.00000493
O        4.63123680       3.27477814       5.45349566       0.00018907       0.00012672       0.00000930
O        3.88990627       1.17797968       4.16947409       0.00008702      -0.00014365      -0.00015342
O        2.40724751       3.27477863       6.73751644      -0.00008422       0.00012469       0.00016159
O        2.40724638       3.27477893       4.16947379      -0.00009492       0.00012946      -0.00015545
O        3.88990630       1.17798083       6.73751623       0.00008482      -0.00012803       0.00015742
