9
Lattice="6.7861064005528196 9.148664199275574e-09 3.917960336506737 2.262035462210005 6.398002355523178 3.917960359484756 -1.13166564121109e-08 2.0140144932732862e-08 7.835920692614504" Properties=species:S:1:pos:R:3:forces:R:3 energy=-27.5172061920166 free_energy=-27.5172061920166 stress="9.469739597989246e-05 -5.683336024020491e-09 1.938591953631885e-09 -5.683336024020491e-09 9.470153599977493e-05 1.5097291194976492e-09 1.938591953631885e-09 1.5097291194976492e-09 9.47111620916985e-05" pbc="T T T"
Sc       2.26203582       1.59950140       3.91796005       0.00000145       0.00000125      -0.00000189
Sc       6.78610634       4.79850174      11.75388225      -0.00000092       0.00000028       0.00000421
As       0.00000028       0.00000020       0.00000021      -0.00000044      -0.00000144      -0.00000069
I        2.32262261       1.64234241       7.83592072      -0.00005381      -0.00003769       0.00000032
I        6.72551905       4.75565985       7.83592021       0.00005408       0.00003786      -0.00000174
I        5.62479500       1.64234235       5.92941052       0.00002749      -0.00003862      -0.00004768
I        3.42334666       4.75565967       9.74243063      -0.00002816       0.00003885       0.00004876
I        3.42334694       4.75566004       5.92941054      -0.00002597       0.00003879      -0.00004794
I        5.62479474       1.64234186       9.74243046       0.00002618      -0.00003929       0.00004666
