9
Lattice="6.209805931856173 1.670129070389533e-07 3.58523369476897 2.0699354550848765 5.854661558645572 3.5852337172771915 6.239800826707374e-08 7.168886464268553e-08 7.17046728146141" Properties=species:S:1:pos:R:3:forces:R:3 energy=-31.34105110168457 free_energy=-31.34105110168457 stress="6.786471931263804e-05 -9.55445234041008e-09 8.96543195239019e-09 -9.55445234041008e-09 6.787574238842353e-05 1.987912501277833e-09 8.96543195239019e-09 1.987912501277833e-09 6.786016456317157e-05" pbc="T T T"
Sc       2.06993754       1.46366970       3.58523403       0.00001123       0.00002234       0.00000039
Sc       6.20980632       4.39099642      10.75570436       0.00000238       0.00000028       0.00001623
As      -0.00000025      -0.00000046      -0.00000054       0.00000084      -0.00000114       0.00000019
Br       2.08776901       1.47627594       7.17046750       0.00251108       0.00177628       0.00000016
Br       6.19197236       4.37838503       7.17046573      -0.00251079      -0.00178230      -0.00000765
Br       5.16592091       1.47627587       5.39329452      -0.00125989       0.00177830       0.00217199
Br       3.11381925       4.37838468       8.94763978       0.00125043      -0.00178415      -0.00217399
Br       3.11381978       4.37838463       5.39329437       0.00125533      -0.00178391       0.00216976
Br       5.16592092       1.47627537       8.94763903      -0.00126067       0.00177422      -0.00217688
