9
Lattice="4.811267281138835 -1.399334050746389e-07 2.777787232187394 1.6037555706500732 4.536106587776947 2.777787332298318 -7.068692020756283e-08 7.262716973788319e-08 5.555574586808064" Properties=species:S:1:pos:R:3:forces:R:3 energy=-46.120513916015625 free_energy=-46.120513916015625 stress="4.685069598053815e-06 8.339725354744587e-08 -1.9700073039530253e-07 8.339725354744587e-08 4.6587761062255595e-06 -1.824193844868205e-07 -1.9700073039530253e-07 -1.824193844868205e-07 4.965976586390752e-06" pbc="T T T"
Sc       1.60375640       1.13402619       2.77778671       0.00000322      -0.00000831      -0.00000265
Sc       4.81126096       3.40207414       8.33336885      -0.00005710      -0.00005212       0.00007030
As       0.00000012       0.00000036      -0.00000022      -0.00000314       0.00000391      -0.00000255
F        1.66307442       1.17596921       5.55557464       0.00051540       0.00035793       0.00000211
F        4.75194918       3.36013753       5.55557188      -0.00051063      -0.00034821      -0.00003079
F        3.97973340       1.17597276       4.21805090      -0.00023106       0.00038958       0.00042421
F        2.43529110       3.36013776       6.89309636       0.00025070      -0.00035655      -0.00044763
F        2.43529502       3.36013511       4.21804794       0.00028780      -0.00036448       0.00041151
F        3.97973062       1.17597263       6.89309930      -0.00025547       0.00037831      -0.00042462
