9
Lattice="6.786100271084006 -9.421177948691357e-08 3.917956784079397 2.262033420715891 6.397996402834669 3.917956635391541 1.0380393709338986e-07 -1.0870416415417605e-07 7.8359133883650784" Properties=species:S:1:pos:R:3:forces:R:3 energy=-27.51720428466797 free_energy=-27.51720428466797 stress="9.395943197887391e-05 4.806812281543671e-09 2.737969628796577e-09 4.806812281543671e-09 9.395220695296302e-05 -7.809178192985655e-09 2.737969628796577e-09 -7.809178192985655e-09 9.394437802257016e-05" pbc="T T T"
Sc       2.26203416       1.59949887       3.91795666       0.00000377      -0.00000066      -0.00000016
Sc       6.78610033       4.79849742      11.75386920      -0.00000047       0.00000082      -0.00000325
As      -0.00000012       0.00000010       0.00000023       0.00000010      -0.00000018       0.00000085
I        2.32261938       1.64233980       7.83591334      -0.00004099      -0.00002882       0.00000005
I        6.72551420       4.75565639       7.83591369       0.00004075       0.00003016       0.00000103
I        5.62479025       1.64233966       5.92940418       0.00001885      -0.00002991      -0.00003524
I        3.42334347       4.75565645       9.74242286      -0.00001983       0.00002797       0.00003523
I        3.42334314       4.75565637       5.92940433      -0.00002159       0.00002952      -0.00003500
I        5.62479039       1.64233972       9.74242275       0.00001944      -0.00002889       0.00003652
