9
Lattice="4.81122367274207 2.0309152177081416e-07 2.7777623186860785 1.6037415637412276 4.536064569550938 2.7777620623127017 -9.097653610745646e-07 -9.57293111898859e-07 5.555526213132318" Properties=species:S:1:pos:R:3:forces:R:3 energy=-46.12051773071289 free_energy=-46.12051773071289 stress="3.106700023636222e-05 -1.1393232171030832e-06 1.6895415910767042e-06 -1.1393232171030832e-06 2.9458989956765436e-05 1.2379592817524099e-06 1.6895415910767042e-06 1.2379592817524099e-06 2.7816662623081356e-05" pbc="T T T"
Sc       1.60372038       1.13401252       2.77777443      -0.00021909      -0.00004305       0.00012238
Sc       4.81124746       3.40203649       8.33324872       0.00025183      -0.00010531      -0.00039696
As      -0.00000011       0.00000051       0.00000085       0.00000156      -0.00000023       0.00000618
F        1.66311894       1.17601160       5.55551502      -0.00043488      -0.00019521      -0.00008937
F        4.75184227       3.36005773       5.55554872       0.00040406       0.00024986       0.00021225
F        3.97966717       1.17600294       4.21807824       0.00023088      -0.00031126      -0.00025684
F        2.43530022       3.36006258       6.89297702      -0.00020534       0.00032443       0.00030738
F        2.43528529       3.36006113       4.21808329      -0.00036213       0.00028878      -0.00021523
F        3.97967567       1.17600973       6.89297621       0.00033322      -0.00020832       0.00031054
