9
Lattice="6.2097223841966205 -3.1111589983958694e-08 3.585184774258067 2.069907502032999 5.854581846072713 3.5851846530726843 2.1901119352950066e-07 6.443127423551198e-09 7.170369169177631" Properties=species:S:1:pos:R:3:forces:R:3 energy=-31.341049194335938 free_energy=-31.341049194335938 stress="5.99130944465287e-05 -3.336597442782363e-09 1.08374120788568e-09 -3.336597442782363e-09 5.990023055346683e-05 -1.0553204976559982e-09 1.08374120788568e-09 -1.0553204976559982e-09 5.991359648760408e-05" pbc="T T T"
Sc       2.06990676       1.46364652       3.58518447      -0.00000513       0.00000515      -0.00000125
Sc       6.20972511       4.39093879      10.75555830       0.00001186       0.00001320       0.00002193
As      -0.00000023      -0.00000022      -0.00000028      -0.00000155      -0.00000388      -0.00000368
Br       2.08776816       1.47627375       7.17036941       0.00231889       0.00163817       0.00000127
Br       6.19186216       4.37830661       7.17036765      -0.00231558      -0.00163966      -0.00000893
Br       5.16583838       1.47627457       5.39324425      -0.00115795       0.00163683       0.00200680
Br       3.11379053       4.37830669       8.94749322       0.00115114      -0.00164056      -0.00201136
Br       3.11379109       4.37830709       5.39324438       0.00115697      -0.00163895       0.00200701
Br       5.16583853       1.47627346       8.94749305      -0.00115879       0.00162959      -0.00201184
