9
Lattice="5.908588819019826 6.899663225159099e-08 3.411325352240897 1.9695297310787232 5.570670800252199 3.4113252488580046 -5.269988367485914e-08 -1.6388209654544098e-07 6.822650795760632" Properties=species:S:1:pos:R:3:forces:R:3 energy=-34.58249282836914 free_energy=-34.58249282836914 stress="0.00022079005429986864 -1.9539845297344982e-09 4.1066666511824224e-08 -1.9539845297344982e-09 0.00022077001631259918 -6.347511316562304e-08 4.1066666511824224e-08 -6.347511316562304e-08 0.00022079728660173714" pbc="T T T"
Sc       1.96953244       1.39266716       3.41132370       0.00002273      -0.00000483      -0.00001264
Sc       5.90858682       4.17799990      10.23398105      -0.00001282      -0.00001731       0.00003571
As      -0.00000006       0.00000069      -0.00000037      -0.00000602      -0.00000528      -0.00000167
Cl       1.97434677       1.39607430       6.82265149       0.00096416       0.00068676       0.00000524
Cl       5.90377016       4.17459725       6.82264844      -0.00096667      -0.00067413      -0.00001508
Cl       4.92141530       1.39607579       5.12115831      -0.00048602       0.00069845       0.00082904
Cl       2.95670368       4.17459744       8.52414180       0.00048289      -0.00068843      -0.00083768
Cl       2.95670452       4.17459634       5.12115950       0.00048906      -0.00067678       0.00082499
Cl       4.92141442       1.39607397       8.52414165      -0.00048721       0.00068137      -0.00082833
