9
Lattice="5.908760911735149 -9.032016332465148e-08 3.411424992806843 1.9695869574956393 5.57083318055396 3.41142486797462 1.1885562755813443e-07 -6.884402114286337e-08 6.822849779749704" Properties=species:S:1:pos:R:3:forces:R:3 energy=-34.582489013671875 free_energy=-34.582489013671875 stress="0.0002224480122094974 2.8978159871684284e-09 1.9612125257140178e-08 2.8978159871684284e-09 0.00022237897792365402 -3.813146420839075e-08 1.9612125257140178e-08 -3.813146420839075e-08 0.0002224449854111299" pbc="T T T"
Sc       1.96958708       1.39270913       3.41142424       0.00000041       0.00000547      -0.00000805
Sc       5.90875914       4.17812468      10.23427550      -0.00001259      -0.00000131       0.00000695
As       0.00000050      -0.00000017       0.00000092      -0.00000634      -0.00000206      -0.00001979
Cl       1.97426955       1.39601886       6.82285060       0.00214744       0.00151479       0.00000438
Cl       5.90407810       4.17481369       6.82284960      -0.00213963      -0.00151339      -0.00000153
Cl       4.92162683       1.39601895       5.12119200      -0.00107220       0.00152296       0.00186294
Cl       2.95672180       4.17481338       8.52450793       0.00107181      -0.00151899      -0.00185078
Cl       2.95672290       4.17481369       5.12119137       0.00108016      -0.00151932       0.00185388
Cl       4.92162605       1.39601985       8.52450641      -0.00106874       0.00151187      -0.00184798
