9
Lattice="6.387184760450026 -6.276668671304074e-09 3.6876428335385762 2.1290615956326815 6.021895406288807 3.6876428080190693 1.322748220672059e-07 6.227751469159463e-08 7.375285437970403" Properties=species:S:1:pos:R:3:forces:R:3 energy=-30.981149673461914 free_energy=-30.981149673461914 stress="0.00024197617312893271 1.287780282410722e-08 -7.59271312489318e-09 1.287780282410722e-08 0.0002419550291961059 -1.1270026689658152e-08 -7.59271312489318e-09 -1.1270026689658152e-08 0.00024192318960558623" pbc="T T T"
Sc       2.12906114       1.50547357       3.68764245      -0.00000093      -0.00000015      -0.00000165
Sc       6.38718530       4.51642145      11.06292894       0.00000102      -0.00000109       0.00000391
Bi       0.00000006      -0.00000001      -0.00000007      -0.00000136      -0.00000003       0.00000215
Br       2.24914997       1.59038941       7.37528571       0.00236878       0.00167562       0.00000109
Br       6.26709632       4.43150625       7.37528531      -0.00236852      -0.00167511      -0.00000145
Br       5.26260994       1.59038938       5.63546377      -0.00118335       0.00167629       0.00205229
Br       3.25363636       4.43150678       9.11510719       0.00118501      -0.00167722      -0.00205487
Br       3.25363680       4.43150618       5.63546389       0.00118528      -0.00167470       0.00205231
Br       5.26261009       1.59038892       9.11510722      -0.00118599       0.00167640      -0.00205381
