9
Lattice="6.13478657675802 2.423999685447685e-07 3.541920988967952 2.0449289567231346 5.783933103529413 3.5419212154042867 -1.1307986836569126e-07 1.9736724408812947e-07 7.083842173795933" Properties=species:S:1:pos:R:3:forces:R:3 energy=-34.35024642944336 free_energy=-34.35024642944336 stress="0.0002223975316155702 5.5121467390506496e-09 -3.402650250450279e-08 5.5121467390506496e-09 0.00022240624821279198 1.1428394230961203e-08 -3.402650250450279e-08 1.1428394230961203e-08 0.00022239823010750115" pbc="T T T"
Sc       2.04492945       1.44598286       3.54192024       0.00000452      -0.00000320      -0.00000529
Sc       6.13478685       4.33795058      10.62576460       0.00000182       0.00000226       0.00000696
Bi      -0.00000010      -0.00000007       0.00000003      -0.00000047      -0.00000030       0.00000091
Cl       2.14600101       1.51745225       7.08384210       0.00375256       0.00265159       0.00000148
Cl       6.03371440       4.26648183       7.08384212      -0.00375327      -0.00265099      -0.00000275
Cl       5.06178609       1.51745257       5.40041264      -0.00187579       0.00265387       0.00324830
Cl       3.11792888       4.26648065       8.76727123       0.00187223      -0.00265287      -0.00324923
Cl       3.11792954       4.26648144       5.40041271       0.00187859      -0.00265336       0.00325158
Cl       5.06178566       1.51745208       8.76727164      -0.00187996       0.00265300      -0.00325200
