9
Lattice="5.655364798856641 -4.578260583682353e-07 3.26512626787161 1.885121351079023 5.331928828426151 3.265125950728507 4.598809502984998e-08 -3.5590090243357853e-07 6.530252456089584" Properties=species:S:1:pos:R:3:forces:R:3 energy=-34.356510162353516 free_energy=-34.356510162353516 stress="2.4699369532754645e-05 -2.0101104780678725e-07 -3.364070622069448e-08 -2.0101104780678725e-07 2.4948352802312e-05 -6.192077961486575e-08 -3.364070622069448e-08 -6.192077961486575e-08 2.4435630621155724e-05" pbc="T T T"
Sc       1.88511882       1.33298310       3.26512699      -0.00001428       0.00000879       0.00000300
Sc       5.65536093       3.99894428       9.79537657      -0.00002797      -0.00001378      -0.00001197
B        0.00000437       0.00000081       0.00000140       0.00002327       0.00000575       0.00000527
Cl       1.66083484       1.17438647       6.53025244       0.00072956       0.00051326       0.00000118
Cl       5.87965054       4.15753946       6.53025274      -0.00072783      -0.00052065       0.00000255
Cl       4.82494718       1.17438848       4.70345019      -0.00035900       0.00051510       0.00063926
Cl       2.71553998       4.15754007       8.35705462       0.00036857      -0.00051260      -0.00063348
Cl       2.71553922       4.15754162       4.70345039       0.00036609      -0.00051075       0.00063699
Cl       4.82494852       1.17438760       8.35705330      -0.00035891       0.00051498      -0.00064284
