9
Lattice="6.067360028738373 5.364136473676322e-08 3.5029922905117403 2.022453656700644 5.720360936365185 3.502991834611189 5.960134317632136e-07 -1.3691672550672962e-07 7.0059835486979" Properties=species:S:1:pos:R:3:forces:R:3 energy=-31.042335510253906 free_energy=-31.042335510253906 stress="0.00010840377217391506 1.1330095972539311e-08 -1.5519344742642716e-07 1.1330095972539311e-08 0.00010844299686141312 1.8275168045533974e-08 -1.5519344742642716e-07 1.8275168045533974e-08 0.0001083515744539909" pbc="T T T"
Sc       2.02245075       1.43009339       3.50299345      -0.00001495       0.00001608       0.00000880
Sc       6.06736014       4.29027072      10.50896716      -0.00000479       0.00000046      -0.00004400
B        0.00000975      -0.00001605       0.00000126       0.00015354      -0.00025587       0.00001253
Br       1.91185983       1.35188881       7.00598385       0.00063267       0.00046265      -0.00000204
Br       6.17795478       4.36847253       7.00598642      -0.00062487      -0.00043407       0.00001489
Br       5.11142861       1.35189087       5.15871449      -0.00035004       0.00049099       0.00060105
Br       2.97838290       4.36847519       8.85326056       0.00028346      -0.00039175      -0.00048855
Br       2.97838086       4.36847462       5.15870930       0.00027119      -0.00039703       0.00049919
Br       5.11142944       1.35189333       8.85325421      -0.00034618       0.00050855      -0.00060201
