9
Lattice="6.925834510694721 -2.0814267744204513e-08 3.9986325320940765 2.3086115140407593 6.529739430069592 3.998632479959816 8.909443623603859e-08 -8.518710579560391e-10 7.997264909872052" Properties=species:S:1:pos:R:3:forces:R:3 energy=-27.069934844970703 free_energy=-27.069934844970703 stress="0.0002260545879835263 2.124180387141905e-09 -1.5668103259258714e-08 2.124180387141905e-09 0.00022607309801969677 1.5507517048263253e-08 -1.5668103259258714e-08 1.5507517048263253e-08 0.00022605396225117147" pbc="T T T"
Sc       2.30861163       1.63243463       3.99863257       0.00000264       0.00000005      -0.00000062
Sc       6.92583467       4.89730498      11.99589779      -0.00000156       0.00000089       0.00000352
Bi      -0.00000010      -0.00000022       0.00000006      -0.00000200       0.00000217       0.00000037
I        2.44796470       1.73097248       7.99726497       0.00121284       0.00085764      -0.00000023
I        6.78648143       4.79876706       7.99726484      -0.00121212      -0.00085716      -0.00000153
I        5.70185206       1.73097246       6.11863210      -0.00060606       0.00085681       0.00104953
I        3.53259406       4.79876694       9.87589755       0.00060546      -0.00085786      -0.00105129
I        3.53259393       4.79876694       6.11863211       0.00060727      -0.00085813       0.00105029
I        5.70185200       1.73097240       9.87589770      -0.00060652       0.00085561      -0.00104995
