9
Lattice="5.6730616020717495 1.9315266381020176e-08 3.275343676021297 1.8910205674813325 5.348613950280102 3.2753436496130393 -1.4414534182289204e-08 -4.253602099616086e-08 6.550687377009343" Properties=species:S:1:pos:R:3:forces:R:3 energy=-38.798240661621094 free_energy=-38.798240661621094 stress="0.00040482328040525317 9.752134211282737e-09 2.6238668127120945e-08 9.752134211282737e-09 0.0004048147820867598 3.469180498427704e-10 2.6238668127120945e-08 3.469180498427704e-10 0.00040490375249646604" pbc="T T T"
Sc       1.89102009       1.33715303       3.27534338      -0.00000405      -0.00000527      -0.00000191
Sc       5.67306165       4.01146092       9.82603259       0.00000302       0.00000347       0.00001307
Co      -0.00000009      -0.00000003      -0.00000075       0.00000400      -0.00000010       0.00001403
Cl       1.85664369       1.31284509       6.55068752       0.00068800       0.00048451       0.00000002
Cl       5.70743869       4.03576895       6.55068683      -0.00069095      -0.00048721      -0.00000335
Cl       4.74474004       1.31284561       4.88324407      -0.00033903       0.00048530       0.00059126
Cl       2.81934200       4.03576855       8.21813057       0.00034252      -0.00048957      -0.00059964
Cl       2.81934262       4.03576873       4.88324430       0.00034238      -0.00047929       0.00059004
Cl       4.74473995       1.31284485       8.21813033      -0.00034606       0.00048825      -0.00060371
