9
Lattice="6.108647552661464 -3.3327444223124216e-10 3.5268294207149595 2.036215869076113 5.7592884450291715 3.526829388666552 3.1898434760535635e-08 -1.6695515790558452e-08 7.053658786180251" Properties=species:S:1:pos:R:3:forces:R:3 energy=-31.039682388305664 free_energy=-31.039682388305664 stress="-9.377373498864472e-05 6.2756626562077145e-09 3.0323594302217316e-08 6.2756626562077145e-09 -9.375873196404427e-05 2.277251631710442e-08 3.0323594302217316e-08 2.277251631710442e-08 -9.375343506690115e-05" pbc="T T T"
Sc       2.03621654       1.43982132       3.52683188       0.00000446      -0.00000505       0.00001508
Sc       6.10864856       4.31946638      10.58048644       0.00000629       0.00000227      -0.00001007
C       -0.00000036      -0.00000002       0.00000170       0.00000117       0.00000149      -0.00000511
Br       2.07567840       1.46772635       7.05365779      -0.00052832      -0.00037283      -0.00000548
Br       6.06918415       4.29156243       7.05365927       0.00052489       0.00037622       0.00000474
Br       5.07080758       1.46772678       5.32441975       0.00026003      -0.00037769      -0.00045779
Br       3.07405511       4.29156221       8.78289690      -0.00026630       0.00037783       0.00045609
Br       3.07405519       4.29156134       5.32441956      -0.00026860       0.00037216      -0.00045551
Br       5.07080862       1.46772689       8.78289708       0.00026637      -0.00037442       0.00045808
