9
Lattice="4.554411175404744 -9.666449527055848e-08 2.6294904091695086 1.5181368653458005 4.293941331395985 2.6294905858149473 -3.32171501954673e-07 -1.8535169990483527e-08 5.258981393676942" Properties=species:S:1:pos:R:3:forces:R:3 energy=-47.9755859375 free_energy=-47.9755859375 stress="-0.000494493986479938 1.1009228728653397e-07 8.334951218103015e-08 1.1009228728653397e-07 -0.0004945430555380881 2.1882770795400575e-07 8.334951218103015e-08 2.1882770795400575e-07 -0.0004942775703966618" pbc="T T T"
Sc       1.51813331       1.07348628       2.62948531      -0.00001645       0.00001217      -0.00003001
Sc       4.55441720       3.22045939       7.88847383       0.00004058       0.00002275       0.00000746
C       -0.00000002      -0.00000073       0.00000055      -0.00000826       0.00000023       0.00000137
F        1.56305397       1.10524744       5.25898230      -0.00665528      -0.00470603       0.00001246
F        4.50949359       3.18869300       5.25898158       0.00665665       0.00469434      -0.00000289
F        3.77288308       1.10524708       3.98313546       0.00333241      -0.00471026      -0.00575829
F        2.29966316       3.18869267       6.53482679      -0.00333956       0.00469589       0.00577062
F        2.29966210       3.18869451       3.98313819      -0.00333640       0.00471091      -0.00575173
F        3.77288422       1.10524539       6.53482520       0.00332561      -0.00471991       0.00575131
