9
Lattice="6.055806582411272 -1.4006622169556767e-07 3.4963215260710516 2.0186020845002326 5.709469164869485 3.4963214872403623 -1.2417365911831795e-07 -1.353617062477269e-07 6.992643267217198" Properties=species:S:1:pos:R:3:forces:R:3 energy=-38.4323844909668 free_energy=-38.4323844909668 stress="9.860054706223309e-05 1.1038141067842844e-08 1.3112354757538469e-08 1.1038141067842844e-08 9.862114529823884e-05 3.434873363516999e-08 1.3112354757538469e-08 3.434873363516999e-08 9.860339923761785e-05" pbc="T T T"
Sc       2.01860205       1.42736731       3.49632077      -0.00000030       0.00000046      -0.00000402
Sc       6.05580642       4.28210127      10.48896634       0.00000028      -0.00000292       0.00000722
Cr       0.00000009      -0.00000020      -0.00000035       0.00000085       0.00000096       0.00000385
Br       1.96418105       1.38888587       6.99264342       0.00237203       0.00167800       0.00000225
Br       6.11022742       4.32058311       6.99264230      -0.00237411      -0.00167662      -0.00000154
Br       5.07371621       1.38888620       5.19735218      -0.00118335       0.00167660       0.00205162
Br       3.00069214       4.32058352       8.78793439       0.00118603      -0.00167970      -0.00205702
Br       3.00069271       4.32058321       5.19735200       0.00118700      -0.00167626       0.00205457
Br       5.07371600       1.38888526       8.78793406      -0.00118829       0.00167945      -0.00205693
