9
Lattice="4.490531644309636 3.274630531637994e-08 2.592609713424201 1.496843912281785 4.2337137901284025 2.592609713473182 4.1245654038067705e-08 2.922506960784961e-08 5.1852193554088135" Properties=species:S:1:pos:R:3:forces:R:3 energy=-52.3476448059082 free_energy=-52.3476448059082 stress="0.00026693730615079403 -3.775483747858743e-08 4.8720063539064995e-09 -3.775483747858743e-08 0.0002670367539394647 -2.0259953714685253e-08 4.8720063539064995e-09 -2.0259953714685253e-08 0.00026703570620156825" pbc="T T T"
Sc       1.49684385       1.05842863       2.59260967      -0.00000041       0.00000148      -0.00000014
Sc       4.49053159       3.17528534       7.77782909      -0.00000024       0.00000099       0.00000092
Co       0.00000013       0.00000018       0.00000012      -0.00000064      -0.00000785       0.00000001
F        1.52437609       1.07789659       5.18521932       0.00719550       0.00508684       0.00000015
F        4.46299950       3.15581713       5.18521941      -0.00718945      -0.00508547      -0.00000043
F        3.72834348       1.07789675       3.91275798      -0.00359695       0.00508600       0.00622967
F        2.25903208       3.15581707       6.45768068       0.00359425      -0.00508440      -0.00622472
F        2.25903201       3.15581715       3.91275825       0.00359346      -0.00508246       0.00622433
F        3.72834367       1.07789656       6.45768068      -0.00359599       0.00508526      -0.00622976
