9
Lattice="5.838549478149519 7.751388311124858e-08 3.370888084537533 1.9461832086746265 5.504637323940863 3.370888125741881 8.714122617271745e-08 1.1208296607986794e-07 6.741776018142027" Properties=species:S:1:pos:R:3:forces:R:3 energy=-41.795814514160156 free_energy=-41.795814514160156 stress="0.00018731635645963252 -2.51314302701644e-09 3.6878748943536266e-09 -2.51314302701644e-09 0.00018730094598140568 1.53302632810437e-08 3.6878748943536266e-09 1.53302632810437e-08 0.00018726440612226725" pbc="T T T"
Sc       1.94618475       1.37616072       3.37088828       0.00000657       0.00001089       0.00000123
Sc       5.83855153       4.12847840      10.11266416       0.00001120      -0.00000033       0.00000105
Cr      -0.00000024      -0.00000020      -0.00000049       0.00000058      -0.00000116       0.00000532
Cl       1.87821671       1.32810033       6.74177631       0.00184825       0.00130759       0.00000092
Cl       5.90651540       4.17653724       6.74177591      -0.00185055      -0.00130896      -0.00000020
Cl       4.89944034       1.32810011       4.99747184      -0.00092761       0.00130287       0.00159940
Cl       2.88529102       4.17653711       8.48608035       0.00092213      -0.00131097      -0.00160298
Cl       2.88529101       4.17653637       4.99747200       0.00091988      -0.00130980       0.00160095
Cl       4.89944059       1.32809985       8.48608065      -0.00093053       0.00130966      -0.00160545
