9
Lattice="5.960147189221979 5.672400525565152e-09 3.4410925150511584 1.9867157471404373 5.619280497571711 3.44109249417686 -2.9215363802749205e-08 -4.6224085038739775e-08 6.882185080704765" Properties=species:S:1:pos:R:3:forces:R:3 energy=-35.002662658691406 free_energy=-35.002662658691406 stress="0.00023779983166605234 1.5829106914111435e-08 7.314455707785328e-09 1.5829106914111435e-08 0.00023778567265253514 3.6301379680026e-08 7.314455707785328e-09 3.6301379680026e-08 0.00023777576279826462" pbc="T T T"
Sc       1.98671560       1.40482033       3.44109200       0.00000033       0.00000219      -0.00000357
Sc       5.96014754       4.21445998      10.32327927       0.00000087      -0.00000270       0.00001077
Co       0.00000010       0.00000004      -0.00000013      -0.00000173       0.00000066      -0.00000066
Br       1.96218719       1.38747602       6.88218521       0.00315346       0.00223179       0.00000062
Br       5.98467550       4.23180437       6.88218436      -0.00315314      -0.00223098      -0.00000280
Br       4.97905372       1.38747620       5.14039614      -0.00157542       0.00223199       0.00273071
Br       2.96780900       4.23180458       8.62397358       0.00157527      -0.00223365      -0.00273360
Br       2.96780955       4.23180464       5.14039621       0.00157915      -0.00223079       0.00273324
Br       4.97905344       1.38747566       8.62397373      -0.00157872       0.00223157      -0.00273488
