9
Lattice="6.5728514726241585 9.786878332163723e-09 3.7948375887977797 2.190950524039554 6.196943800820354 3.7948375473365314 2.2263982626036222e-08 -3.503649294130796e-08 7.589675139033223" Properties=species:S:1:pos:R:3:forces:R:3 energy=-27.915040969848633 free_energy=-27.915040969848633 stress="-1.5762328985147178e-05 3.797427094998085e-10 2.6989135371024986e-09 3.797427094998085e-10 -1.577774492034223e-05 -4.577470846811593e-09 2.6989135371024986e-09 -4.577470846811593e-09 -1.5771624020999297e-05" pbc="T T T"
Sc       2.19095030       1.54923551       3.79483752      -0.00000047      -0.00000221      -0.00000010
Sc       6.57285139       4.64770806      11.38451230      -0.00000170       0.00000062      -0.00000234
C        0.00000002       0.00000014      -0.00000004       0.00000006       0.00000084       0.00000054
I        2.21845398       1.56868387       7.58967517      -0.00018159      -0.00012819      -0.00000015
I        6.54534808       4.62825994       7.58967546       0.00018089       0.00012780       0.00000094
I        5.46362434       1.56868361       5.71607512       0.00009028      -0.00012772      -0.00015623
I        3.30017769       4.62826030       9.46327519      -0.00008876       0.00012814       0.00015690
I        3.30017773       4.62826003       5.71607506      -0.00008914       0.00012808      -0.00015620
I        5.46362452       1.56868364       9.46327532       0.00009032      -0.00012731       0.00015665
