9
Lattice="4.63098680486038 1.8860103024453615e-07 2.673701899285363 1.543662390078169 4.366135982097211 2.6737019963207636 1.4779198112639038e-07 2.23348289574902e-07 5.347403542587591" Properties=species:S:1:pos:R:3:forces:R:3 energy=-53.93762969970703 free_energy=-53.93762969970703 stress="-0.00020016205962747335 -2.790222985993296e-08 -9.236084963504254e-08 -2.790222985993296e-08 -0.00020024717377964407 1.3408104848622315e-08 -9.236084963504254e-08 1.3408104848622315e-08 -0.0002000749227590859" pbc="T T T"
Sc       1.54366249       1.09153340       2.67369994       0.00000295      -0.00000217      -0.00001500
Sc       4.63098819       3.27460008       8.02110657       0.00000793      -0.00002005       0.00000432
Cr      -0.00000008       0.00000077       0.00000010      -0.00000466      -0.00000065      -0.00000015
F        1.54021014       1.08909540       5.34740483       0.00281441       0.00200450       0.00000843
F        4.63443887       3.27704210       5.34740344      -0.00281978      -0.00199246      -0.00000560
F        3.86088066       1.08909465       4.00756409      -0.00140685       0.00199419       0.00243509
F        2.31376825       3.27704220       6.68724454       0.00140595      -0.00198865      -0.00243759
F        2.31376744       3.27704290       4.00756343       0.00141090      -0.00199032       0.00244737
F        3.86088127       1.08909504       6.68724389      -0.00141048       0.00199616      -0.00243747
