9
Lattice="4.568786027770389 -1.6088301594587137e-07 2.6377897287995213 1.5229285929356042 4.307492213328542 2.6377896098178315 5.470392723403828e-08 -1.0704069616444394e-07 5.275579362849049" Properties=species:S:1:pos:R:3:forces:R:3 energy=-52.821834564208984 free_energy=-52.821834564208984 stress="0.0006560281617566943 3.284993255192603e-08 9.428001490618954e-09 3.284993255192603e-08 0.0006561113987118006 -3.437442552822745e-09 9.428001490618954e-09 -3.437442552822745e-09 0.0006560726906172931" pbc="T T T"
Sc       1.52292871       1.07687295       2.63778902       0.00000146       0.00000003      -0.00000399
Sc       4.56878609       3.23061935       7.91336845       0.00000131       0.00000433      -0.00000530
Fe      -0.00000001       0.00000002      -0.00000011      -0.00000280       0.00000229      -0.00000296
F        1.58576814       1.12130719       5.27557969      -0.00131198      -0.00092766       0.00000193
F        4.50594667       3.18618464       5.27557951       0.00131186       0.00092723       0.00000290
F        3.77590188       1.12130678       4.01110551       0.00065503      -0.00092993      -0.00113391
F        2.31581261       3.18618498       6.54005363      -0.00065387       0.00092531       0.00113458
F        2.31581264       3.18618506       4.01110516      -0.00065432       0.00092560      -0.00113139
F        3.77590174       1.12130697       6.54005385       0.00065365      -0.00092725       0.00113785
