9
Lattice="5.7019042600270415 6.018390111751338e-10 3.291995860157101 1.9006346896602795 5.375806937264137 3.2919959714404743 -8.789505304240374e-08 7.414253411725032e-08 6.58399187255292" Properties=species:S:1:pos:R:3:forces:R:3 energy=-40.1613883972168 free_energy=-40.1613883972168 stress="0.00028095729066990316 -7.493904163879961e-09 -2.8334463664236864e-08 -7.493904163879961e-09 0.0002810537116602063 -3.929164904548088e-08 -2.8334463664236864e-08 -3.929164904548088e-08 0.0002810362202581018" pbc="T T T"
Sc       1.90063533       1.34395349       3.29199553       0.00000460       0.00001453      -0.00000037
Sc       5.70190378       4.03185385       9.87598421      -0.00000125      -0.00001115      -0.00002349
Fe       0.00000002      -0.00000009       0.00000019      -0.00000110       0.00000054      -0.00000205
Cl       1.82823582       1.29275873       6.58399222       0.00221301       0.00156903       0.00000189
Cl       5.77430276       4.08304835       6.58399313      -0.00221627      -0.00156997       0.00000877
Cl       4.78778605       1.29275806       4.87529516      -0.00110869       0.00156506       0.00191898
Cl       2.81475364       4.08304854       8.29268946       0.00111182      -0.00156970      -0.00191137
Cl       2.81475215       4.08304794       4.87529505       0.00110357      -0.00157148       0.00191955
Cl       4.78778589       1.29275922       8.29268979      -0.00110570       0.00157301      -0.00191187
