9
Lattice="6.53051829653462 7.027373831805951e-09 3.7703965048502943 2.176839434296055 6.157031619219611 3.770396512657689 -6.953212869050854e-08 -3.960455726525665e-08 7.540793130133835" Properties=species:S:1:pos:R:3:forces:R:3 energy=-31.670398712158203 free_energy=-31.670398712158203 stress="0.00010085271060233936 1.6654947421201882e-09 1.3360253348082551e-08 1.6654947421201882e-09 0.00010084191308123991 7.201623297703463e-09 1.3360253348082551e-08 7.201623297703463e-09 0.0001008692488539964" pbc="T T T"
Sc       2.17683957       1.53925769       3.77039630       0.00000110      -0.00000236      -0.00000165
Sc       6.53051933       4.61777392      11.31119136       0.00000558       0.00000196       0.00000829
Fe       0.00000043      -0.00000042       0.00000022      -0.00000355       0.00000364      -0.00000102
I        2.10475160       1.48828445       7.54079303      -0.00100804      -0.00071121      -0.00000006
I        6.60260593       4.66874763       7.54079230       0.00100506       0.00071196      -0.00000377
I        5.47814219       1.48828416       5.59316526       0.00050388      -0.00071212      -0.00087348
I        3.22921470       4.66874740       9.48842095      -0.00050553       0.00071164       0.00086905
I        3.22921504       4.66874752       5.59316475      -0.00050145       0.00071133      -0.00087102
I        5.47814184       1.48828397       9.48842047       0.00050287      -0.00071484       0.00087354
