9
Lattice="5.931599953540992 -2.68161624273209e-08 3.4246109217669733 1.9771999562352596 5.592365960607395 3.4246109269559617 -9.011017786516145e-09 -1.6526680140700682e-11 6.849221859141463" Properties=species:S:1:pos:R:3:forces:R:3 energy=-37.0119743347168 free_energy=-37.0119743347168 stress="-3.7810439152963227e-06 2.4465058867662037e-09 7.904872312280986e-10 2.4465058867662037e-09 -3.761236939681112e-06 3.883913635149838e-09 7.904872312280986e-10 3.883913635149838e-09 -3.747103164641885e-06" pbc="T T T"
Sc       1.97719989       1.39809160       3.42461110       0.00000064       0.00000006       0.00000176
Sc       5.93159980       4.19427453      10.27383267      -0.00000298       0.00000031      -0.00000203
Fe      -0.00000009      -0.00000001       0.00000005       0.00000153       0.00000144       0.00000230
Br       1.86416056       1.31816060       6.84922182       0.00248452       0.00175737       0.00000077
Br       6.04463944       4.27420516       6.84922196      -0.00248572      -0.00175854       0.00000139
Br       4.99951953       1.31816052       5.03902155      -0.00124279       0.00175636       0.00215034
Br       2.90928035       4.27420528       8.65942195       0.00124359      -0.00175805      -0.00215254
Br       2.90928047       4.27420540       5.03902164       0.00124455      -0.00175706       0.00215128
Br       4.99951963       1.31816066       8.65942198      -0.00124349       0.00175798      -0.00215312
