9
Lattice="6.69296608485606 3.1131430753512636e-08 3.8641857220304554 2.230988728103616 6.310188901014255 3.8641857154476424 -3.202785078874726e-08 -3.07093787896327e-08 7.72837149953473" Properties=species:S:1:pos:R:3:forces:R:3 energy=-27.118526458740234 free_energy=-27.118526458740234 stress="6.518289592349902e-05 6.719191869564156e-09 5.334808594881224e-09 6.719191869564156e-09 6.517151632579044e-05 -1.6557376580905725e-09 5.334808594881224e-09 -1.6557376580905725e-09 6.517870497191325e-05" pbc="T T T"
Sc       2.23098913       1.57754674       3.86418567       0.00000181      -0.00000221      -0.00000005
Sc       6.69296595       4.73264212      11.59255720      -0.00000057       0.00000254      -0.00000054
Ga       0.00000005       0.00000006       0.00000038      -0.00000050       0.00000012      -0.00000390
I        2.26019887       1.59820173       7.72837146       0.00149883       0.00105925      -0.00000135
I        6.66375568       4.71198707       7.72837166      -0.00149877      -0.00105855       0.00000003
I        5.56286664       1.59820204       5.82157522      -0.00075095       0.00106028       0.00129826
I        3.36108831       4.71198684       9.63516751       0.00074836      -0.00105710      -0.00129612
I        3.36108815       4.71198700       5.82157540       0.00075021      -0.00106084       0.00129866
I        5.56286634       1.59820200       9.63516728      -0.00074841       0.00105650      -0.00129500
