9
Lattice="4.772751175007923 2.3678841359678302e-07 2.7555491949713193 1.5909172440252997 4.499793265485887 2.755549260021862 1.4696224358071716e-07 1.8358831161797306e-07 5.511098135396587" Properties=species:S:1:pos:R:3:forces:R:3 energy=-48.376747131347656 free_energy=-48.376747131347656 stress="-6.974069492571289e-06 -3.211634691524523e-08 2.990039149608492e-08 -3.211634691524523e-08 -7.027720130281523e-06 -5.306122830006643e-08 2.990039149608492e-08 -5.306122830006643e-08 -7.035252565401606e-06" pbc="T T T"
Sc       1.59091590       1.12494849       2.75554974      -0.00000561      -0.00000267       0.00000754
Sc       4.77275105       3.37484422       8.26664821      -0.00001182      -0.00000555       0.00000158
Ga      -0.00000031       0.00000010      -0.00000024       0.00000155       0.00000386       0.00001072
F        1.57650880       1.11475960       5.51109716       0.00043452       0.00030899      -0.00000361
F        4.78715998       3.38503343       5.51109843      -0.00043392      -0.00030971      -0.00000409
F        3.98449667       1.11475990       4.12084587      -0.00021252       0.00030750       0.00037259
F        2.37917232       3.38503388       6.90135135       0.00022036      -0.00030708      -0.00038069
F        2.37917235       3.38503356       4.12084513       0.00022048      -0.00030449       0.00037158
F        3.98449733       1.11476161       6.90135084      -0.00021350       0.00030872      -0.00037539
