9
Lattice="6.6929661309191255 1.2200789044424996e-08 3.8641857823906918 2.2309887350063518 6.310188855541003 3.864185759532856 2.7715301558089346e-08 -8.397320851295303e-09 7.72837151677706" Properties=species:S:1:pos:R:3:forces:R:3 energy=-27.118526458740234 free_energy=-27.118526458740234 stress="6.517815199913457e-05 -4.766605332662266e-09 -3.6776441891817058e-09 -4.766605332662266e-09 6.518398004118353e-05 -3.634341272373831e-09 -3.6776441891817058e-09 -3.634341272373831e-09 6.519148882944137e-05" pbc="T T T"
Sc       2.23098914       1.57754733       3.86418578       0.00000067       0.00000060       0.00000071
Sc       6.69296587       4.73264185      11.59255749      -0.00000052       0.00000024       0.00000181
Ga       0.00000017      -0.00000015       0.00000033       0.00000010       0.00000011      -0.00000401
I        2.26019905       1.59820174       7.72837161       0.00149810       0.00105815      -0.00000005
I        6.66375569       4.71198705       7.72837169      -0.00149769      -0.00105889      -0.00000120
I        5.56286669       1.59820205       5.82157537      -0.00074932       0.00106049       0.00129683
I        3.36108833       4.71198663       9.63516735       0.00074698      -0.00105751      -0.00129518
I        3.36108818       4.71198676       5.82157535       0.00074962      -0.00106025       0.00129634
I        5.56286645       1.59820220       9.63516727      -0.00074783       0.00105704      -0.00129522
