9
Lattice="4.818354183388473 -5.698438322689115e-07 2.7818774341501857 1.6061177710728027 4.542785888660248 2.7818770059921714 5.849388421037644e-07 -1.1077021835450935e-07 5.5637538551568" Properties=species:S:1:pos:R:3:forces:R:3 energy=-47.365867614746094 free_energy=-47.365867614746094 stress="0.0006542742485180497 -8.583926813798826e-08 -9.111971621678094e-07 -8.583926813798826e-08 0.0006538049783557653 -5.675345278177701e-07 -9.111971621678094e-07 -5.675345278177701e-07 0.0006540524773299694" pbc="T T T"
Sc       1.60611374       1.13569752       2.78187235      -0.00004308      -0.00000097      -0.00001459
Sc       4.81835701       3.40707885       8.34566679       0.00001950      -0.00009939       0.00033021
Ge      -0.00000085      -0.00000176      -0.00000058      -0.00000023       0.00000443       0.00000109
F        1.67174754       1.18210763       5.56375382      -0.00195953      -0.00133546       0.00001136
F        4.75272163       3.36067914       5.56374008       0.00194502       0.00136171      -0.00015439
F        3.98248335       1.18211185       4.22964864       0.00101897      -0.00128475      -0.00173122
F        2.44198713       3.36067963       6.89784898      -0.00103860       0.00135583       0.00163102
F        2.44199952       3.36068348       4.22965213      -0.00090803       0.00139241      -0.00171298
F        3.98248117       1.18210389       6.89785020       0.00096649      -0.00139333       0.00164014
