9
Lattice="6.2211907339484 3.399664758528859e-08 3.591806128577509 2.0737302499348056 5.865394979745874 3.591806174939324 6.6880673832010355e-09 6.151056658357168e-08 7.183612245570954" Properties=species:S:1:pos:R:3:forces:R:3 energy=-31.89322853088379 free_energy=-31.89322853088379 stress="3.788718822761439e-05 -1.159124440874848e-08 -2.503229623584957e-09 -1.159124440874848e-08 3.7897960282862186e-05 1.7969528087746767e-09 -2.503229623584957e-09 1.7969528087746767e-09 3.791112976614386e-05" pbc="T T T"
Sc       2.07373015       1.46635038       3.59180582       0.00000095       0.00000879      -0.00000040
Sc       6.22119026       4.39904605      10.77541809      -0.00000249      -0.00000188      -0.00000049
Ge       0.00000012       0.00000009       0.00000001       0.00000245       0.00000027       0.00000088
Br       2.09881195       1.48408418       7.18361254       0.00022200       0.00015694       0.00000076
Br       6.19610955       4.38131064       7.18361288      -0.00022241      -0.00016049       0.00000160
Br       5.17178497       1.48408461       5.40943042      -0.00011005       0.00015771       0.00019115
Br       3.12313593       4.38131052       8.95779450       0.00011086      -0.00015962      -0.00019041
Br       3.12313610       4.38131026       5.40942999       0.00011116      -0.00015949       0.00019072
Br       5.17178490       1.48408363       8.95779386      -0.00011234       0.00015779      -0.00019376
