9
Lattice="6.153488831032783 -1.6181647956800631e-09 3.552718182250841 2.0511629312896082 5.801564951733853 3.552718201064968 -1.5241127320161143e-07 -8.472849947455157e-08 7.105436628485755" Properties=species:S:1:pos:R:3:forces:R:3 energy=-31.709688186645508 free_energy=-31.709688186645508 stress="0.0002151803782908246 1.1430433488612834e-08 8.468058254607058e-09 1.1430433488612834e-08 0.00021518737776204944 -1.06368833741044e-08 8.468058254607058e-09 -1.06368833741044e-08 0.00021514609397854656" pbc="T T T"
Sc       2.05116206       1.45039165       3.55271846      -0.00000358       0.00000277       0.00000141
Sc       6.15348857       4.35117358      10.65815564      -0.00000110      -0.00000144       0.00000320
Ga       0.00000024       0.00000010       0.00000029      -0.00000224      -0.00000308      -0.00000118
Br       2.06271765       1.45856145       7.10543653       0.00136953       0.00096738       0.00000050
Br       6.14193376       4.34300282       7.10543592      -0.00136382      -0.00096609      -0.00000120
Br       5.12213000       1.45856204       5.33908403      -0.00068225       0.00096719       0.00118458
Br       3.08252176       4.34300322       8.87178865       0.00068326      -0.00096746      -0.00118420
Br       3.08252221       4.34300287       5.33908396       0.00068329      -0.00096699       0.00118230
Br       5.12213020       1.45856171       8.87178853      -0.00068300       0.00096759      -0.00118535
