9
Lattice="5.900509475959908 5.84632026054376e-08 3.406660777155139 1.9668366028120323 5.563053705061291 3.406660680669937 2.2595680318678084e-07 4.1605844054625623e-08 6.813321162941649" Properties=species:S:1:pos:R:3:forces:R:3 energy=-35.074153900146484 free_energy=-35.074153900146484 stress="-9.655217581894249e-05 1.767781121486678e-08 9.811881085397545e-09 1.767781121486678e-08 -9.651891741668805e-05 -3.0534632600165423e-08 9.811881085397545e-09 -3.0534632600165423e-08 -9.659136412665248e-05" pbc="T T T"
Sc       1.96683616       1.39076412       3.40666094      -0.00000133       0.00000563       0.00000138
Sc       5.90051032       4.17229172      10.21998552       0.00000367       0.00000825       0.00002538
Ga      -0.00000004       0.00000052      -0.00000047      -0.00000014      -0.00000650       0.00000451
Cl       1.95439255       1.38196391       6.81332076       0.00034042       0.00023954      -0.00000154
Cl       5.91295407       4.18108891       6.81331980      -0.00033729      -0.00024095      -0.00000878
Cl       4.92331350       1.38196417       5.09921385      -0.00016813       0.00023779       0.00029144
Cl       2.94403191       4.18109003       8.52742827       0.00016635      -0.00024141      -0.00029805
Cl       2.94403319       4.18108900       5.09921333       0.00017089      -0.00024029       0.00028877
Cl       4.92331360       1.38196282       8.52742860      -0.00017443       0.00023790      -0.00030316
