9
Lattice="5.900508887172214 3.081786698913599e-08 3.4066603124602595 1.9668363403857296 5.56305290869962 3.4066602854293273 1.4844375940528663e-07 7.185963835923343e-08 6.813320367808382" Properties=species:S:1:pos:R:3:forces:R:3 energy=-35.074153900146484 free_energy=-35.074153900146484 stress="-9.661989315645769e-05 4.022282951154921e-08 1.184344622373601e-08 4.022282951154921e-08 -9.66024017543532e-05 5.909872413667472e-08 1.184344622373601e-08 5.909872413667472e-08 -9.663419768912718e-05" pbc="T T T"
Sc       1.96683595       1.39076303       3.40665871      -0.00000126       0.00000110      -0.00000667
Sc       5.90050940       4.17229099      10.21998035       0.00000093       0.00000391      -0.00000264
Ga      -0.00000015       0.00000012      -0.00000028       0.00000330      -0.00000534       0.00001009
Cl       1.95439266       1.38196417       6.81332052       0.00033861       0.00023750       0.00000486
Cl       5.91295283       4.18108895       6.81332087      -0.00033776      -0.00023887       0.00000149
Cl       4.92331254       1.38196394       5.09921350      -0.00016674       0.00023622       0.00029536
Cl       2.94403238       4.18108903       8.52742799       0.00017045      -0.00024299      -0.00029397
Cl       2.94403229       4.18108869       5.09921392       0.00016612      -0.00023400       0.00029194
Cl       4.92331359       1.38196311       8.52742823      -0.00017355       0.00024248      -0.00030050
