9
Lattice="6.746528661376252 -2.725868267810947e-08 3.8951101022651446 2.248842875169906 6.360687973310725 3.895110078459451 1.6230532052812443e-08 -1.7679177003788043e-08 7.7902201764181935" Properties=species:S:1:pos:R:3:forces:R:3 energy=-27.961904525756836 free_energy=-27.961904525756836 stress="6.135701551102102e-05 5.314479412099615e-10 -1.0750873080667134e-08 5.314479412099615e-10 6.135562580311671e-05 -1.2198161369880722e-09 -1.0750873080667134e-08 -1.2198161369880722e-09 6.136101728770882e-05" pbc="T T T"
Sc       2.24884306       1.59017225       3.89510980       0.00000061       0.00000071      -0.00000101
Sc       6.74652832       4.77051552      11.68533023      -0.00000157      -0.00000252       0.00000069
Ge       0.00000012      -0.00000011      -0.00000011      -0.00000067      -0.00000072      -0.00000015
I        2.33325956       1.64986413       7.79022015       0.00080933       0.00057326       0.00000032
I        6.66211181       4.71082382       7.79021998      -0.00080802      -0.00057214      -0.00000033
I        5.57989885       1.64986385       5.91577218      -0.00040525       0.00057328       0.00070052
I        3.41547300       4.71082421       9.66466842       0.00040491      -0.00057212      -0.00069970
I        3.41547273       4.71082436       5.91577246       0.00040499      -0.00057251       0.00070042
I        5.57989881       1.64986371       9.66466833      -0.00040432       0.00057274      -0.00070078
