9
Lattice="6.896364709523265 -2.8932435500885125e-07 3.981618010916692 2.298788041238275 6.501954788778716 3.9816178766686456 3.992224947215086e-08 -1.361902778106074e-07 7.963235952685996" Properties=species:S:1:pos:R:3:forces:R:3 energy=-35.32121276855469 free_energy=-35.32121276855469 stress="0.00018480127619113773 -2.001285537289732e-08 -8.841060328279582e-09 -2.001285537289732e-08 0.00018480935250408947 7.076445651676977e-09 -8.841060328279582e-09 7.076445651676977e-09 0.00018482391897123307" pbc="T T T"
Sc       2.29878860       1.62548840       3.98161817      -0.00000075      -0.00000149       0.00000066
Sc       6.89636425       4.87646556      11.94485356       0.00000034       0.00000023       0.00000070
Hf      -0.00000016      -0.00000012       0.00000080       0.00000125       0.00000248      -0.00000499
I        2.31307938       1.63559379       7.96323578       0.00126362       0.00089341       0.00000024
I        6.88207340       4.86636040       7.96323556      -0.00126517      -0.00089356       0.00000026
I        5.73982504       1.63559408       5.98480358      -0.00063202       0.00089344       0.00109312
I        3.45532783       4.86636078       9.94166837       0.00063157      -0.00089231      -0.00109354
I        3.45532779       4.86636052       5.98480328       0.00063236      -0.00089484       0.00109559
I        5.73982501       1.63559405       9.94166825      -0.00063114       0.00089264      -0.00109205
