9
Lattice="4.923321168452614 7.789748437950448e-08 2.8424808934845864 1.6411072139889904 4.641750688503847 2.8424807473070577 5.192732230491034e-08 -1.4231200918773838e-07 5.684961697028476" Properties=species:S:1:pos:R:3:forces:R:3 energy=-56.86495590209961 free_energy=-56.86495590209961 stress="3.351926716277376e-05 -1.4525068081638892e-07 1.2352548139915598e-07 -1.4525068081638892e-07 3.3861440897453576e-05 8.028339237853288e-08 1.2352548139915598e-07 8.028339237853288e-08 3.303698395029642e-05" pbc="T T T"
Sc       1.64110760       1.16043544       2.84247822       0.00000248      -0.00002234      -0.00001701
Sc       4.92332646       3.48131355       8.52743832       0.00004097       0.00000884      -0.00003351
Hf       0.00000005       0.00000021       0.00000006       0.00000509      -0.00000721      -0.00001046
F        1.68301349       1.19007074       5.68496319      -0.00133884      -0.00093800       0.00000981
F        4.88141368       3.45168094       5.68496610       0.00133121       0.00095129       0.00002423
F        4.08181263       1.19006839       4.30001452       0.00066006      -0.00095534      -0.00114286
F        2.48261300       3.45168164       7.06990729      -0.00067812       0.00095356       0.00115275
F        2.48261232       3.45168232       4.30001720      -0.00068706       0.00095946      -0.00113595
F        4.08181428       1.19006847       7.06990802       0.00066394      -0.00095028       0.00115347
