9
Lattice="6.337909633480413 1.0364949347533424e-08 3.6591939386872157 2.1126365175345763 5.975438587382599 3.65919400230726 1.402272412730544e-09 7.890991927630173e-08 7.3183878749456115" Properties=species:S:1:pos:R:3:forces:R:3 energy=-39.9758415222168 free_energy=-39.9758415222168 stress="8.658113802084699e-05 -3.007018989364951e-08 -2.153959233197611e-09 -3.007018989364951e-08 8.661880565341562e-05 7.764284326583493e-09 -2.153959233197611e-09 7.764284326583493e-09 8.662971231387928e-05" pbc="T T T"
Sc       2.11263612       1.49386008       3.65919367      -0.00000144       0.00000084      -0.00000077
Sc       6.33790905       4.48157789      10.97758187      -0.00000155      -0.00000311      -0.00000006
Hf       0.00000041      -0.00000003       0.00000050      -0.00000586       0.00000068      -0.00000981
Br       2.11806251       1.49769662       7.31838792       0.00662720       0.00468755       0.00000051
Br       6.33248347       4.47774202       7.31838777      -0.00662166      -0.00468343       0.00000004
Br       5.27887880       1.49769675       5.49349008      -0.00331157       0.00468507       0.00573689
Br       3.17166826       4.47774196       9.14328562       0.00330985      -0.00468221      -0.00573325
Br       3.17166793       4.47774231       5.49349025       0.00331396      -0.00468647       0.00573826
Br       5.27887812       1.49769707       9.14328571      -0.00330877       0.00468117      -0.00573212
