9
Lattice="6.113667541160371 4.32104811043763e-08 3.5297274744417364 2.0378891667865178 5.76402080178625 3.5297275685605274 4.0874054107828085e-08 1.4417381155787663e-07 7.059454878087534" Properties=species:S:1:pos:R:3:forces:R:3 energy=-36.234718322753906 free_energy=-36.234718322753906 stress="0.00026203959714621305 3.7514595874199586e-08 -1.3047147362499345e-08 3.7514595874199586e-08 0.00026204492314718664 3.772433032622757e-09 -1.3047147362499345e-08 3.772433032622757e-09 0.00026203610468655825" pbc="T T T"
Sc       2.03788862       1.44100509       3.52972740      -0.00000381      -0.00000057       0.00000041
Sc       6.11366819       4.32301570      10.58918182       0.00000246      -0.00000056      -0.00000295
Ir       0.00000000      -0.00000013       0.00000000      -0.00000389      -0.00000129       0.00000532
Br       2.00011594       1.41429566       7.05945505       0.00294625       0.00208368      -0.00000015
Br       6.15144068       4.34972521       7.05945521      -0.00294236      -0.00208073       0.00000122
Br       5.11360965       1.41429558       5.26187893      -0.00147195       0.00208297       0.00255036
Br       3.03794719       4.34972572       8.85703105       0.00147345      -0.00208468      -0.00255287
Br       3.03794699       4.34972551       5.26187905       0.00147336      -0.00208393       0.00255187
Br       5.11360977       1.41429565       8.85703119      -0.00147347       0.00208514      -0.00255324
