9
Lattice="6.604998354138472 1.4051442661170005e-08 3.813397567697728 2.201666165883648 6.227252214231935 3.8133975077866458 7.429924462685783e-08 -2.0838258136040364e-08 7.6267950067054" Properties=species:S:1:pos:R:3:forces:R:3 energy=-32.59768295288086 free_energy=-32.59768295288086 stress="0.0002809130819514394 -1.587417486348386e-08 1.2556935047314255e-08 -1.587417486348386e-08 0.00028092620777897537 -8.44764613816551e-09 1.2556935047314255e-08 -8.44764613816551e-09 0.00028091840795241296" pbc="T T T"
Sc       2.20166635       1.55681321       3.81339731       0.00000178       0.00000053      -0.00000136
Sc       6.60499797       4.67043868      11.44019231      -0.00000172      -0.00000111      -0.00000098
Ir       0.00000034       0.00000012      -0.00000028      -0.00000347       0.00000094       0.00000705
I        2.17235002       1.53608338       7.62679512      -0.00035606      -0.00025173      -0.00000052
I        6.63431434       4.69116873       7.62679534       0.00035806       0.00025295       0.00000028
I        5.51882342       1.53608363       5.69470778       0.00017979      -0.00025348      -0.00031151
I        3.28784114       4.69116894       9.55888248      -0.00017685       0.00025084       0.00030797
I        3.28784142       4.69116863       5.69470787      -0.00017956       0.00025322      -0.00031066
I        5.51882336       1.53608351       9.55888240       0.00017801      -0.00025209       0.00030977
