9
Lattice="4.5954830697284965 -3.419379089286916e-08 2.6532033467923513 1.5318276969396225 4.332662736788451 2.653203278777584 1.1471499768237728e-08 -7.518919900125856e-08 5.306406673715556" Properties=species:S:1:pos:R:3:forces:R:3 energy=-51.0858268737793 free_energy=-51.0858268737793 stress="-3.7036905268905684e-05 1.6164481309033363e-08 8.265676854080084e-08 1.6164481309033363e-08 -3.705521157826297e-05 -1.1729468063492732e-08 8.265676854080084e-08 -1.1729468063492732e-08 -3.685573392431252e-05" pbc="T T T"
Sc       1.53182834       1.08316508       2.65320369       0.00000907      -0.00000479       0.00000080
Sc       4.59548346       3.24949581       7.95960951       0.00000182      -0.00001025      -0.00000304
Ir      -0.00000019       0.00000031       0.00000014       0.00000124       0.00000626      -0.00000601
F        1.66357323       1.17632520       5.30640687      -0.00348234      -0.00245497      -0.00000015
F        4.46373708       3.15633851       5.30640680       0.00347480       0.00245894       0.00000279
F        3.76369594       1.17632444       4.09390018       0.00173476      -0.00245681      -0.00301266
F        2.36361502       3.15633879       6.51891269      -0.00173682       0.00246164       0.00301352
F        2.36361454       3.15633855       4.09390018      -0.00173782       0.00245835      -0.00301021
F        3.76369566       1.17632421       6.51891301       0.00173531      -0.00245826       0.00301495
