9
Lattice="5.891038440802543 1.2133182502064446e-07 3.401192727185095 1.963679552493847 5.554124518243227 3.4011928002194014 -2.5474575376049937e-08 7.143520434033601e-08 6.802385498493454" Properties=species:S:1:pos:R:3:forces:R:3 energy=-38.74624252319336 free_energy=-38.74624252319336 stress="0.0002416311763226986 -2.4710100632319154e-08 -2.4221629146836676e-08 -2.4710100632319154e-08 0.00024158520682249218 1.3960949729607819e-08 -2.4221629146836676e-08 1.3960949729607819e-08 0.00024166578077711165" pbc="T T T"
Sc       1.96368043       1.38853071       3.40119259       0.00000483      -0.00000556       0.00000229
Sc       5.89103703       4.16559330      10.20357692      -0.00000929       0.00000026      -0.00000764
Ir       0.00000010       0.00000014       0.00000018       0.00000241       0.00000802       0.00000333
Cl       1.91687947       1.35543779       6.80238553       0.00409241       0.00289024      -0.00000078
Cl       5.93783905       4.19868697       6.80238596      -0.00409734      -0.00289262       0.00000240
Cl       4.93259893       1.35543835       5.06125885      -0.00204555       0.00289320       0.00354256
Cl       2.92211916       4.19868655       8.54351267       0.00205095      -0.00289513      -0.00354534
Cl       2.92211906       4.19868647       5.06125874       0.00204857      -0.00289410       0.00354356
Cl       4.93259868       1.35543852       8.54351261      -0.00204692       0.00289553      -0.00354044
