9
Lattice="6.136074383077141 -1.3609032311592461e-07 3.542664143096587 2.045357989390876 5.785146226274762 3.5426641604072553 5.0801644468731065e-08 5.7123334587751704e-08 7.085328198202142" Properties=species:S:1:pos:R:3:forces:R:3 energy=-37.96945571899414 free_energy=-37.96945571899414 stress="9.445731848245487e-05 3.451383401298358e-09 5.986072970642908e-09 3.451383401298358e-09 9.44376370171085e-05 -1.3694274603182066e-09 5.986072970642908e-09 -1.3694274603182066e-09 9.446765761822462e-05" pbc="T T T"
Sc       2.04535684       1.44628517       3.54266440      -0.00000740      -0.00000569       0.00000124
Sc       6.13607423       4.33885961      10.62799280      -0.00000084      -0.00000100       0.00000138
Mo       0.00000026       0.00000040       0.00000019      -0.00000349      -0.00000324      -0.00000150
Br       2.07728618       1.46886247       7.08532809       0.00097497       0.00068756       0.00000004
Br       6.10414678       4.31628342       7.08532795      -0.00096955      -0.00068387      -0.00000113
Br       5.09743151       1.46886305       5.34164619      -0.00048341       0.00068832       0.00084265
Br       3.08400094       4.31628362       8.82900976       0.00048628      -0.00068450      -0.00084276
Br       3.08400093       4.31628357       5.34164679       0.00048631      -0.00068446       0.00084238
Br       5.09743201       1.46886323       8.82900983      -0.00048291       0.00068687      -0.00084220
