9
Lattice="4.847194912896765 -1.7613954669791307e-07 2.7985293959089184 1.6157315931744474 4.569980525724659 2.7985291852774354 -8.968965372633821e-07 -8.921714372915618e-07 5.597060345288339" Properties=species:S:1:pos:R:3:forces:R:3 energy=-52.15559387207031 free_energy=-52.15559387207031 stress="4.501251851252164e-07 -1.42169824357552e-07 6.736571549481596e-07 -1.42169824357552e-07 -8.634123105366598e-07 4.506090363065596e-07 6.736571549481596e-07 4.506090363065596e-07 3.957324068437629e-08" pbc="T T T"
Sc       1.61572974       1.14250010       2.79853444      -0.00000936       0.00002770       0.00003822
Sc       4.84719965       3.42747190       8.39557319       0.00003759      -0.00009072      -0.00012020
Mo      -0.00000049       0.00000080       0.00000126      -0.00000113      -0.00000047      -0.00000289
F        1.67054525       1.18125917       5.59705795       0.00027156       0.00025308      -0.00001935
F        4.79237799       3.38872427       5.59706515      -0.00028938      -0.00022209       0.00006101
F        4.01191937       1.18125648       4.24526853      -0.00015345       0.00021392       0.00025946
F        2.45100600       3.38872537       6.94885349       0.00015959      -0.00021130      -0.00024933
F        2.45100081       3.38872077       4.24526736       0.00009826      -0.00023663       0.00026864
F        4.01192434       1.18125971       6.94885391      -0.00011340       0.00026661      -0.00023514
