9
Lattice="6.726394273087803 6.630941214007847e-08 3.883485476336541 2.2421314060729003 6.341705386920359 3.883485616298006 -6.971437674488244e-08 1.2212157689988548e-07 7.766971073421917" Properties=species:S:1:pos:R:3:forces:R:3 energy=-33.60911560058594 free_energy=-33.60911560058594 stress="-8.232043910538778e-05 -3.336748433113712e-09 1.055709075714617e-09 -3.336748433113712e-09 -8.231376705225557e-05 1.3665545139929236e-08 1.055709075714617e-09 1.3665545139929236e-08 -8.230817911680788e-05" pbc="T T T"
Sc       2.24213157       1.58542663       3.88348493       0.00000001       0.00000172      -0.00000203
Sc       6.72639467       4.75627891      11.65045678       0.00000215      -0.00000066      -0.00000007
Mo       0.00000000       0.00000035       0.00000024      -0.00000132      -0.00000494       0.00000091
I        2.26792122       1.60366309       7.76697117      -0.00425654      -0.00300844       0.00000080
I        6.70060447       4.73804254       7.76697125       0.00425839       0.00301075      -0.00000048
I        5.59243318       1.60366272       5.84756340       0.00212827      -0.00301021      -0.00368770
I        3.37609209       4.73804255       9.68637879      -0.00213009       0.00301095       0.00368904
I        3.37609172       4.73804297       5.84756317      -0.00212849       0.00301055      -0.00368643
I        5.59243353       1.60366252       9.68637895       0.00212761      -0.00300968       0.00368594
