9
Lattice="4.572093292563231 -1.18235568884816e-07 2.6396991698543104 1.52403098531561 4.310610846718407 2.6396991711219453 -2.5035765255098724e-07 -1.7547709568147973e-07 5.2793987733408745" Properties=species:S:1:pos:R:3:forces:R:3 energy=-54.81137466430664 free_energy=-54.81137466430664 stress="-0.0004314912366680801 9.854675653286904e-08 -8.188081324078667e-08 9.854675653286904e-08 -0.000431366526754573 -4.635956685206111e-08 -8.188081324078667e-08 -4.635956685206111e-08 -0.0004313390236347914" pbc="T T T"
Sc       1.52403220       1.07765170       2.63969951       0.00000682      -0.00000979       0.00000006
Sc       4.57209224       3.23295711       7.91909911      -0.00000341      -0.00000577       0.00001187
Mn       0.00000018       0.00000007      -0.00000011      -0.00000817      -0.00000173      -0.00000795
F        1.58638349       1.12174260       5.27939876       0.00080836       0.00057216      -0.00000367
F        4.50974039       3.18886875       5.27939799      -0.00080819      -0.00056305      -0.00000518
F        3.77890201       1.12174271       4.01354731      -0.00040546       0.00057912       0.00069613
F        2.31722207       3.18886818       6.54524895       0.00040301      -0.00056703      -0.00069903
F        2.31722275       3.18886866       4.01354752       0.00041244      -0.00057536       0.00070156
F        3.77890085       1.12174246       6.54524931      -0.00040501       0.00057124      -0.00069389
