9
Lattice="5.970633395159693 7.77158349447602e-09 3.4471465939773 1.9902110494397836 5.629166940507988 3.4471467491815364 -2.1827219475535735e-07 3.57438315623846e-08 6.894293566013083" Properties=species:S:1:pos:R:3:forces:R:3 energy=-38.360260009765625 free_energy=-38.360260009765625 stress="0.0003014508984051645 -6.88003831683659e-09 -3.910558099562422e-09 -6.88003831683659e-09 0.00030146606150083244 -8.441361387667712e-09 -3.910558099562422e-09 -8.441361387667712e-09 0.0003014221729245037" pbc="T T T"
Sc       1.99021085       1.40729062       3.44714729       0.00000048      -0.00000622       0.00000175
Sc       5.97063260       4.22187459      10.34144094      -0.00000409      -0.00000267       0.00000340
Mn       0.00000016       0.00000024      -0.00000042      -0.00000043      -0.00000271       0.00000313
Br       1.92641137       1.36217859       6.89429324       0.00319167       0.00225622      -0.00000085
Br       6.03443265       4.26698875       6.89429315      -0.00318880      -0.00225121      -0.00000180
Br       5.00742796       1.36217872       5.11546765      -0.00159454       0.00225694       0.00276210
Br       2.95341675       4.26698896       8.67311914       0.00159505      -0.00225397      -0.00276488
Br       2.95341709       4.26698863       5.11546740       0.00159642      -0.00225225       0.00276167
Br       5.00742746       1.36217879       8.67311925      -0.00159575       0.00225588      -0.00276440
