9
Lattice="5.832508439023801 -5.617025018143764e-09 3.367400199679155 1.944169469924331 5.498942113724205 3.3674002073945606 4.351440967565812e-08 4.021865712028617e-08 6.734800323989155" Properties=species:S:1:pos:R:3:forces:R:3 energy=-41.475711822509766 free_energy=-41.475711822509766 stress="0.00022292029461823404 1.7139681673938867e-08 1.0118375470824503e-08 1.7139681673938867e-08 0.00022284848091658205 1.9042870391672295e-08 1.0118375470824503e-08 1.9042870391672295e-08 0.0002228772355010733" pbc="T T T"
Sc       1.94416888       1.37473574       3.36740017      -0.00000062       0.00000331      -0.00000030
Sc       5.83250908       4.12420721      10.10219999       0.00000506       0.00000033      -0.00000525
Mo       0.00000011      -0.00000015      -0.00000026      -0.00000088      -0.00000141       0.00000418
Cl       1.96709310       1.39094533       6.73480034       0.00220680       0.00156005       0.00000005
Cl       5.80958489       4.10799682       6.73480054      -0.00220717      -0.00156162       0.00000265
Cl       4.84896173       1.39094517       5.07095262      -0.00110249       0.00155723       0.00191222
Cl       2.92771602       4.10799651       8.39864823       0.00110299      -0.00156007      -0.00190949
Cl       2.92771592       4.10799694       5.07095302       0.00110016      -0.00155821       0.00190978
Cl       4.84896206       1.39094501       8.39864830      -0.00110406       0.00156043      -0.00191359
