9
Lattice="6.627168708758714 -6.682858854827403e-08 3.8261977018663806 2.209056166996994 6.248154556921895 3.8261977126904525 1.1142144405323995e-08 2.1135377942118157e-08 7.652395384434023" Properties=species:S:1:pos:R:3:forces:R:3 energy=-33.38313293457031 free_energy=-33.38313293457031 stress="-0.00011413519678171724 -6.790918938293089e-09 1.3601934023554918e-09 -6.790918938293089e-09 -0.00011413025640649721 8.537518247919706e-09 1.3601934023554918e-09 8.537518247919706e-09 -0.00011413019092287868" pbc="T T T"
Sc       2.20905639       1.56203790       3.82619764       0.00000121      -0.00000262      -0.00000074
Sc       6.62716867       4.68611592      11.47859382      -0.00000057      -0.00000032       0.00000249
Mn      -0.00000009      -0.00000013      -0.00000020       0.00000060       0.00000093       0.00000118
I        2.21598591       1.56693885       7.65239533       0.00496678       0.00351238      -0.00000042
I        6.62023883       4.68121607       7.65239516      -0.00496919      -0.00351305      -0.00000107
I        5.51917572       1.56693880       5.74529779      -0.00248379       0.00351366       0.00430201
I        3.31704917       4.68121595       9.55949300       0.00248408      -0.00351299      -0.00430301
I        3.31704935       4.68121610       5.74529783       0.00248552      -0.00351200       0.00430369
I        5.51917562       1.56693857       9.55949283      -0.00248467       0.00351403      -0.00430419
