9
Lattice="4.84679046406291 1.2697957183450315e-06 2.7982980730256504 1.615597883861261 4.569600405366051 2.7982983062772453 4.312208147175257e-07 5.905929411452979e-07 5.596595399154862" Properties=species:S:1:pos:R:3:forces:R:3 energy=-52.15558624267578 free_energy=-52.15558624267578 stress="-0.0002510054619051516 -6.07873289482086e-07 5.815631531902454e-09 -6.07873289482086e-07 -0.0002525502350181341 -3.46372459603117e-08 5.815631531902454e-09 -3.46372459603117e-08 -0.0002527014003135264" pbc="T T T"
Sc       1.61557825       1.14239555       2.79829556      -0.00014310      -0.00004244      -0.00001740
Sc       4.84679985       3.42718754       8.39489142       0.00005750      -0.00011105      -0.00001629
Mo       0.00000126       0.00000207       0.00000056      -0.00000215       0.00000069       0.00000092
F        1.67023456       1.18104213       5.59659710       0.00552899       0.00399274       0.00001378
F        4.79215671       3.38856452       5.59659560      -0.00554264      -0.00396001       0.00000196
F        4.01167732       1.18103911       4.24476686      -0.00272012       0.00396085       0.00483769
F        2.45071498       3.38856928       6.94842515       0.00277421      -0.00390768      -0.00484723
F        2.45071281       3.38856904       4.24476931       0.00276142      -0.00390011       0.00485981
F        4.01167942       1.18103975       6.94842470      -0.00271451       0.00396717      -0.00483316
