9
Lattice="6.726274637376129 3.684659482648895e-08 3.883416429453911 2.242091562528876 6.34159248450997 3.8834164606351003 2.340419118959228e-08 5.473825080367943e-08 7.76683281837053" Properties=species:S:1:pos:R:3:forces:R:3 energy=-33.6091194152832 free_energy=-33.6091194152832 stress="-0.00017063358973246068 1.8777129184854857e-08 8.469658752119358e-09 1.8777129184854857e-08 -0.00017065239080693573 -3.879768062375888e-09 8.469658752119358e-09 -3.879768062375888e-09 -0.00017066336295101792" pbc="T T T"
Sc       2.24209128       1.58539793       3.88341622      -0.00000187      -0.00000059      -0.00000043
Sc       6.72627477       4.75619433      11.65024989       0.00000074      -0.00000082       0.00000130
Mo       0.00000014       0.00000023      -0.00000022      -0.00000264      -0.00000142       0.00000156
I        2.26721824       1.60316531       7.76683281       0.00327423       0.00231553       0.00000117
I        6.70114782       4.73842723       7.76683260      -0.00327175      -0.00231314      -0.00000004
I        5.59266583       1.60316543       5.84688470      -0.00163562       0.00231529       0.00283560
I        3.37570025       4.73842744       9.68678103       0.00163756      -0.00231677      -0.00283770
I        3.37570063       4.73842733       5.84688494       0.00163692      -0.00231452       0.00283569
I        5.59266591       1.60316506       9.68678088      -0.00163757       0.00231646      -0.00283717
