9
Lattice="5.725288557102079 1.5605372183736414e-09 3.3054968896972428 1.9084294654241079 5.397853747663628 3.3054969851007074 2.7576061628763694e-09 1.1879481020871797e-07 6.610993774618192" Properties=species:S:1:pos:R:3:forces:R:3 energy=-42.09048843383789 free_energy=-42.09048843383789 stress="0.0003241276426706463 1.79934200872367e-08 -1.3051981717637773e-08 1.79934200872367e-08 0.0003241921658627689 1.751487843648647e-08 -1.3051981717637773e-08 1.751487843648647e-08 0.0003241829399485141" pbc="T T T"
Sc       1.90842929       1.34946375       3.30549657      -0.00000430       0.00000316      -0.00000236
Sc       5.72528733       4.04838847       9.91649134      -0.00000361      -0.00001396       0.00000479
Mn       0.00000009      -0.00000007       0.00000007       0.00000106       0.00000100       0.00000022
Cl       1.88804907       1.33505320       6.61099388       0.00550084       0.00389309      -0.00000035
Cl       5.74566894       4.06280100       6.61099364      -0.00550166      -0.00389177      -0.00000144
Cl       4.78126434       1.33505321       4.94059572      -0.00274975       0.00389558       0.00476151
Cl       2.85245463       4.06280146       8.28139174       0.00275216      -0.00389029      -0.00476310
Cl       2.85245436       4.06280176       4.94059575       0.00275615      -0.00389081       0.00476506
Cl       4.78126404       1.33505268       8.28139186      -0.00275107       0.00389409      -0.00476448
