9
Lattice="4.3768011864837 -1.101839720990486e-07 2.526947838083509 1.4589336732868279 4.126486880541897 2.5269477543539494 -9.74322833479827e-08 -1.714424728434645e-07 5.053895844924677" Properties=species:S:1:pos:R:3:forces:R:3 energy=-47.15361022949219 free_energy=-47.15361022949219 stress="-0.0004706691252067685 -1.6065708052792615e-07 -2.639048943819944e-07 -1.6065708052792615e-07 -0.00047007991815917194 -9.94269697685013e-08 -2.639048943819944e-07 -9.94269697685013e-08 -0.00047068129060789943" pbc="T T T"
Sc       1.45893373       1.03162375       2.52694782       0.00000070       0.00000127      -0.00000859
Sc       4.37680059       3.09486401       7.58083848      -0.00000314       0.00000090      -0.00000382
N       -0.00000012      -0.00000007       0.00000136      -0.00000469      -0.00000493      -0.00002145
F        1.46079849       1.03294029       5.05389631       0.00632524       0.00447547       0.00000393
F        4.37493560       3.09354577       5.05389645      -0.00631285      -0.00446570       0.00000550
F        3.64640143       1.03294029       3.79203819      -0.00315881       0.00446367       0.00547123
F        2.18933432       3.09354739       6.31575544       0.00315523      -0.00446320      -0.00546074
F        2.18933413       3.09354613       3.79203741       0.00315642      -0.00446951       0.00547647
F        3.64640129       1.03293942       6.31575501      -0.00315809       0.00446355      -0.00546098
