9
Lattice="5.758869047913749 1.5807938310524012e-07 3.3248845676795247 1.9196231202846101 5.429514030582966 3.3248846451460525 7.241650491006921e-08 1.46082937278248e-07 6.6497690099299955" Properties=species:S:1:pos:R:3:forces:R:3 energy=-41.373775482177734 free_energy=-41.373775482177734 stress="0.00023485954443458468 4.226837901910585e-08 8.736377843376886e-09 4.226837901910585e-08 0.000234743463806808 5.055581553392585e-08 8.736377843376886e-09 5.055581553392585e-08 0.00023478227376472205" pbc="T T T"
Sc       1.91962479       1.35737870       3.32488537       0.00001267      -0.00000272       0.00000882
Sc       5.75886969       4.07213687       9.97464979       0.00000170       0.00000884      -0.00002855
Nb       0.00000036      -0.00000017       0.00000098      -0.00000548       0.00000026      -0.00000545
Cl       1.98665450       1.40477702       6.64976879      -0.00627297      -0.00443581      -0.00000255
Cl       5.69183735       4.02473732       6.64977056       0.00627568       0.00444034       0.00001031
Cl       4.76554115       1.40477601       5.04537790       0.00312677      -0.00443900      -0.00542846
Cl       2.91295070       4.02473725       8.25416075      -0.00313355       0.00443456       0.00543350
Cl       2.91294945       4.02473738       5.04537802      -0.00314009       0.00442970      -0.00542369
Cl       4.76554108       1.40477690       8.25416084       0.00313528      -0.00443622       0.00543630
