9
Lattice="5.691936829820564 8.515187666984817e-08 3.2862412266429835 1.8973123202790863 5.366409665741697 3.286241290052885 -6.225938142925365e-08 3.363691814308623e-08 6.572482561122385" Properties=species:S:1:pos:R:3:forces:R:3 energy=-37.389007568359375 free_energy=-37.389007568359375 stress="0.00017458714137319475 -3.2340899736027495e-08 1.0187998000787957e-08 -3.2340899736027495e-08 0.00017458153888583183 1.7232283155976802e-08 1.0187998000787957e-08 1.7232283155976802e-08 0.00017460032540839165" pbc="T T T"
Sc       1.89731337       1.34160251       3.28624180       0.00001027       0.00000045       0.00000292
Sc       5.69193554       4.02480684       9.85872433      -0.00000896      -0.00000386       0.00000588
Ni      -0.00000007      -0.00000000      -0.00000010       0.00000059       0.00000040      -0.00000025
Cl       1.87600161       1.32653356       6.57248243       0.00135525       0.00095664      -0.00000157
Cl       5.71324778       4.03987649       6.57248226      -0.00135680      -0.00095834      -0.00000293
Cl       4.75393581       1.32653356       4.91090575      -0.00068035       0.00095987       0.00117173
Cl       2.83531333       4.03987631       8.23405882       0.00067881      -0.00095619      -0.00117204
Cl       2.83531331       4.03987632       4.91090597       0.00068037      -0.00095944       0.00116936
Cl       4.75393567       1.32653359       8.23405901      -0.00067915       0.00096036      -0.00117308
