9
Lattice="5.630785290279597 1.228025977957628e-07 3.2509354550726197 1.8769285691370885 5.30875537573362 3.2509354147773504 7.461754975587511e-08 3.411151416544412e-09 6.5018707809038085" Properties=species:S:1:pos:R:3:forces:R:3 energy=-33.62901306152344 free_energy=-33.62901306152344 stress="-3.631725849118084e-05 -6.539237484837201e-10 2.3846395968973866e-09 -6.539237484837201e-10 -3.632767402450554e-05 -1.768535762280976e-09 2.3846395968973866e-09 -1.768535762280976e-09 -3.628786726039834e-05" pbc="T T T"
Sc       1.87692913       1.32718942       3.25093587       0.00000904       0.00000580       0.00000425
Sc       5.63078634       3.98156723       9.75280640       0.00001059       0.00000371       0.00000392
N        0.00000483       0.00000046       0.00000113       0.00002941       0.00000372       0.00000549
Cl       1.92889717       1.36393701       6.50187036       0.00058305       0.00041603      -0.00000222
Cl       5.57881461       3.94481796       6.50187051      -0.00060463      -0.00042441      -0.00000171
Cl       4.66633521       1.36393661       4.92141006      -0.00030389       0.00041842       0.00051153
Cl       2.84137626       3.94481832       8.08233160       0.00028972      -0.00042234      -0.00051443
Cl       2.84137630       3.94481840       4.92140977       0.00028989      -0.00041948       0.00051238
Cl       4.66633575       1.36393668       8.08233094      -0.00030335       0.00041859      -0.00051919
