9
Lattice="4.901933830730698 -5.27752660551863e-07 2.8301320860350194 1.6339775979301283 4.621585520425482 2.8301318228962384 -1.1074689876904547e-08 -3.301088219849779e-07 5.660264191251894" Properties=species:S:1:pos:R:3:forces:R:3 energy=-54.64826965332031 free_energy=-54.64826965332031 stress="-3.2436742912977934e-05 3.967724637732317e-07 1.2738074417484313e-07 3.967724637732317e-07 -3.088142693741247e-05 2.0063435357542403e-08 1.2738074417484313e-07 2.0063435357542403e-08 -3.134403596050106e-05" pbc="T T T"
Sc       1.63398252       1.15539131       2.83013261       0.00004623      -0.00005803       0.00001000
Sc       4.90193201       3.46618646       8.49039556      -0.00001891      -0.00000918      -0.00000559
Nb       0.00000038      -0.00000260       0.00000026      -0.00000147      -0.00000365      -0.00000575
F        1.70244836       1.20380839       5.66026183       0.00014228       0.00008744      -0.00001071
F        4.83345873       3.41777949       5.66026420      -0.00016600      -0.00005847       0.00000180
F        4.05070567       1.20381134       4.30449017      -0.00009701       0.00010431       0.00010085
F        2.48520670       3.41777617       7.01603292       0.00009486      -0.00008011      -0.00012416
F        2.48520432       3.41777722       4.30449749       0.00008363      -0.00007844       0.00013274
F        4.05070712       1.20381086       7.01603659      -0.00008377       0.00009650      -0.00009918
