9
Lattice="4.377905443710731 5.873518349308711e-07 2.5275850851192203 1.4593022608079298 4.127529034626165 2.5275852713542926 3.563326964534341e-07 4.800557799774258e-07 5.055169553052055" Properties=species:S:1:pos:R:3:forces:R:3 energy=-47.15361785888672 free_energy=-47.15361785888672 stress="0.00027011975180357695 -8.726297551220341e-08 -1.3701502155072376e-07 -8.726297551220341e-08 0.00027033904916606843 -2.461154622324102e-07 -1.3701502155072376e-07 -2.461154622324102e-07 0.0002700370387174189" pbc="T T T"
Sc       1.45930154       1.03188645       2.52758855      -0.00000016       0.00000654       0.00000385
Sc       4.37790651       3.09564930       7.58275371       0.00000052       0.00000777       0.00000449
N        0.00000015      -0.00000100       0.00000009      -0.00000062       0.00000447      -0.00001291
F        1.46106754       1.03313114       5.05516925       0.00077105       0.00054121      -0.00000119
F        4.37614090       3.09439712       5.05516977      -0.00077343      -0.00054896       0.00000279
F        3.64737271       1.03313136       3.79290640      -0.00038457       0.00054169       0.00066781
F        2.18983508       3.09439784       6.31743242       0.00038588      -0.00054693      -0.00066614
F        2.18983610       3.09439718       3.79290683       0.00038207      -0.00054288       0.00066090
F        3.64737257       1.03313086       6.31743235      -0.00038195       0.00053668      -0.00065947
