9
Lattice="4.5182478855384725 7.265253226492725e-08 2.608611542827257 1.5060826997172745 4.259844857554632 2.608611538138581 6.027887775699983e-08 3.688121847455747e-08 5.217222981248421" Properties=species:S:1:pos:R:3:forces:R:3 energy=-49.95576095581055 free_energy=-49.95576095581055 stress="0.0001456222526030615 -4.1974166364866505e-09 1.3153118594289026e-08 -4.1974166364866505e-09 0.00014566049503628165 -3.594850639387914e-08 1.3153118594289026e-08 -3.594850639387914e-08 0.00014568323967978358" pbc="T T T"
Sc       1.50608291       1.06496145       2.60861134       0.00000121       0.00000049      -0.00000109
Sc       4.51824764       3.19488351       7.82583465      -0.00000270       0.00000060       0.00000110
Ni      -0.00000002       0.00000002      -0.00000019      -0.00000061       0.00000066      -0.00000006
F        1.53718091       1.08695110       5.21722314       0.00045660       0.00032288       0.00000103
F        4.48714960       3.17289382       5.21722300      -0.00045618      -0.00032355       0.00000038
F        3.74965748       1.08695103       3.93984911      -0.00022857       0.00032344       0.00039527
F        2.27467327       3.17289395       6.49459706       0.00022961      -0.00032371      -0.00039580
F        2.27467326       3.17289382       3.93984904       0.00022919      -0.00032248       0.00039360
F        3.74965747       1.08695114       6.49459710      -0.00022817       0.00032143      -0.00039417
