9
Lattice="6.847016662951776 2.6271906190510526e-08 3.9531268940228816 2.282338918430796 6.455429285365342 3.9531268836118207 3.482752796518679e-08 1.1875905461200982e-08 7.906253727722726" Properties=species:S:1:pos:R:3:forces:R:3 energy=-33.364967346191406 free_energy=-33.364967346191406 stress="0.00012514089758042246 -2.8723619038828474e-08 5.807415437431018e-09 -2.8723619038828474e-08 0.00012516470451373607 7.566357318466999e-09 5.807415437431018e-09 7.566357318466999e-09 0.00012516963761299849" pbc="T T T"
Sc       2.28233888       1.61385732       3.95312674      -0.00000108      -0.00000090       0.00000151
Sc       6.84701685       4.84157191      11.85938120       0.00000060       0.00000010       0.00000135
Nb      -0.00000009      -0.00000010       0.00000022       0.00000127       0.00000235      -0.00000079
I        2.29736751       1.62448415       7.90625377       0.00137691       0.00097401      -0.00000001
I        6.83198833       4.83094523       7.90625358      -0.00137827      -0.00097445      -0.00000104
I        5.69833280       1.62448443       5.94270546      -0.00068726       0.00097300       0.00119042
I        3.43102272       4.83094499       9.86980191       0.00068675      -0.00097188      -0.00119214
I        3.43102277       4.83094502       5.94270560       0.00068887      -0.00097381       0.00119229
I        5.69833277       1.62448438       9.86980159      -0.00068776       0.00097159      -0.00119160
