9
Lattice="6.2244803031306715 -1.0439130043997831e-07 3.5937047731071234 2.0748266165067117 5.868496076612872 3.593704864529016 -3.917808868830719e-08 8.42654262584797e-08 7.187409614072684" Properties=species:S:1:pos:R:3:forces:R:3 energy=-37.64011764526367 free_energy=-37.64011764526367 stress="-0.00012487101776059717 1.9082818880633567e-08 -1.1969744306838948e-08 1.9082818880633567e-08 -0.00012485690240282565 1.1131889188220612e-08 -1.1969744306838948e-08 1.1131889188220612e-08 -0.0001248770422535017" pbc="T T T"
Sc       2.07482569       1.46712482       3.59370548      -0.00000373       0.00000406       0.00000191
Sc       6.22448116       4.40137090      10.78111569       0.00000338      -0.00000460       0.00000504
Nb       0.00000010       0.00000005      -0.00000059      -0.00000029       0.00000378       0.00000472
Br       2.10627589       1.48936210       7.18740933      -0.00184923      -0.00130576      -0.00000053
Br       6.19303117       4.37913407       7.18740920       0.00184765       0.00130442      -0.00000124
Br       5.17134226       1.48936213       5.41779261       0.00092685      -0.00130761      -0.00160268
Br       3.12796452       4.37913403       8.95702615      -0.00092368       0.00130437       0.00159663
Br       3.12796456       4.37913406       5.41779264      -0.00092505       0.00130685      -0.00160167
Br       5.17134216       1.48936203       8.95702647       0.00092424      -0.00130548       0.00159803
