9
Lattice="6.520367421746157 3.14208803660639e-08 3.764535898697158 2.173455836752691 6.147461361277069 3.764535898904828 1.4669153761581118e-08 1.0627031103942015e-08 7.529071771986546" Properties=species:S:1:pos:R:3:forces:R:3 energy=-29.581260681152344 free_energy=-29.581260681152344 stress="0.00025031130644492805 2.360069473184012e-09 -4.164953715246611e-09 2.360069473184012e-09 0.00025030793040059507 2.034544310802744e-09 -4.164953715246611e-09 2.034544310802744e-09 0.00025031613768078387" pbc="T T T"
Sc       2.17345579       1.53686519       3.76453632      -0.00000092      -0.00000093       0.00000198
Sc       6.52036743       4.61059603      11.29360788       0.00000060       0.00000036      -0.00000013
Ni      -0.00000012      -0.00000004      -0.00000017      -0.00000104       0.00000076       0.00000002
I        2.16271662       1.52927147       7.52907169      -0.00081017      -0.00057182      -0.00000057
I        6.53110684       4.61818999       7.52907164       0.00080943       0.00057307       0.00000010
I        5.43900896       1.52927151       5.63750343       0.00040521      -0.00057273      -0.00070228
I        3.25481414       4.61819013       9.42064014      -0.00040419       0.00057279       0.00069878
I        3.25481421       4.61818978       5.63750321      -0.00040439       0.00057112      -0.00070032
I        5.43900923       1.52927155       9.42064015       0.00040546      -0.00057260       0.00070247
