9
Lattice="5.979718352379565 8.040161431747714e-09 3.452392118949018 1.993239446326175 5.637732685143212 3.4523921398156467 -4.558711324841705e-08 -6.678676928218281e-09 6.904784316857257" Properties=species:S:1:pos:R:3:forces:R:3 energy=-34.03676986694336 free_energy=-34.03676986694336 stress="0.00013164490519557148 2.7922684164849443e-09 1.4908111412026415e-09 2.7922684164849443e-09 0.0001316541456617415 6.771365246294181e-09 1.4908111412026415e-09 6.771365246294181e-09 0.00013167229190003127" pbc="T T T"
Sc       1.99323882       1.40943375       3.45239172      -0.00000431       0.00000372      -0.00000285
Sc       5.97971815       4.22829926      10.35717761       0.00000001      -0.00000000       0.00000805
Ni       0.00000013       0.00000014       0.00000031       0.00000042      -0.00000077      -0.00000269
Br       1.97522616       1.39669574       6.90478426       0.00110769       0.00078302       0.00000073
Br       5.99773182       4.24103660       6.90478354      -0.00110528      -0.00078378      -0.00000380
Br       4.99210547       1.39669586       5.16298822      -0.00055269       0.00078462       0.00095840
Br       2.98085242       4.24103652       8.64658022       0.00055102      -0.00078347      -0.00095736
Br       2.98085260       4.24103695       5.16298828       0.00055568      -0.00078411       0.00095826
Br       4.99210542       1.39669589       8.64658017      -0.00055239       0.00078084      -0.00095870
