9
Lattice="6.653369241019468 1.692070231315976e-08 3.8413245461496848 2.2177897514832785 6.272856767059482 3.8413245660270054 -3.284767651618052e-09 2.2022016074936296e-08 7.682649097988742" Properties=species:S:1:pos:R:3:forces:R:3 energy=-33.1212043762207 free_energy=-33.1212043762207 stress="0.00022291459026746452 -7.242310751109926e-09 7.266423018847945e-09 -7.242310751109926e-09 0.00022289823391474783 -9.102500975188832e-09 7.266423018847945e-09 -9.102500975188832e-09 0.00022291064669843763" pbc="T T T"
Sc       2.21778990       1.56821406       3.84132463       0.00000058      -0.00000104      -0.00000106
Sc       6.65336951       4.70464229      11.52397342       0.00000021      -0.00000105       0.00000015
Os      -0.00000008      -0.00000004       0.00000019       0.00000131       0.00000080       0.00000046
I        2.19478336       1.55194658       7.68264910       0.00154496       0.00109354       0.00000016
I        6.67637555       4.72091045       7.68264919      -0.00154629      -0.00109385       0.00000045
I        5.55597744       1.55194634       5.74206276      -0.00077318       0.00109380       0.00133964
I        3.31518149       4.72091050       9.62323528       0.00077312      -0.00109330      -0.00133949
I        3.31518138       4.72091057       5.74206284       0.00077206      -0.00109233       0.00133876
I        5.55597743       1.55194647       9.62323544      -0.00077279       0.00109344      -0.00133912
