9
Lattice="4.619622454343434 -2.537365210905452e-07 2.667140298184674 1.5398739279138174 4.355421964076155 2.6671402710068572 -1.9757991174353602e-07 -1.729959500681675e-07 5.334280938587763" Properties=species:S:1:pos:R:3:forces:R:3 energy=-51.53524398803711 free_energy=-51.53524398803711 stress="-0.00020399333152454346 -1.0721431742410914e-08 1.157061717549368e-07 -1.0721431742410914e-08 -0.00020367486285977066 -8.281508456775555e-08 1.157061717549368e-07 -8.281508456775555e-08 -0.00020389098790474236" pbc="T T T"
Sc       1.53987551       1.08885441       2.66714237       0.00001642      -0.00000689       0.00002144
Sc       4.61962374       3.26656714       8.00142211       0.00001580       0.00000968       0.00001199
Os      -0.00000057       0.00000002      -0.00000033       0.00000034       0.00000142       0.00000717
F        1.70416883       1.20502861       5.33427936       0.00047806       0.00033516      -0.00001410
F        4.45532694       3.15039279       5.33428112      -0.00048795      -0.00033677       0.00000237
F        3.76753709       1.20502936       4.14299364      -0.00024582       0.00033605       0.00040835
F        2.39195755       3.15039283       6.52556694       0.00023605      -0.00033921      -0.00042483
F        2.39195846       3.15039267       4.14299387       0.00023250      -0.00033498       0.00041118
F        3.76753713       1.20502829       6.52556690      -0.00024587       0.00033537      -0.00042427
