9
Lattice="5.914504289322947 9.924425043368504e-08 3.414740454604171 1.9715014953690602 5.5762481996764555 3.4147405030558806 -7.468948190621346e-08 6.52752862473229e-09 6.829481038574317" Properties=species:S:1:pos:R:3:forces:R:3 energy=-39.46971893310547 free_energy=-39.46971893310547 stress="2.2674078081763582e-06 3.451410179877712e-08 2.2029908564036305e-08 3.451410179877712e-08 2.271181756441365e-06 2.3280621874732788e-08 2.2029908564036305e-08 2.3280621874732788e-08 2.2782935502618784e-06" pbc="T T T"
Sc       1.97149974       1.39406332       3.41473807      -0.00001012       0.00000941      -0.00001478
Sc       5.91450545       4.18218476      10.24422476       0.00001005      -0.00000879       0.00002255
Os       0.00000010       0.00000021       0.00000020       0.00000393       0.00000104       0.00000065
Cl       1.93582905       1.36883862       6.82948192      -0.00038970      -0.00027008       0.00000587
Cl       5.95017668       4.20740994       6.82947979       0.00038634       0.00026877      -0.00000775
Cl       4.94659058       1.36883841       5.09121767       0.00019896      -0.00026855      -0.00033522
Cl       2.93941473       4.20741000       8.56774402      -0.00019748       0.00026771       0.00033161
Cl       2.93941626       4.20741062       5.09121760      -0.00019356       0.00027236      -0.00033273
Cl       4.94659021       1.36883740       8.56774389       0.00019163      -0.00027197       0.00032975
