9
Lattice="6.351613094719774 3.1746697929650555e-08 3.6671055897816345 2.1172043464080375 5.98835845286018 3.6671056736641847 -1.743752598509583e-07 -2.056717682774124e-08 7.334211481590068" Properties=species:S:1:pos:R:3:forces:R:3 energy=-30.857345581054688 free_energy=-30.857345581054688 stress="0.00015108917432371527 1.4047103036318731e-08 1.9261907624468222e-08 1.4047103036318731e-08 0.0001510694855824113 -6.2500515873864515e-09 1.9261907624468222e-08 -6.2500515873864515e-09 0.00015106701175682247" pbc="T T T"
Sc       2.11720396       1.49709024       3.66710617      -0.00000162       0.00000376       0.00000223
Sc       6.35161317       4.49126929      11.00131598      -0.00000038       0.00000207      -0.00000525
Pb      -0.00000016       0.00000006      -0.00000001      -0.00000158       0.00000199       0.00000032
Br       2.25462664       1.59426157       7.33421128       0.00174196       0.00123068      -0.00000039
Br       6.21419099       4.39409635       7.33421177      -0.00174057      -0.00123311       0.00000219
Br       5.22429962       1.59426162       5.61966986      -0.00087225       0.00123046       0.00151044
Br       3.24451770       4.39409637       9.04875327       0.00087343      -0.00123414      -0.00150883
Br       3.24451749       4.39409622       5.61966968       0.00086911      -0.00123332       0.00150873
Br       5.22429974       1.59426207       9.04875298      -0.00086812       0.00123155      -0.00150958
