9
Lattice="5.80637907687126 -7.135548032101107e-08 3.3523145323267207 1.9354595839032325 5.474307091310828 3.3523146035357967 -2.2851508154241153e-07 -7.437159184135322e-08 6.704629460453172" Properties=species:S:1:pos:R:3:forces:R:3 energy=-36.326866149902344 free_energy=-36.326866149902344 stress="0.0001214113799505867 -1.4685250349089074e-08 1.0242673376126277e-08 -1.4685250349089074e-08 0.00012139253522036597 2.02608170241092e-08 1.0242673376126277e-08 2.02608170241092e-08 0.00012143843196099624" pbc="T T T"
Sc       1.93545998       1.36857546       3.35231305       0.00000341      -0.00001073      -0.00001360
Sc       5.80637709       4.10573148      10.05694725      -0.00001492       0.00000880       0.00002781
Pd       0.00000015       0.00000005       0.00000013       0.00000085       0.00000286      -0.00000162
Cl       1.93473355       1.36806299       6.70463010       0.00198369       0.00139716       0.00000644
Cl       5.80710513       4.10624398       6.70462773      -0.00198117      -0.00139794      -0.00001214
Cl       4.83901221       1.36806294       5.02784289      -0.00098924       0.00140163       0.00171169
Cl       2.90282686       4.10624415       8.38141530       0.00099118      -0.00139891      -0.00171643
Cl       2.90282705       4.10624403       5.02784272       0.00100055      -0.00139841       0.00171310
Cl       4.83901165       1.36806273       8.38141521      -0.00099435       0.00139574      -0.00171522
