9
Lattice="6.104789415147342 2.0292429840597479e-07 3.5246019080038904 2.03492992792653 5.755651186932729 3.524602026547963 -1.7006032568145e-08 1.3316116128058195e-07 7.049203845463084" Properties=species:S:1:pos:R:3:forces:R:3 energy=-34.25409698486328 free_energy=-34.25409698486328 stress="0.00014207573258318007 -8.935534090426245e-09 -1.4364473166494918e-08 -8.935534090426245e-09 0.00014206134073901922 -1.4355087785133946e-08 -1.4364473166494918e-08 -1.4355087785133946e-08 0.00014205940533429384" pbc="T T T"
Sc       2.03492873       1.43891397       3.52460144      -0.00000691       0.00000470      -0.00000210
Sc       6.10478914       4.31673872      10.57380609      -0.00000111       0.00000039       0.00000016
Pb       0.00000001      -0.00000013      -0.00000031       0.00000093       0.00000198       0.00000447
Cl       2.16435481       1.53043000       7.04920415       0.00508332       0.00359392       0.00000204
Cl       5.97536495       4.22522107       7.04920400      -0.00508320      -0.00359854       0.00000011
Cl       5.02261259       1.53043007       5.39898807      -0.00253796       0.00359370       0.00440316
Cl       3.11710711       4.22522143       8.69942027       0.00254352      -0.00359750      -0.00440359
Cl       3.11710720       4.22522094       5.39898777       0.00254105      -0.00359547       0.00440092
Cl       5.02261285       1.53042991       8.69941969      -0.00253979       0.00359692      -0.00440522
