9
Lattice="6.6151299103826515 -3.25480625693729e-08 3.8192470355102643 2.2050432914587246 6.2368041414845425 3.8192470031478156 1.1006125618640176e-08 -3.185323702087513e-08 7.638494051957391" Properties=species:S:1:pos:R:3:forces:R:3 energy=-30.125152587890625 free_energy=-30.125152587890625 stress="0.00016359089931938797 4.399851594172333e-09 2.8530355855593825e-09 4.399851594172333e-09 0.00016358579159714282 2.2084450934656275e-10 2.8530355855593825e-09 2.2084450934656275e-10 0.00016358887660317123" pbc="T T T"
Sc       2.20504322       1.55920079       3.81924708      -0.00000048      -0.00000110      -0.00000007
Sc       6.61513029       4.67760342      11.45774143       0.00000234       0.00000121       0.00000291
Pt      -0.00000001      -0.00000011      -0.00000003       0.00000015       0.00000091       0.00000056
I        2.20074089       1.55615878       7.63849404       0.00115988       0.00082015       0.00000018
I        6.61943239       4.68064541       7.63849386      -0.00116080      -0.00082040      -0.00000146
I        5.51475943       1.55615853       5.72514453      -0.00058028       0.00082046       0.00100516
I        3.30541358       4.68064542       9.55184350       0.00057939      -0.00082043      -0.00100629
I        3.30541357       4.68064539       5.72514452       0.00058010      -0.00082026       0.00100508
I        5.51475950       1.55615867       9.55184341      -0.00058030       0.00081947      -0.00100604
