9
Lattice="4.7119462800058605 -2.855534195880629e-07 2.720444152568505 1.5706483684410486 4.442464271959958 2.720444364465288 8.198414767940262e-08 3.17491080027545e-07 5.44088816313622" Properties=species:S:1:pos:R:3:forces:R:3 energy=-46.08147048950195 free_energy=-46.08147048950195 stress="-9.208936535287648e-05 -1.8675928004086018e-07 -2.6404921982248197e-07 -1.8675928004086018e-07 -8.938125392887741e-05 -6.20625826286414e-08 -2.6404921982248197e-07 -6.20625826286414e-08 -9.175991726806387e-05" pbc="T T T"
Sc       1.57065415       1.11059606       2.72044009       0.00006895      -0.00025738      -0.00004866
Sc       4.71194916       3.33186869       8.16133796       0.00004081       0.00025994       0.00006929
Pt      -0.00000127      -0.00000063       0.00000037      -0.00000910       0.00000175      -0.00000315
F        1.63313533       1.15479019       5.44089111      -0.00136787      -0.00108987       0.00003654
F        4.64945654       3.28767491       5.44088319       0.00134242       0.00109726      -0.00004309
F        3.89537448       1.15479119       4.13478319       0.00066903      -0.00109804      -0.00119674
F        2.38721667       3.28767353       6.74699250      -0.00070572       0.00108975       0.00118637
F        2.38721849       3.28767435       4.13478497      -0.00068355       0.00111118      -0.00118509
F        3.89537487       1.15478894       6.74699360       0.00064456      -0.00111446       0.00118509
