9
Lattice="4.714501592174189 1.082279761222333e-07 2.7219187713528727 1.5715006208396274 4.4448744043426025 2.7219187920048165 -9.726948945726775e-08 -4.3486516214394464e-08 5.443837711181412" Properties=species:S:1:pos:R:3:forces:R:3 energy=-45.95106887817383 free_energy=-45.95106887817383 stress="0.0002414207992842421 3.63106209988473e-07 -4.5149437255531666e-07 3.63106209988473e-07 0.0002414181362837553 -3.244088873088913e-07 -4.5149437255531666e-07 -3.244088873088913e-07 0.0002423453697701916" pbc="T T T"
Sc       1.57152837       1.11123218       2.72195217       0.00031533       0.00014924       0.00045168
Sc       4.71448782       3.33364902       8.16583351      -0.00013930      -0.00006812       0.00092454
P       -0.00000204      -0.00000141      -0.00001494      -0.00002126      -0.00001163      -0.00016908
F        1.67445101       1.18401078       5.44382523      -0.00390434      -0.00279626      -0.00016061
F        4.61154787       3.26086153       5.44381193       0.00387031       0.00278360      -0.00033527
F        3.87727499       1.18402471       4.17201501       0.00190827      -0.00263190      -0.00362974
F        2.40871930       3.26085232       6.71563075      -0.00203997       0.00269872       0.00326717
F        2.40873429       3.26085464       4.17201471      -0.00184140       0.00268179      -0.00363296
F        3.87726697       1.18401406       6.71563303       0.00185204      -0.00280502       0.00328422
