9
Lattice="6.718471180513994 6.12154919038388e-08 3.878911110301602 2.2394904184459925 6.334235501837022 3.878911167066448 -2.7243530587452254e-08 5.0258368110152165e-08 7.757822267790374" Properties=species:S:1:pos:R:3:forces:R:3 energy=-27.753780364990234 free_energy=-27.753780364990234 stress="8.380430517718196e-05 1.7874009827778536e-08 5.281178605542891e-09 1.7874009827778536e-08 8.380407962249592e-05 -1.0893070889750334e-09 5.281178605542891e-09 -1.0893070889750334e-09 8.378891652682796e-05" pbc="T T T"
Sc       2.23949051       1.58355873       3.87891107       0.00000121      -0.00000009       0.00000007
Sc       6.71847125       4.75067680      11.63673392      -0.00000099      -0.00000115       0.00000131
P       -0.00000000      -0.00000004       0.00000008      -0.00000023      -0.00000004       0.00000014
I        2.29639306       1.62379510       7.75782224       0.00036065       0.00025508      -0.00000032
I        6.66156853       4.71044058       7.75782209      -0.00036137      -0.00025499      -0.00000048
I        5.57027460       1.62379526       5.86764577      -0.00018101       0.00025693       0.00031339
I        3.38768684       4.71044044       9.64799860       0.00018146      -0.00025626      -0.00031428
I        3.38768694       4.71044043       5.86764572       0.00018160      -0.00025602       0.00031382
I        5.57027455       1.62379512       9.64799864      -0.00018135       0.00025661      -0.00031373
