9
Lattice="6.117677481803867 7.989857047155742e-08 3.5320427619693757 2.039225871954552 5.76780183204812 3.5320428150437677 -9.545690583104555e-08 -2.495667027351547e-09 7.064085689274973" Properties=species:S:1:pos:R:3:forces:R:3 energy=-34.14628601074219 free_energy=-34.14628601074219 stress="6.283042353061319e-08 -1.7760360293550548e-08 1.4717992102841748e-10 -1.7760360293550548e-08 7.182381267512028e-08 5.440267347722738e-09 1.4717992102841748e-10 5.440267347722738e-09 3.767499379137007e-08" pbc="T T T"
Sc       2.03922600       1.44195077       3.53204285       0.00000198       0.00000164      -0.00000097
Sc       6.11767705       4.32585201      10.59612869      -0.00000225       0.00000296       0.00000033
Pt      -0.00000008      -0.00000003      -0.00000023       0.00000194      -0.00000055       0.00000035
Br       2.00192065       1.41557144       7.06408576      -0.00028464      -0.00020157       0.00000034
Br       6.15498293       4.35223015       7.06408548       0.00028278       0.00019924      -0.00000059
Br       5.11671708       1.41557169       5.26575679       0.00014222      -0.00020213      -0.00024588
Br       3.04018617       4.35223006       8.86241453      -0.00014237       0.00020152       0.00024650
Br       3.04018617       4.35223002       5.26575683      -0.00014254       0.00020113      -0.00024639
Br       5.11671707       1.41557157       8.86241437       0.00014298      -0.00020222       0.00024641
