9
Lattice="5.965518217124946 -4.457768727552554e-08 3.4441936059126466 1.9885060814638784 5.624344593034649 3.4441935173751204 1.0576902346695597e-07 -3.3645829578743405e-08 6.888387028627902" Properties=species:S:1:pos:R:3:forces:R:3 energy=-36.20060348510742 free_energy=-36.20060348510742 stress="-1.4479210221907124e-05 5.5695736911332006e-09 2.4878723081656062e-08 5.5695736911332006e-09 -1.4465587810263969e-05 -3.67893200348135e-08 2.4878723081656062e-08 -3.67893200348135e-08 -1.4458961231866851e-05" pbc="T T T"
Sc       1.98850576       1.40608798       3.44419445      -0.00000183       0.00001061       0.00000585
Sc       5.96551808       4.21825785      10.33258118      -0.00000180      -0.00000408       0.00000213
Pt       0.00000003      -0.00000026      -0.00000023       0.00000215       0.00000080      -0.00000208
Cl       1.94240986       1.37349136       6.88838621       0.00037304       0.00026348      -0.00000396
Cl       6.01161459       4.25085289       6.88838719      -0.00037202      -0.00026715       0.00000006
Cl       4.99431405       1.37349149       5.12636956      -0.00018796       0.00026800       0.00032449
Cl       2.95971109       4.25085269       8.65040448       0.00018640      -0.00026757      -0.00032425
Cl       2.95971126       4.25085303       5.12636976       0.00018606      -0.00026496       0.00031927
Cl       4.99431294       1.37349103       8.65040394      -0.00018430       0.00026076      -0.00032166
