9
Lattice="5.39778544202632 2.0703163109771413e-08 3.1164129010027692 1.7992618316653615 5.089080950797529 3.11641290422878 3.8744503026542457e-08 3.13475366610934e-08 6.2328257348980864" Properties=species:S:1:pos:R:3:forces:R:3 energy=-32.33927917480469 free_energy=-32.33927917480469 stress="0.0002944457228295505 2.2846126768172326e-08 -3.184952745982628e-08 2.2846126768172326e-08 0.0002944741863757372 1.6631226174013136e-08 -3.184952745982628e-08 1.6631226174013136e-08 0.0002944307343568653" pbc="T T T"
Sc       1.79926181       1.27227026       3.11641295       0.00000033      -0.00000115       0.00000061
Sc       5.39778542       3.81681079       9.34923851      -0.00000173       0.00000251      -0.00000274
P        0.00000019       0.00000008       0.00000038      -0.00000117       0.00000000      -0.00000311
Cl       1.88102024       1.33008217       6.23282569       0.00090240       0.00063593      -0.00000026
Cl       5.31602692       3.75899871       6.23282589      -0.00090145      -0.00063647       0.00000042
Cl       4.45727529       1.33008203       4.74542419      -0.00045248       0.00063754       0.00078274
Cl       2.73977218       3.75899869       7.72022722       0.00045287      -0.00063702      -0.00077905
Cl       2.73977194       3.75899892       4.74542416       0.00045295      -0.00063895       0.00078361
Cl       4.45727529       1.33008233       7.72022717      -0.00045165       0.00063773      -0.00078227
