9
Lattice="6.718881892296572 5.3632241351011903e-08 3.879148282478137 2.2396273300785334 6.334622721170761 3.879148313514116 -1.0472796233080895e-08 3.0605771353992604e-08 7.758296583095691" Properties=species:S:1:pos:R:3:forces:R:3 energy=-27.75377082824707 free_energy=-27.75377082824707 stress="0.0001347830839222297 -1.5787201546046958e-09 3.560719719075678e-09 -1.5787201546046958e-09 0.0001347846700809896 1.1082766926406862e-09 3.560719719075678e-09 1.1082766926406862e-09 0.000134778514620848" pbc="T T T"
Sc       2.23962741       1.58365582       3.87914822       0.00000020       0.00000047      -0.00000051
Sc       6.71888180       4.75096700      11.63744529      -0.00000108      -0.00000055       0.00000180
P        0.00000018      -0.00000019       0.00000000      -0.00000056       0.00000026       0.00000038
I        2.29648836       1.62386283       7.75829660       0.00022809       0.00016086      -0.00000018
I        6.66202070       4.71075998       7.75829633      -0.00022635      -0.00016014      -0.00000066
I        5.57063760       1.62386268       5.86796564      -0.00011369       0.00016034       0.00019632
I        3.38787158       4.71076022       9.64862749       0.00011367      -0.00016034      -0.00019664
I        3.38787168       4.71076028       5.86796555       0.00011366      -0.00016053       0.00019550
I        5.57063749       1.62386262       9.64862756      -0.00011410       0.00015958      -0.00019610
