9
Lattice="5.395917529426727 -6.494053161446064e-09 3.1153344600557538 1.7986391757835327 5.087319877755373 3.1153344506496747 5.769489006621179e-08 2.9276390588958736e-08 6.230668820181035" Properties=species:S:1:pos:R:3:forces:R:3 energy=-32.33928298950195 free_energy=-32.33928298950195 stress="-0.00024890791974030435 -2.3078593258674118e-08 9.683629009771266e-09 -2.3078593258674118e-08 -0.0002489152830094099 -1.8860649930729778e-08 9.683629009771266e-09 -1.8860649930729778e-08 -0.0002488441823516041" pbc="T T T"
Sc       1.79863887       1.27182995       3.11533463      -0.00000381       0.00000118       0.00000040
Sc       5.39591794       3.81549001       9.34600241       0.00000324      -0.00000060      -0.00000614
P       -0.00000006      -0.00000002       0.00000025      -0.00000106      -0.00000020      -0.00000259
Cl       1.88039378       1.32963905       6.23066897       0.00007035       0.00005001       0.00000139
Cl       5.31416327       3.75768064       6.23066920      -0.00007007      -0.00005002       0.00000138
Cl       4.45572037       1.32963913       4.74380350      -0.00003516       0.00004917       0.00006132
Cl       2.73883614       3.75768081       7.71753434       0.00003599      -0.00004854      -0.00006060
Cl       2.73883589       3.75768046       4.74380334       0.00003123      -0.00004908       0.00006164
Cl       4.45572086       1.32963959       7.71753430      -0.00003081       0.00004838      -0.00005680
