9
Lattice="6.268804402087272 2.9195077422042277e-07 3.6192957254507885 2.0896017221469614 5.910285173155783 3.619295760904643 -1.1384850640174172e-07 -3.708112716210074e-08 7.238591648093" Properties=species:S:1:pos:R:3:forces:R:3 energy=-30.799636840820312 free_energy=-30.799636840820312 stress="-0.00031485172803513706 3.1591029792110703e-10 -7.283163849791663e-09 3.1591029792110703e-10 -0.00031484413193538785 2.701625367862448e-09 -7.283163849791663e-09 2.701625367862448e-09 -0.00031486994703300297" pbc="T T T"
Sc       2.08960052       1.47756948       3.61929549      -0.00000452      -0.00001031      -0.00000110
Sc       6.26880471       4.43271631      10.85788521       0.00000046       0.00001228      -0.00001072
P        0.00000054      -0.00000065       0.00000030       0.00000059       0.00000048       0.00000087
Br       2.15786429       1.52584089       7.23859185      -0.00499439      -0.00353596       0.00000060
Br       6.20054134       4.38444468       7.23859223       0.00499645       0.00353330       0.00000373
Br       5.18987250       1.52583930       5.48806155       0.00249529      -0.00353643      -0.00432095
Br       3.16853404       4.38444561       8.98912268      -0.00249414       0.00353524       0.00432602
Br       3.16853337       4.38444612       5.48806138      -0.00249662       0.00353432      -0.00432199
Br       5.18987268       1.52584009       8.98912194       0.00249697      -0.00353298       0.00432357
