9
Lattice="6.5924660906561146 -1.5697428460500244e-08 3.806162093104932 2.197488668752755 6.215436686576945 3.8061621161982604 -1.1575481000932693e-08 2.0098341689900846e-08 7.612324206259153" Properties=species:S:1:pos:R:3:forces:R:3 energy=-29.4598388671875 free_energy=-29.4598388671875 stress="4.861421257373877e-05 2.9987579086565574e-09 2.7052549089745526e-09 2.9987579086565574e-09 4.8612979298923165e-05 5.404653613538812e-09 2.7052549089745526e-09 5.404653613538812e-09 4.8617017455399036e-05" pbc="T T T"
Sc       2.19748844       1.55385939       3.80616164      -0.00000110       0.00000025      -0.00000165
Sc       6.59246590       4.66157747      11.41848692      -0.00000079       0.00000185       0.00000234
Pd      -0.00000001      -0.00000005       0.00000014      -0.00000014       0.00000032      -0.00000056
I        2.20997954       1.56269132       7.61232429       0.00100305       0.00070829       0.00000113
I        6.57997547       4.65274532       7.61232393      -0.00100223      -0.00070946      -0.00000048
I        5.48747656       1.56269156       5.72006040      -0.00050076       0.00070788       0.00086794
I        3.30247821       4.65274513       9.50458804       0.00050184      -0.00070941      -0.00086877
I        3.30247845       4.65274538       5.72006034       0.00050178      -0.00070880       0.00086888
I        5.48747643       1.56269124       9.50458799      -0.00050170       0.00070906      -0.00086884
