9
Lattice="6.8883721438682 9.433834395506788e-08 3.977003490590492 2.2961241264329866 6.49441940409955 3.9770035087183273 1.4886691984906019e-08 3.272847927980766e-08 7.954006955396478" Properties=species:S:1:pos:R:3:forces:R:3 energy=-26.931072235107422 free_energy=-26.931072235107422 stress="0.00018063787138089538 -1.9890459057592125e-08 -3.176969354257153e-09 -1.9890459057592125e-08 0.00018065622134599835 4.298578826222865e-09 -3.176969354257153e-09 4.298578826222865e-09 0.00018065297626890242" pbc="T T T"
Sc       2.29612404       1.62360495       3.97700357       0.00000077       0.00000124      -0.00000079
Sc       6.88837230       4.87081474      11.93101075       0.00000058      -0.00000056       0.00000076
Pb      -0.00000016      -0.00000023       0.00000019       0.00000252       0.00000007      -0.00000400
I        2.46063897       1.73993439       7.95400702       0.00176392       0.00124723      -0.00000044
I        6.72385720       4.75448501       7.95400696      -0.00176586      -0.00124828      -0.00000027
I        5.65805275       1.73993468       6.10797926      -0.00088216       0.00124808       0.00152840
I        3.52644377       4.75448480       9.80003444       0.00087937      -0.00124529      -0.00152567
I        3.52644368       4.75448508       6.10797926       0.00088202      -0.00124734       0.00152866
I        5.65805261       1.73993469       9.80003439      -0.00088113       0.00124480      -0.00152664
