9
Lattice="6.271008569910116 -2.1932240968470743e-07 3.6205686108767896 2.090336007486521 5.912364001193189 3.6205685687956777 2.3444876551481792e-07 1.1424158955705604e-07 7.24113681567645" Properties=species:S:1:pos:R:3:forces:R:3 energy=-30.799705505371094 free_energy=-30.799705505371094 stress="-4.112735769012943e-05 7.83502240864209e-09 -2.234970786219037e-08 7.83502240864209e-09 -4.1126626456389204e-05 -1.121390624803098e-08 -2.234970786219037e-08 -1.121390624803098e-08 -4.11117980547715e-05" pbc="T T T"
Sc       2.09033673       1.47809377       3.62056560       0.00000577       0.00001566      -0.00001649
Sc       6.27100879       4.43427483      10.86171035      -0.00000219       0.00000883       0.00002710
P       -0.00000068      -0.00000060      -0.00000015       0.00000020      -0.00000223      -0.00000171
Br       2.15795858       1.52590850       7.24113707      -0.00144538      -0.00101903       0.00000336
Br       6.20338700       4.38645418       7.24113557       0.00144795       0.00101274      -0.00000866
Br       5.19202794       1.52590716       5.48941536       0.00072113      -0.00101998      -0.00125122
Br       3.16931593       4.38645478       8.99285937      -0.00072578       0.00101298       0.00125194
Br       3.16931791       4.38645785       5.48941539      -0.00071453       0.00102106      -0.00124964
Br       5.19202713       1.52590522       8.99285753       0.00071266      -0.00103012       0.00124544
