9
Lattice="4.716206265404825 4.1175903446156304e-07 2.7229030966955023 1.572069031816198 4.446483667946375 2.722903289869122 1.504292397803324e-07 3.429579986444605e-07 5.445805932839921" Properties=species:S:1:pos:R:3:forces:R:3 energy=-45.9510383605957 free_energy=-45.9510383605957 stress="0.0003918213478755206 -1.8544611180004722e-07 -1.3730414138990454e-07 -1.8544611180004722e-07 0.0003913175023626536 -7.23504101074468e-08 -1.3730414138990454e-07 -7.23504101074468e-08 0.0003913920954801142" pbc="T T T"
Sc       1.57206214       1.11160481       2.72289055      -0.00007874      -0.00019173      -0.00015228
Sc       4.71621170       3.33484959       8.16870475       0.00006400      -0.00017476      -0.00005952
P        0.00000124       0.00000613       0.00000123       0.00000192       0.00005129       0.00002332
F        1.67422137       1.18386145       5.44581337       0.00113672       0.00088891       0.00007158
F        4.61405634       3.26263294       5.44580485      -0.00115836      -0.00077987       0.00000086
F        3.87909778       1.18385471       4.17282711      -0.00054201       0.00084400       0.00104731
F        2.40917698       3.26263387       6.71879060       0.00056615      -0.00076434      -0.00101233
F        2.40917748       3.26263421       4.17282397       0.00057289      -0.00075313       0.00105304
F        3.87909653       1.18386024       6.71879252      -0.00056285       0.00087947      -0.00097221
