9
Lattice="6.065203833001944 4.9875620088150316e-08 3.5017470454132527 2.021734645015759 5.718329239804104 3.5017470679439238 -3.281989861477877e-08 4.3871678603630134e-09 7.003494147672223" Properties=species:S:1:pos:R:3:forces:R:3 energy=-33.53160095214844 free_energy=-33.53160095214844 stress="6.838156696176156e-05 3.1150186874384644e-09 -7.435874582739643e-09 3.1150186874384644e-09 6.838144327048212e-05 -6.443970690384049e-09 -7.435874582739643e-09 -6.443970690384049e-09 6.839244451839477e-05" pbc="T T T"
Sc       2.02173493       1.42958135       3.50174706       0.00000194      -0.00000469       0.00000032
Sc       6.06520467       4.28874773      10.50524076       0.00000547       0.00000474      -0.00000380
Pd       0.00000004       0.00000012       0.00000000       0.00000026      -0.00000394      -0.00000046
Br       2.01920909       1.42779648       7.00349408       0.00235493       0.00166414       0.00000023
Br       6.06772894       4.29053316       7.00349428      -0.00235539      -0.00166166       0.00000160
Br       5.05559905       1.42779646       5.25043356      -0.00117962       0.00166375       0.00204090
Br       3.03133906       4.29053276       8.75655469       0.00117591      -0.00166285      -0.00203777
Br       3.03133884       4.29053274       5.25043377       0.00117397      -0.00166324       0.00203949
Br       5.05559917       1.42779642       8.75655488      -0.00117753       0.00166378      -0.00204046
