9
Lattice="4.623851799807479 1.9908037090500465e-08 2.6695820028728496 1.541283895391532 4.359408961207782 2.6695821009885035 -9.365722237265483e-08 5.3940981870693274e-08 5.339164167964784" Properties=species:S:1:pos:R:3:forces:R:3 energy=-48.28825378417969 free_energy=-48.28825378417969 stress="0.0003016779955942184 6.40277804109246e-08 -5.099467159652704e-08 6.40277804109246e-08 0.0003020850708708167 6.851679756891826e-08 -5.099467159652704e-08 6.851679756891826e-08 0.00030191705445759" pbc="T T T"
Sc       1.54128470       1.08985220       2.66958181       0.00000999      -0.00000085      -0.00000310
Sc       4.62385178       3.26955830       8.00874577       0.00000236       0.00001695      -0.00000077
Pd       0.00000001       0.00000021      -0.00000003      -0.00000181      -0.00000471       0.00000119
F        1.64775818       1.16514030       5.33916402      -0.00596215      -0.00421878       0.00000036
F        4.51737760       3.19426857       5.33916433       0.00596371       0.00421942       0.00000228
F        3.79997178       1.16514012       4.09658224       0.00297494      -0.00422393      -0.00516613
F        2.36516284       3.19426781       6.58174679      -0.00298232       0.00421386       0.00516860
F        2.36516326       3.19426906       4.09658256      -0.00298033       0.00422117      -0.00516301
F        3.79997224       1.16513971       6.58174549       0.00297540      -0.00422287       0.00516083
