9
Lattice="4.955042077266087 -2.5990997222135677e-07 2.860794373381628 1.6516805285108629 4.671657131605692 2.8607942328528426 2.726447081904191e-07 2.0677052539158332e-08 5.721588274528726" Properties=species:S:1:pos:R:3:forces:R:3 energy=-46.27077865600586 free_energy=-46.27077865600586 stress="0.0001702089939499274 2.601062298879242e-08 2.6865905056183692e-08 2.601062298879242e-08 0.00017039812519215047 -3.3186854153655077e-08 2.6865905056183692e-08 -3.3186854153655077e-08 0.0001704889873508364" pbc="T T T"
Sc       1.65168086       1.16791514       2.86079486       0.00000250       0.00000624       0.00000562
Sc       4.95503872       3.50374374       8.58238381      -0.00003276       0.00001151       0.00001238
Pb      -0.00000033       0.00000009      -0.00000011       0.00000930      -0.00000057       0.00000628
F        1.78520611       1.26232908       5.72158820       0.00207943       0.00145462      -0.00000210
F        4.82151776       3.40932616       5.72158774      -0.00207487      -0.00147372      -0.00000795
F        4.06243861       1.26233009       4.40682666      -0.00104037       0.00146627       0.00178996
F        2.54428496       3.40932652       7.03635027       0.00104688      -0.00146355      -0.00178513
F        2.54428520       3.40932665       4.40682611       0.00105071      -0.00146492       0.00177974
F        4.06243948       1.26232969       7.03634965      -0.00104091       0.00146435      -0.00179905
