9
Lattice="5.869529662016281 -1.8763003943648974e-07 3.3887744317485664 1.95650974789363 5.533845646720668 3.388774366876016 -2.6744522839836356e-08 -9.836355968493695e-08 6.777548909819969" Properties=species:S:1:pos:R:3:forces:R:3 energy=-39.22628402709961 free_energy=-39.22628402709961 stress="0.00022721609275322407 1.872431454330581e-08 7.83744802390629e-09 1.872431454330581e-08 0.00022729451302438974 -3.568714035395715e-08 7.83744802390629e-09 -3.568714035395715e-08 0.00022720149718225002" pbc="T T T"
Sc       1.95650961       1.38345918       3.38877457      -0.00000083      -0.00001334      -0.00000141
Sc       5.86953000       4.15038417      10.16632471       0.00000203      -0.00000067       0.00000746
Ru       0.00000011      -0.00000001      -0.00000008      -0.00000157       0.00000112       0.00000198
Cl       1.94302213       1.37392369       6.77754905       0.00235836       0.00166681      -0.00000066
Cl       5.88301671       4.15992236       6.77754849      -0.00235833      -0.00166123      -0.00000322
Cl       4.89801896       1.37392440       5.07148037      -0.00117836       0.00166989       0.00204191
Cl       2.92802081       4.15992169       8.48361642       0.00117783      -0.00166432      -0.00204798
Cl       2.92802074       4.15992187       5.07148057       0.00117958      -0.00166485       0.00204486
Cl       4.89801848       1.37392412       8.48361673      -0.00117861       0.00166658      -0.00204290
