9
Lattice="6.608073750900619 4.440577367417502e-09 3.815173095006827 2.202691244976793 6.2301515550356745 3.8151731114787073 1.5716964457918218e-09 2.1285210814947527e-08 7.630346187291395" Properties=species:S:1:pos:R:3:forces:R:3 energy=-32.47209548950195 free_energy=-32.47209548950195 stress="0.0001535873452667147 5.923372903282598e-09 -9.658179145333179e-09 5.923372903282598e-09 0.00015358903328888118 1.4199987852236973e-08 -9.658179145333179e-09 1.4199987852236973e-08 0.0001535823685117066" pbc="T T T"
Sc       2.20269100       1.55753774       3.81517319      -0.00000122       0.00000056       0.00000066
Sc       6.60807369       4.67261399      11.44551902       0.00000073       0.00000093      -0.00000052
Ru       0.00000001       0.00000008      -0.00000002      -0.00000091      -0.00000177       0.00000011
I        2.19190102       1.54990797       7.63034632       0.00151819       0.00107314       0.00000045
I        6.61886400       4.68024361       7.63034629      -0.00151635      -0.00107228      -0.00000039
I        5.51212334       1.54990790       5.71341506      -0.00075884       0.00107156       0.00131370
I        3.29864189       4.68024344       9.54727726       0.00075793      -0.00107252      -0.00131283
I        3.29864163       4.68024369       5.71341507       0.00075882      -0.00107282       0.00131404
I        5.51212342       1.54990790       9.54727738      -0.00075836       0.00107319      -0.00131521
