9
Lattice="4.613162587518012 -1.5863609282963764e-08 2.663410556396407 1.537720827982299 4.3493315941287936 2.663410590288049 -1.4024145648374285e-07 -5.765707597351745e-08 5.326821355698174" Properties=species:S:1:pos:R:3:forces:R:3 energy=-52.24759292602539 free_energy=-52.24759292602539 stress="0.00037289937608875334 -9.130668665591202e-09 8.918033955751525e-08 -9.130668665591202e-09 0.00037263904232531786 -1.0459014987418414e-08 8.918033955751525e-08 -1.0459014987418414e-08 0.0003726710856426507" pbc="T T T"
Sc       1.53771988       1.08733481       2.66341103      -0.00001111       0.00002337       0.00000734
Sc       4.61316296       3.26199922       7.99023037       0.00000577       0.00000607      -0.00001580
Ru      -0.00000009      -0.00000040      -0.00000006      -0.00000005      -0.00000190      -0.00000069
F        1.66508001       1.17738925       5.32682074      -0.00322333      -0.00228308      -0.00000257
F        4.48580351       3.17194093       5.32682203       0.00322989       0.00227171       0.00000545
F        3.78062272       1.17738928       4.10541215       0.00161095      -0.00228116      -0.00278881
F        2.37026083       3.17194150       6.54823046      -0.00161280       0.00227204       0.00279436
F        2.37025976       3.17194141       4.10541280      -0.00162090       0.00227338      -0.00278908
F        3.78062352       1.17738990       6.54823039       0.00162120      -0.00228046       0.00279036
