9
Lattice="6.131009810055923 -8.909931440328099e-08 3.5397400171347235 2.0436698415532644 5.780371540156637 3.539740036409693 -5.2901619428388283e-08 -1.3800178885561212e-08 7.079480125897751" Properties=species:S:1:pos:R:3:forces:R:3 energy=-38.585662841796875 free_energy=-38.585662841796875 stress="1.7529700926388614e-05 -1.4656086344544406e-09 2.171788970883881e-09 -1.4656086344544406e-09 1.7561369531904347e-05 -5.541509029427516e-09 2.171788970883881e-09 -5.541509029427516e-09 1.7558850231580436e-05" pbc="T T T"
Sc       2.04366898       1.44509211       3.53973911      -0.00000462      -0.00000449      -0.00000472
Sc       6.13101072       4.33527882      10.61922044       0.00000529       0.00000254       0.00000318
Re       0.00000000       0.00000002      -0.00000009      -0.00000201      -0.00000057      -0.00000249
Br       2.01586622       1.42543274       7.07948051       0.00151657       0.00107316       0.00000219
Br       6.15881323       4.35493871       7.07948013      -0.00151452      -0.00107101      -0.00000127
Br       5.12307668       1.42543277       5.28553151      -0.00075743       0.00107245       0.00131448
Br       3.05160296       4.35493899       8.87342872       0.00075649      -0.00107147      -0.00131249
Br       3.05160285       4.35493928       5.28553181       0.00075801      -0.00107061       0.00131497
Br       5.12307678       1.42543232       8.87342856      -0.00075777       0.00107005      -0.00131384
