9
Lattice="4.531748596016873 -1.1460730014857373e-07 2.616406384999804 1.5105827997904169 4.272573289199558 2.616406311380252 -1.1090927596982338e-08 -9.800763168364136e-08 5.232812789209689" Properties=species:S:1:pos:R:3:forces:R:3 energy=-55.206329345703125 free_energy=-55.206329345703125 stress="-6.362865678966045e-05 -1.2764552081989677e-07 1.1456626758388211e-08 -1.2764552081989677e-07 -6.369403126882389e-05 -4.1888156943059585e-08 1.1456626758388211e-08 -4.1888156943059585e-08 -6.356700032483786e-05" pbc="T T T"
Sc       1.51058290       1.06814355       2.61640643       0.00000183       0.00000249       0.00000117
Sc       4.53174885       3.20442979       7.84921911       0.00000132       0.00000109       0.00000140
Re       0.00000001       0.00000003       0.00000010      -0.00000342      -0.00000948      -0.00000617
F        1.64999250       1.16672085       5.23281276      -0.00076771      -0.00054285      -0.00000025
F        4.39233858       3.10585204       5.23281278       0.00077307       0.00054753       0.00000050
F        3.70675236       1.16672108       4.04534195       0.00038549      -0.00054678      -0.00066942
F        2.33557907       3.10585203       6.42028328      -0.00038892       0.00054902       0.00067335
F        2.33557911       3.10585224       4.04534190      -0.00038794       0.00054723      -0.00067008
F        3.70675211       1.16672063       6.42028344       0.00038564      -0.00054818       0.00066912
