9
Lattice="5.844164163292346 1.274699427032228e-08 3.374129806076255 1.9480547532924108 5.50993074146189 3.374129771128724 1.0946676775819186e-07 3.4602904490629466e-08 6.748259422550522" Properties=species:S:1:pos:R:3:forces:R:3 energy=-38.41246032714844 free_energy=-38.41246032714844 stress="0.00021436219685710967 1.013745887235018e-08 8.495519843165766e-09 1.013745887235018e-08 0.0002143761230399832 -1.1258331156227541e-08 8.495519843165766e-09 -1.1258331156227541e-08 0.00021435230155475438" pbc="T T T"
Sc       1.94805579       1.37748138       3.37412863       0.00000849      -0.00000769      -0.00000921
Sc       5.84416414       4.13244490      10.12238677      -0.00000057      -0.00002038      -0.00001586
Rh      -0.00000000       0.00000032       0.00000034      -0.00000136       0.00000122       0.00000401
Cl       1.92177951       1.35890455       6.74825986       0.00240974       0.00171171       0.00000290
Cl       5.87043862       4.15102758       6.74826041      -0.00241578      -0.00170155       0.00000580
Cl       4.88327439       1.35890416       5.03844003      -0.00120775       0.00171170       0.00209089
Cl       2.90894510       4.15102716       8.45807915       0.00120962      -0.00170708      -0.00208996
Cl       2.90894441       4.15102757       5.03844089       0.00120565      -0.00170520       0.00209504
Cl       4.88327415       1.35890548       8.45807997      -0.00120790       0.00171715      -0.00208370
