9
Lattice="6.103895962758033 -9.884417934553e-08 3.5240858858035167 2.034631883762089 5.7548081407707645 3.5240859042199966 -1.0823154440236499e-08 1.490234490163225e-08 7.0481717903532655" Properties=species:S:1:pos:R:3:forces:R:3 energy=-36.72673797607422 free_energy=-36.72673797607422 stress="0.000347170076565817 -1.107936520305941e-09 2.6999806834737683e-09 -1.107936520305941e-09 0.0003471553500276059 8.16976708506445e-09 2.6999806834737683e-09 8.16976708506445e-09 0.0003471549425739795" pbc="T T T"
Sc       2.03463184       1.43870240       3.52408510      -0.00000152       0.00000242      -0.00000473
Sc       6.10389619       4.31610540      10.57225865       0.00000172      -0.00000404       0.00000678
Ru      -0.00000005       0.00000010       0.00000020      -0.00000179       0.00000271      -0.00000054
Br       2.01358099       1.42381700       7.04817210       0.00310346       0.00219715       0.00000236
Br       6.12494693       4.33099101       7.04817118      -0.00310478      -0.00219722      -0.00000225
Br       5.09710550       1.42381703       5.26789859      -0.00155067       0.00219584       0.00268728
Br       3.04142219       4.33099113       8.82844513       0.00155185      -0.00219727      -0.00269189
Br       3.04142265       4.33099126       5.26789812       0.00155404      -0.00219502       0.00268979
Br       5.09710511       1.42381689       8.82844531      -0.00155236       0.00219538      -0.00268682
