9
Lattice="6.608166330679583 -1.714957938405423e-08 3.8152265567622186 2.20272209345289 6.230238936691562 3.8152265578098494 5.003676168538352e-09 4.821217926277338e-09 7.630453104857792" Properties=species:S:1:pos:R:3:forces:R:3 energy=-32.47209548950195 free_energy=-32.47209548950195 stress="0.00016477657482028008 -2.0154273805417233e-09 9.12035946765144e-10 -2.0154273805417233e-09 0.0001647684257477522 3.6239671263871287e-09 9.12035946765144e-10 3.6239671263871287e-09 0.0001647723838686943" pbc="T T T"
Sc       2.20272207       1.55755950       3.81522623      -0.00000063      -0.00000064      -0.00000108
Sc       6.60816626       4.67267921      11.44568002      -0.00000082       0.00000065      -0.00000047
Ru       0.00000007       0.00000004      -0.00000022      -0.00000015      -0.00000001       0.00000109
I        2.19190915       1.54991381       7.63045332       0.00163212       0.00115335       0.00000050
I        6.61897929       4.68032510       7.63045288      -0.00163194      -0.00115350       0.00000022
I        5.51221158       1.54991394       5.71347553      -0.00081474       0.00115222       0.00141218
I        3.29867674       4.68032515       9.54743077       0.00081642      -0.00115338      -0.00141217
I        3.29867675       4.68032513       5.71347553       0.00081536      -0.00115192       0.00141230
I        5.51221180       1.54991381       9.54743081      -0.00081558       0.00115324      -0.00141252
