9
Lattice="5.869431819925874 -1.1631873328200578e-08 3.3887180671561055 1.9564773127844721 5.533753331502016 3.388717979787156 4.7883968632294654e-08 -7.314554094761637e-08 6.777436051374722" Properties=species:S:1:pos:R:3:forces:R:3 energy=-39.226287841796875 free_energy=-39.226287841796875 stress="0.00021548081713262945 2.2149502232338136e-09 2.5878296838754977e-08 2.2149502232338136e-09 0.0002154844260076061 -2.8271752938735517e-08 2.5878296838754977e-08 -2.8271752938735517e-08 0.00021546569769270718" pbc="T T T"
Sc       1.95647748       1.38343892       3.38871867       0.00000014       0.00000699       0.00000459
Sc       5.86943222       4.15031479      10.16615390       0.00000357      -0.00000280      -0.00000147
Ru       0.00000006      -0.00000007      -0.00000021      -0.00000069       0.00000056      -0.00000122
Cl       1.94301433       1.37391859       6.77743606       0.00231637       0.00163820      -0.00000088
Cl       5.88289477       4.15983461       6.77743623      -0.00231659      -0.00163836       0.00000123
Cl       4.89792428       1.37391904       5.07141736      -0.00116102       0.00164010       0.00200505
Cl       2.92798436       4.15983422       8.48345458       0.00115860      -0.00164200      -0.00200748
Cl       2.92798404       4.15983459       5.07141770       0.00115518      -0.00163931       0.00200660
Cl       4.89792527       1.37391824       8.48345400      -0.00115556       0.00163673      -0.00200643
