9
Lattice="4.704323167723146 2.597568815268494e-07 2.716042522735119 1.5681078563451685 4.435279809259561 2.7160427152184936 -4.922844315488575e-08 2.0093330450302405e-07 5.432085130736379" Properties=species:S:1:pos:R:3:forces:R:3 energy=-49.951255798339844 free_energy=-49.951255798339844 stress="3.0288034395198338e-05 1.1475913197500631e-07 2.7234911215145985e-08 1.1475913197500631e-07 2.9985603759996593e-05 1.3883618699139788e-08 2.7234911215145985e-08 1.3883618699139788e-08 3.0082925150054507e-05" pbc="T T T"
Sc       1.56810712       1.10882038       2.71604328      -0.00000585       0.00000816       0.00000631
Sc       4.70432280       3.32645804       8.14812683      -0.00000382      -0.00002251      -0.00001122
Rh      -0.00000007       0.00000054       0.00000019      -0.00000887      -0.00000578       0.00000723
F        1.61996786       1.14549079       5.43208479      -0.00121456      -0.00085694      -0.00000345
F        4.65246363       3.28978941       5.43208607       0.00122362       0.00086588       0.00000537
F        3.89434005       1.14549187       4.11897563       0.00061357      -0.00085115      -0.00105357
F        2.37809090       3.28978944       6.74519496      -0.00060487       0.00085229       0.00104862
F        2.37809066       3.28978825       4.11897512      -0.00061312       0.00085208      -0.00105381
F        3.89434065       1.14549246       6.74519474       0.00061408      -0.00084260       0.00105399
