9
Lattice="5.847350600926671 6.449443222814075e-09 3.375969337043511 1.9491168732077426 5.5129352883284515 3.3759693367809795 -3.563074747146193e-08 -2.551632854925888e-08 6.751938735801336" Properties=species:S:1:pos:R:3:forces:R:3 energy=-41.71208190917969 free_energy=-41.71208190917969 stress="0.00015034984971862286 -1.9110428794988366e-08 -3.821353544708472e-08 -1.9110428794988366e-08 0.00015047255146782845 1.5101852213206257e-08 -3.821353544708472e-08 1.5101852213206257e-08 0.00015036640979815274" pbc="T T T"
Sc       1.94911740       1.37823301       3.37596758      -0.00000082      -0.00000768      -0.00000891
Sc       5.84735107       4.13470106      10.12790770       0.00000520       0.00000419      -0.00000363
Re      -0.00000016       0.00000028       0.00000030       0.00000170       0.00000171      -0.00000680
Cl       1.92890768       1.36394443       6.75193946       0.00364308       0.00257772       0.00000378
Cl       5.86755939       4.14899183       6.75193894      -0.00364885      -0.00257624      -0.00000081
Cl       4.88289667       1.36394368       5.04645382      -0.00182033       0.00257571       0.00315582
Cl       2.91357090       4.14899154       8.45742437       0.00181758      -0.00257270      -0.00314924
Cl       2.91357044       4.14899147       5.04645318       0.00182398      -0.00257652       0.00315905
Cl       4.88289635       1.36394378       8.45742430      -0.00182147       0.00257376      -0.00314932
