9
Lattice="6.103736247907176 -1.8586609560121018e-08 3.523993869480945 2.0345787540934395 5.754657706267201 3.5239938308308054 2.8123835049498287e-08 -2.7449999064170297e-08 7.047987690249965" Properties=species:S:1:pos:R:3:forces:R:3 energy=-36.72674560546875 free_energy=-36.72674560546875 stress="0.0003270986198913306 3.3924409947871936e-09 7.157551461245415e-12 3.3924409947871936e-09 0.0003270847664680332 -3.4894500622328906e-09 7.157551461245415e-12 -3.4894500622328906e-09 0.0003270928282290697" pbc="T T T"
Sc       2.03457922       1.43866454       3.52399353       0.00000316       0.00000009      -0.00000126
Sc       6.10373641       4.31599254      10.57198067      -0.00000024      -0.00000397      -0.00000415
Ru      -0.00000007      -0.00000002       0.00000013      -0.00000231      -0.00000045       0.00000103
Br       2.01356906       1.42380867       7.04798768       0.00285305       0.00201895       0.00000060
Br       6.12474560       4.33084917       7.04798802      -0.00285183      -0.00201594       0.00000199
Br       5.09695144       1.42380868       5.26779604      -0.00142661       0.00201800       0.00246959
Br       3.04136350       4.33084914       8.82817975       0.00142681      -0.00201854      -0.00247026
Br       3.04136331       4.33084919       5.26779626       0.00142534      -0.00201678       0.00247096
Br       5.09695166       1.42380871       8.82817952      -0.00142747       0.00201872      -0.00246853
