9
Lattice="4.613395001037949 -3.8427790612318106e-07 2.6635451474624943 1.5377981898236779 4.349549295962131 2.6635447691045546 -2.986313132055148e-08 -4.845083877007046e-07 5.3270903466494355" Properties=species:S:1:pos:R:3:forces:R:3 energy=-52.24758529663086 free_energy=-52.24758529663086 stress="0.0005026982398703694 1.010899630671247e-08 4.111456775035549e-08 1.010899630671247e-08 0.000503014656715095 3.914999524567975e-08 4.111456775035549e-08 3.914999524567975e-08 0.0005027790903113782" pbc="T T T"
Sc       1.53779713       1.08738601       2.66354487      -0.00001312      -0.00001477      -0.00000224
Sc       4.61339330       3.26215992       7.99063435      -0.00001390      -0.00001305      -0.00000867
Ru       0.00000061       0.00000035       0.00000020       0.00000173       0.00000747       0.00000641
F        1.66526267       1.17751822       5.32709016      -0.00637552      -0.00450638      -0.00000048
F        4.48593123       3.17203156       5.32709056       0.00637659       0.00451127       0.00000361
F        3.78076361       1.17751735       4.10570503       0.00319295      -0.00450936      -0.00552487
F        2.37043028       3.17203115       6.54847566      -0.00317861       0.00451450       0.00552303
F        2.37042953       3.17203199       4.10570484      -0.00318228       0.00451462      -0.00552076
F        3.78076431       1.17751713       6.54847562       0.00319292      -0.00450423       0.00552401
