9
Lattice="4.704308529312264 -1.136915990295921e-07 2.7160336547402637 1.5681026785355952 4.435264546234934 2.716033754123683 8.838422292402593e-08 1.8421639451139258e-07 5.432067156394565" Properties=species:S:1:pos:R:3:forces:R:3 energy=-49.95125198364258 free_energy=-49.95125198364258 stress="-8.524509030394256e-05 7.252063483065285e-08 -1.1003767497186345e-07 7.252063483065285e-08 -8.546240860596299e-05 4.4368270835093426e-08 -1.1003767497186345e-07 4.4368270835093426e-08 -8.533111395081505e-05" pbc="T T T"
Sc       1.56810363       1.10881821       2.71603434       0.00000648       0.00002097       0.00000843
Sc       4.70430845       3.32644664       8.14810300      -0.00000034      -0.00001871       0.00001918
Rh      -0.00000023      -0.00000001       0.00000001      -0.00000299      -0.00000705       0.00000347
F        1.61982951       1.14539382       5.43206669       0.00237477       0.00169000      -0.00000379
F        4.65258161       3.28987030       5.43206672      -0.00237030      -0.00168625      -0.00000507
F        3.89439330       1.14539488       4.11884649      -0.00118920       0.00169215       0.00204813
F        2.37801739       3.28987109       6.74528710       0.00118512      -0.00169036      -0.00205785
F        2.37801840       3.28987107       4.11884680       0.00119200      -0.00168890       0.00205439
F        3.89439324       1.14539251       6.74528693      -0.00119510       0.00168803      -0.00206685
