9
Lattice="6.592390342069563 -4.6555965529849485e-08 3.8061184333966156 2.1974633956711536 6.215365273466204 3.8061184468927185 3.3033915727834453e-08 3.988778830785276e-08 7.612236809576814" Properties=species:S:1:pos:R:3:forces:R:3 energy=-31.78798484802246 free_energy=-31.78798484802246 stress="0.0002682432532310486 -1.5010169107654292e-08 1.1251707121573418e-08 -1.5010169107654292e-08 0.0002682529157027602 2.301070223253987e-09 1.1251707121573418e-08 2.301070223253987e-09 0.00026825492386706173" pbc="T T T"
Sc       2.19746351       1.55384148       3.80611839       0.00000106       0.00000168       0.00000019
Sc       6.59239011       4.66152354      11.41835488      -0.00000112      -0.00000364      -0.00000129
Rh      -0.00000006      -0.00000009       0.00000020      -0.00000012      -0.00000124      -0.00000340
I        2.17398906       1.53724244       7.61223682       0.00023661       0.00016697       0.00000002
I        6.61586465       4.67812300       7.61223698      -0.00023619      -0.00016683       0.00000010
I        5.50539584       1.53724260       5.68884824      -0.00011813       0.00016864       0.00020441
I        3.28445827       4.67812265       9.53562535       0.00011719      -0.00016528      -0.00020142
I        3.28445794       4.67812272       5.68884837       0.00011718      -0.00016627       0.00020312
I        5.50539579       1.53724273       9.53562554      -0.00011643       0.00016595      -0.00020175
