9
Lattice="6.209132932594498 -3.155382717727282e-07 3.5848447617946246 2.0697109163202447 5.854025828301527 3.584844352543781 3.6420872511919107e-07 -2.436934116373822e-07 7.169688892761203" Properties=species:S:1:pos:R:3:forces:R:3 energy=-32.82878494262695 free_energy=-32.82878494262695 stress="-8.32975420053117e-05 2.2480762140730803e-08 3.5254331010037276e-08 2.2480762140730803e-08 -8.335005986737087e-05 -3.440741025428906e-08 3.5254331010037276e-08 -3.440741025428906e-08 -8.334351150551811e-05" pbc="T T T"
Sc       2.06971020       1.46350657       3.58484545      -0.00000460      -0.00000063       0.00000312
Sc       6.20913331       4.39051727      10.75453115       0.00000028      -0.00000435      -0.00000946
Si       0.00000017       0.00000016      -0.00000026      -0.00000241       0.00000061       0.00000628
Br       2.05549986       1.45345749       7.16968872       0.00033212       0.00023824      -0.00000104
Br       6.22334339       4.40056790       7.16968847      -0.00032765      -0.00023368       0.00000475
Br       5.18138383       1.45345645       5.36496014      -0.00016794       0.00023741       0.00028899
Br       3.09746132       4.40056907       8.97441920       0.00017202      -0.00024122      -0.00029320
Br       3.09746044       4.40056876       5.36496039       0.00016215      -0.00023603       0.00028679
Br       5.18138429       1.45345712       8.97441867      -0.00016370       0.00023979      -0.00028643
