9
Lattice="4.961735137002363 5.704275588410767e-08 2.8646558295001485 1.6539109377513774 4.677973901276151 2.864657264269562 -2.594488032289795e-06 -7.735497439758048e-08 5.729316152785019" Properties=species:S:1:pos:R:3:forces:R:3 energy=-46.09989929199219 free_energy=-46.09989929199219 stress="-0.00014452736650127918 5.573687076321221e-07 1.836677824940125e-06 5.573687076321221e-07 -0.00014818079944234341 1.297396693189512e-06 1.836677824940125e-06 1.297396693189512e-06 -0.00014300114708021283" pbc="T T T"
Sc       1.65387752       1.16954552       2.86469563      -0.00028420       0.00047163       0.00035285
Sc       4.96168494       3.50849550       8.59397758      -0.00041864       0.00013693       0.00005690
Sb      -0.00000242       0.00000519       0.00000478      -0.00004585       0.00004310       0.00002860
F        1.76202814       1.24591453       5.72928957       0.00435917       0.00284033      -0.00020780
F        4.85365109       3.43201882       5.72931559      -0.00407995      -0.00321662       0.00000133
F        4.08073390       1.24593653       4.39060377      -0.00206351       0.00302075       0.00366482
F        2.53492337       3.43203119       7.06803606       0.00223203      -0.00308256      -0.00357279
F        2.53492981       3.43201395       4.39057917       0.00222981      -0.00322308       0.00344625
F        4.08074832       1.24593338       7.06801533      -0.00192873       0.00300954      -0.00377010
