9
Lattice="8.206126634918759 -0.8617713274377744 4.097668954949944 2.5920782223459446 4.153924577249587 3.205720269894055 0.12459539374530577 -1.0199559444180868 8.187310300322409" Properties=species:S:1:pos:R:3:forces:R:3 energy=-55.94643783569336 free_energy=-55.94643783569336 stress="-0.0009654276655055583 0.0005500931292772293 0.00017691597167868167 0.0005500931292772293 -0.001135346945375204 -6.724425475113094e-05 0.00017691597167868167 -6.724425475113094e-05 -0.0006822891300544143" pbc="T T T"
Sc       5.48562701       0.79464344       3.52562562       0.01998541      -0.05355822      -0.02393202
Sc       5.85443721       2.71674668      13.00233456      -0.03316718       0.13352424      -0.05441779
Sb       0.60248777      -0.68749229      -0.45136605       0.02024590      -0.00901210      -0.01927209
F        1.84324158      -0.34300793       8.98781711       0.04559278      -0.08444524       0.06646256
F        6.30733583       3.93403683       6.78257912      -0.01196319      -0.00700662       0.02325568
F        7.03771195      -0.40480833       3.74583188      -0.04679815       0.02413376       0.01942521
F        6.47665241       1.60432153      11.40566786       0.02097267       0.00304890      -0.01354450
F        5.04029880       1.86059987       5.19910873      -0.02718642      -0.02235830       0.06623137
F        5.04360074      -0.38558747       9.76605667       0.01231819       0.01567339      -0.06420845
