9
Lattice="6.355508827855182 -1.6292180377970617e-07 3.6693543414849508 2.1185028661975474 5.9920307274314455 3.669354207799489 -4.284227185292375e-08 -1.9402458391607996e-07 7.338708757174879" Properties=species:S:1:pos:R:3:forces:R:3 energy=-31.07598304748535 free_energy=-31.07598304748535 stress="0.00018696457846090198 -9.60566293173315e-09 3.9666221418599434e-09 -9.60566293173315e-09 0.0001868814288172871 1.6159617644007085e-08 3.9666221418599434e-09 1.6159617644007085e-08 0.00018696671759244055" pbc="T T T"
Sc       2.11850199       1.49800899       3.66935469      -0.00000319       0.00000558       0.00000131
Sc       6.35550863       4.49402166      11.00806310      -0.00000094      -0.00000259       0.00000136
Sb       0.00000025       0.00000007      -0.00000010      -0.00000134      -0.00000144      -0.00000150
Br       2.20137009       1.55660405       7.33870853      -0.00204408      -0.00144413      -0.00000071
Br       6.27264168       4.43542617       7.33870839       0.00204599       0.00144318       0.00000010
Br       5.25482358       1.55660393       5.57579670       0.00102374      -0.00144553      -0.00177053
Br       3.21918824       4.43542638       9.10162067      -0.00102273       0.00144595       0.00177154
Br       3.21918825       4.43542667       5.57579682      -0.00102085       0.00144508      -0.00177053
Br       5.25482391       1.55660355       9.10162048       0.00102329      -0.00144625       0.00176904
