9
Lattice="6.345932838020426 -3.114328155573106e-07 3.663825688273004 2.11531069809833 5.983001966005986 3.663825609095388 1.7132395253845214e-07 2.4171915093763003e-08 7.327651079804254" Properties=species:S:1:pos:R:3:forces:R:3 energy=-28.410737991333008 free_energy=-28.410737991333008 stress="-0.00019445350335445255 -3.0693967367767527e-09 -2.0921909538174077e-08 -3.0693967367767527e-09 -0.00019445996440481395 -3.862488107131412e-09 -2.0921909538174077e-08 -3.862488107131412e-09 -0.0001944689720403403" pbc="T T T"
Sc       2.11531169       1.49575011       3.66382284       0.00000365      -0.00000246      -0.00001291
Sc       6.34593626       4.48724994      10.99147935       0.00001577      -0.00000658       0.00001236
Se      -0.00000029       0.00000011      -0.00000004      -0.00000184       0.00000164       0.00000035
Br       2.15928598       1.52684576       7.32765221       0.00123441       0.00088033       0.00000632
Br       6.30195652       4.45615655       7.32765002      -0.00123942      -0.00087428      -0.00000525
Br       5.26628949       1.52684644       5.53382276      -0.00061554       0.00087687       0.00107175
Br       3.19495255       4.45615606       9.12147966       0.00061053      -0.00087807      -0.00107652
Br       3.19495397       4.45615589       5.53382289       0.00061479      -0.00087270       0.00107473
Br       5.26628871       1.52684580       9.12147994      -0.00062227       0.00087523      -0.00107077
