9
Lattice="6.838088356429356 -2.0321717134544837e-09 3.9479722397079775 2.279362784351599 6.447011486285237 3.947972238337773 2.1781773381855532e-08 1.3723909022727522e-08 7.895944441688784" Properties=species:S:1:pos:R:3:forces:R:3 energy=-27.42008399963379 free_energy=-27.42008399963379 stress="0.00022194950724951923 -1.0980520492864798e-08 2.0914046050535262e-09 -1.0980520492864798e-08 0.0002219551824964583 4.0868810557981305e-09 2.0914046050535262e-09 4.0868810557981305e-09 0.00022196599456947297" pbc="T T T"
Sc       2.27936264       1.61175314       3.94797227      -0.00000133       0.00000126      -0.00000035
Sc       6.83808821       4.83525796      11.84391634      -0.00000025      -0.00000236      -0.00000129
Sn       0.00000029       0.00000012       0.00000010      -0.00000086      -0.00000052      -0.00000056
I        2.37829110       1.68170584       7.89594446       0.00197808       0.00139924      -0.00000025
I        6.73916006       4.76530550       7.89594453      -0.00197750      -0.00139803       0.00000103
I        5.64894279       1.68170575       6.00763262      -0.00098872       0.00139865       0.00171288
I        3.46850830       4.76530601       9.78425619       0.00098963      -0.00139847      -0.00171258
I        3.46850824       4.76530573       6.00763271       0.00098885      -0.00139870       0.00171255
I        5.64894303       1.68170594       9.78425646      -0.00098789       0.00139894      -0.00171153
