9
Lattice="6.150191029761198 4.6298641437576595e-07 3.5508145898112016 2.0500640199014133 5.7984564945836 3.550814751226915 5.1091178343371845e-08 2.3382001422262674e-07 7.101629091129789" Properties=species:S:1:pos:R:3:forces:R:3 energy=-33.99900817871094 free_energy=-33.99900817871094 stress="-4.528730278252624e-05 2.6307326095320605e-08 -1.690538731224933e-08 2.6307326095320605e-08 -4.5332679292187095e-05 -1.6940239433438364e-08 -1.690538731224933e-08 -1.6940239433438364e-08 -4.529800935415551e-05" pbc="T T T"
Sc       2.05006354       1.44961441       3.55081393      -0.00000137       0.00000400      -0.00000365
Sc       6.15019081       4.34884250      10.65244498      -0.00000216      -0.00000418       0.00000481
Sb       0.00000030       0.00000006      -0.00000073      -0.00000187       0.00000032       0.00000805
Cl       2.13091883       1.50678788       7.10162979      -0.00049773      -0.00035298       0.00000167
Cl       6.06933628       4.29166903       7.10162835       0.00050080       0.00035229      -0.00000303
Cl       5.08473219       1.50678810       5.39624417       0.00025004      -0.00035068      -0.00043222
Cl       3.11552294       4.29166944       8.80701445      -0.00024794       0.00034910       0.00042903
Cl       3.11552342       4.29166930       5.39624446      -0.00024848       0.00035265      -0.00043315
Cl       5.08473232       1.50678809       8.80701422       0.00024866      -0.00035051       0.00042844
