9
Lattice="4.765454911205235 9.239644988689199e-07 2.75133830623699 1.5884858891478846 4.492912017007795 2.7513382237490807 1.9703819024471953e-06 1.292244232402402e-06 5.502673199672222" Properties=species:S:1:pos:R:3:forces:R:3 energy=-42.82640075683594 free_energy=-42.82640075683594 stress="0.0003767102025449276 1.9977829879280762e-07 -2.447806764394045e-06 1.9977829879280762e-07 0.0003845979808829725 -1.768993115547346e-06 -2.447806764394045e-06 -1.768993115547346e-06 0.00037725563743151724" pbc="T T T"
Sc       1.58850978       1.12323669       2.75138335       0.00025462       0.00009579       0.00052882
Sc       4.76546636       3.36975417       8.25409447       0.00013587       0.00081112       0.00097784
Se      -0.00000248      -0.00000477      -0.00000848      -0.00002293      -0.00006400      -0.00008902
F        1.73496944       1.22678374       5.50265532      -0.00624812      -0.00474513      -0.00020336
F        4.61898489       3.26610685       5.50263909       0.00634271       0.00450450      -0.00043955
F        3.89795891       1.22678958       4.25385032       0.00298852      -0.00465024      -0.00559950
F        2.45594938       3.26612215       6.75147328      -0.00336590       0.00457031       0.00528979
F        2.45598210       3.26611310       4.25384380      -0.00301450       0.00448632      -0.00568491
F        3.89795244       1.22675510       6.75146844       0.00292951      -0.00500906       0.00521898
