9
Lattice="6.705269667516149 8.16245855141353e-09 3.8712892986547756 2.2350898953526546 6.32178884897659 3.8712893012788747 -2.841737242133306e-08 -1.688026868753252e-08 7.742578646529887" Properties=species:S:1:pos:R:3:forces:R:3 energy=-28.601327896118164 free_energy=-28.601327896118164 stress="4.648445610655472e-05 -3.4006548688125804e-09 -9.913623699731033e-09 -3.4006548688125804e-09 4.649211768992245e-05 2.358177209060841e-09 -9.913623699731033e-09 2.358177209060841e-09 4.649789843824692e-05" pbc="T T T"
Sc       2.23508991       1.58044716       3.87128961       0.00000029      -0.00000050       0.00000215
Sc       6.70526973       4.74134151      11.61386740       0.00000042       0.00000048      -0.00000112
Si       0.00000004      -0.00000019       0.00000020       0.00000032       0.00000030      -0.00000017
I        2.25008849       1.59105280       7.74257855       0.00128314       0.00090739      -0.00000115
I        6.69027106       4.73073601       7.74257873      -0.00128284      -0.00090635       0.00000012
I        5.58022534       1.59105303       5.81992323      -0.00064188       0.00090632       0.00110912
I        3.36013408       4.73073601       9.66523397       0.00064047      -0.00090617      -0.00110948
I        3.36013405       4.73073602       5.81992327       0.00064111      -0.00090739       0.00111005
I        5.58022540       1.59105300       9.66523407      -0.00064096       0.00090599      -0.00110966
