9
Lattice="4.82942490726843 -2.245965737402048e-06 2.788270192815994 1.6098067988312057 4.553221771561859 2.788269129466223 -1.30950180317293e-06 -2.2282897254482628e-06 5.576542653755644" Properties=species:S:1:pos:R:3:forces:R:3 energy=-48.87040710449219 free_energy=-48.87040710449219 stress="0.0003661524970084429 -7.787949130033667e-08 1.8509686583456642e-07 -7.787949130033667e-08 0.00036586695932783186 1.0102655778609915e-07 1.8509686583456642e-07 1.0102655778609915e-07 0.000365664076525718" pbc="T T T"
Sc       1.60981965       1.13829646       2.78827347       0.00009412      -0.00005267       0.00003118
Sc       4.82942177       3.41491334       8.36480490       0.00001113      -0.00001254      -0.00005842
Si      -0.00000115       0.00000153      -0.00000078      -0.00000819      -0.00000457       0.00001370
F        1.57574313       1.11421923       5.57653902      -0.00045019      -0.00030941      -0.00002000
F        4.86348588       3.43899797       5.57654257       0.00042325       0.00034094       0.00002365
F        4.04154677       1.11421661       4.15290692       0.00017023      -0.00031763      -0.00038546
F        2.39767773       3.43900490       7.00017748      -0.00020698       0.00033665       0.00037766
F        2.39767789       3.43899928       4.15290676      -0.00023529       0.00031698      -0.00038427
F        4.04155053       1.11421867       7.00017768       0.00020137      -0.00029749       0.00040120
