9
Lattice="4.910359868113058 -1.1365643472691195e-06 2.8349959413313863 1.6367870741173662 4.629531027110584 2.8349933034593597 -3.515651954499621e-07 -3.479315281173219e-06 5.669992491590846" Properties=species:S:1:pos:R:3:forces:R:3 energy=-47.05600357055664 free_energy=-47.05600357055664 stress="0.0003375281230546534 -7.723565431660973e-07 1.09825930394436e-06 -7.723565431660973e-07 0.00033847065060399473 7.1327366413243e-07 1.09825930394436e-06 7.1327366413243e-07 0.00033500741119496524" pbc="T T T"
Sc       1.63677620       1.15741133       2.83498707      -0.00007267       0.00024021      -0.00005007
Sc       4.91037603       3.47219543       8.50496753       0.00013542       0.00041804      -0.00019075
Sn       0.00000193      -0.00000198      -0.00000136       0.00000610       0.00005242      -0.00001858
F        1.75220942       1.23898711       5.66999837      -0.00328928      -0.00246206       0.00005399
F        4.79494310       3.39051788       5.67000132       0.00342138       0.00224320       0.00008748
F        4.03424808       1.23897030       4.35246177       0.00161293      -0.00257719      -0.00274860
F        2.51289503       3.39052674       6.98753086      -0.00167987       0.00229303       0.00292851
F        2.51287914       3.39052191       4.35245564      -0.00178570       0.00228747      -0.00287225
F        4.03425727       1.23897866       6.98752695       0.00165164      -0.00249489       0.00281033
