9
Lattice="6.306577365667348 -3.107382672543093e-08 3.6411041715772963 2.102192463776458 5.945897898747079 3.6411041060179707 -3.772951790824667e-08 -1.0697226457648004e-07 7.282208408504031" Properties=species:S:1:pos:R:3:forces:R:3 energy=-31.62108612060547 free_energy=-31.62108612060547 stress="0.00012899807188659906 6.608405822561281e-09 -9.338781303824817e-09 6.608405822561281e-09 0.0001290109212277457 5.0494795011957194e-09 -9.338781303824817e-09 5.0494795011957194e-09 0.0001290267682634294" pbc="T T T"
Sc       2.10219303       1.48647574       3.64110368       0.00000172       0.00000503      -0.00000115
Sc       6.30657728       4.45942197      10.92331236       0.00000067      -0.00000417      -0.00000129
Sn       0.00000012      -0.00000010       0.00000008       0.00000156       0.00000359      -0.00000069
Br       2.16082289       1.52793262       7.28220843       0.00101179       0.00071844      -0.00000044
Br       6.24794688       4.41796532       7.28220834      -0.00101393      -0.00071901       0.00000060
Br       5.22616571       1.52793273       5.51243192      -0.00050725       0.00071719       0.00087595
Br       3.18260362       4.41796489       9.05198516       0.00050546      -0.00071788      -0.00087601
Br       3.18260386       4.41796549       5.51243181       0.00050651      -0.00072032       0.00087863
Br       5.22616570       1.52793247       9.05198501      -0.00050646       0.00071707      -0.00087571
