9
Lattice="6.079903493374953 2.7906751163171065e-07 3.5102342325241964 2.0266347790203616 5.732188073524674 3.510234201137053 1.1485977989748344e-07 4.277686162956296e-08 7.0204682661055005" Properties=species:S:1:pos:R:3:forces:R:3 energy=-31.36111068725586 free_energy=-31.36111068725586 stress="-0.00013484970259014517 2.7774166966310077e-08 -1.5610400083687637e-08 2.7774166966310077e-08 -0.00013483721704687923 -6.2734257788577e-09 -1.5610400083687637e-08 -6.2734257788577e-09 -0.00013476972526405007" pbc="T T T"
Sc       2.02663836       1.43304586       3.51023191       0.00002483      -0.00000902      -0.00001562
Sc       6.07990175       4.29913898      10.53070372      -0.00001611      -0.00001599       0.00000718
Se      -0.00000002       0.00000018       0.00000023      -0.00000437       0.00000210       0.00000031
Cl       2.05285938       1.45159250       7.02046971       0.00126630       0.00089991       0.00000728
Cl       6.05367666       4.28059759       7.02046772      -0.00126743      -0.00088787      -0.00000444
Cl       5.05347215       1.45159251       5.28806249      -0.00063816       0.00090092       0.00108820
Cl       3.05306602       4.28059561       8.75287329       0.00063556      -0.00089699      -0.00108880
Cl       3.05306665       4.28059778       5.28806390       0.00063971      -0.00089061       0.00109458
Cl       5.05347292       1.45159244       8.75287374      -0.00064027       0.00089753      -0.00108898
