9
Lattice="6.683935220183441 1.2426911211684081e-08 3.8589718829469324 2.2279784040773376 6.301674535848142 3.858971907830768 3.016520176630764e-08 5.180635395367001e-08 7.717943713646209" Properties=species:S:1:pos:R:3:forces:R:3 energy=-25.82296371459961 free_energy=-25.82296371459961 stress="3.702610410982743e-05 -2.753309136238613e-09 -2.71193817402704e-10 -2.753309136238613e-09 3.702855610754341e-05 -2.321545844452544e-09 -2.71193817402704e-10 -2.321545844452544e-09 3.703725087689236e-05" pbc="T T T"
Sc       2.22797866       1.57541863       3.85897128       0.00000007      -0.00000108      -0.00000259
Sc       6.68393510       4.72625647      11.57691625      -0.00000037       0.00000237       0.00000490
S       -0.00000009      -0.00000002       0.00000016       0.00000002      -0.00000028       0.00000012
I        2.35324574       1.66399568       7.71794371       0.00375137       0.00265130       0.00000103
I        6.55866803       4.63767871       7.71794360      -0.00375070      -0.00265135      -0.00000218
I        5.50731254       1.66399607       5.89694241      -0.00187407       0.00265230       0.00324801
I        3.40460097       4.63767865       9.53894535       0.00187421      -0.00265251      -0.00324903
I        3.40460147       4.63767865       5.89694221       0.00187652      -0.00265130       0.00324821
I        5.50731225       1.66399558       9.53894510      -0.00187699       0.00265054      -0.00324848
