9
Lattice="5.923515608628922 7.247120515356906e-07 3.4199447563896936 1.9745057278486169 5.584745367515877 3.419945030560789 8.827163569836802e-08 3.982071084640035e-07 6.839889359888392" Properties=species:S:1:pos:R:3:forces:R:3 energy=-35.59744644165039 free_energy=-35.59744644165039 stress="-9.062812750926241e-05 7.774281129968585e-08 -3.185944308370381e-08 7.774281129968585e-08 -9.078020229935646e-05 2.214158278945888e-08 -3.185944308370381e-08 2.214158278945888e-08 -9.045369370141998e-05" pbc="T T T"
Sc       1.97450369       1.39618315       3.41994314      -0.00001224      -0.00002559      -0.00000786
Sc       5.92351710       4.18856681      10.25983039       0.00001236       0.00003589      -0.00002092
Si       0.00000006       0.00000224       0.00000074      -0.00000011      -0.00001308      -0.00000004
Cl       1.95395093       1.38165195       6.83988989      -0.00164455      -0.00117558       0.00000512
Cl       5.94406873       4.20309403       6.83989082       0.00165141       0.00117487       0.00000920
Cl       4.94654146       1.38165015       5.11211849       0.00082275      -0.00117609      -0.00141764
Cl       2.95148110       4.20309422       8.56766176      -0.00082287       0.00117415       0.00143301
Cl       2.95148005       4.20309435       5.11211983      -0.00082874       0.00117582      -0.00142127
Cl       4.94654215       1.38164961       8.56766167       0.00082240      -0.00117043       0.00142056
