9
Lattice="6.78723546358308 -2.63519367514226e-08 3.91861226817974 2.2624118464629617 6.399066892159287 3.9186121813807318 6.409421705074505e-08 -6.09852180431578e-08 7.8372244253449965" Properties=species:S:1:pos:R:3:forces:R:3 energy=-25.2933292388916 free_energy=-25.2933292388916 stress="0.00011132235522381961 1.4781424972909463e-09 1.7467677304594531e-09 1.4781424972909463e-09 0.00011131332576042041 -5.451568974024212e-09 1.7467677304594531e-09 -5.451568974024212e-09 0.00011131282371934503" pbc="T T T"
Sc       2.26241167       1.59976656       3.91861222      -0.00000140       0.00000042      -0.00000026
Sc       6.78723549       4.79930033      11.75583677      -0.00000046      -0.00000040      -0.00000055
Se      -0.00000019      -0.00000008       0.00000012       0.00000034      -0.00000011      -0.00000025
I        2.39583230       1.69410901       7.83722443      -0.00031576      -0.00022322       0.00000004
I        6.65381517       4.70495766       7.83722434       0.00031598       0.00022326       0.00000047
I        5.58931954       1.69410918       5.99346378       0.00015869      -0.00022362      -0.00027318
I        3.46032805       4.70495769       9.68098506      -0.00015774       0.00022359       0.00027375
I        3.46032803       4.70495772       5.99346374      -0.00015825       0.00022320      -0.00027357
I        5.58931949       1.69410909       9.68098508       0.00015856      -0.00022319       0.00027364
