9
Lattice="6.8902467281661135 9.030182387227509e-08 3.97808583610549 2.2967489454101946 6.496186752698171 3.9780859211766804 -5.8674510479850925e-08 6.270137816500045e-08 7.956171773838196" Properties=species:S:1:pos:R:3:forces:R:3 energy=-27.124473571777344 free_energy=-27.124473571777344 stress="9.01120001799427e-05 -3.4555452943507703e-10 8.647877081102706e-09 -3.4555452943507703e-10 9.01057428563945e-05 2.6615414316921715e-09 8.647877081102706e-09 2.6615414316921715e-09 9.01210805750452e-05" pbc="T T T"
Sc       2.29674860       1.62404661       3.97808594      -0.00000068      -0.00000104       0.00000098
Sc       6.89024706       4.87214028      11.93425713       0.00000113       0.00000106      -0.00000076
Sb       0.00000014       0.00000004       0.00000032      -0.00000007       0.00000033      -0.00000008
I        2.41025768       1.70430972       7.95617179       0.00040674       0.00028711       0.00000040
I        6.77673805       4.79187745       7.95617169      -0.00040703      -0.00028785      -0.00000037
I        5.68511751       1.70430935       6.06543036      -0.00020351       0.00028791       0.00035304
I        3.50187770       4.79187733       9.84691333       0.00020371      -0.00028708      -0.00035262
I        3.50187755       4.79187718       6.06543051       0.00020303      -0.00028758       0.00035262
I        5.68511811       1.70430970       9.84691312      -0.00020321       0.00028715      -0.00035322
