9
Lattice="6.356151293728203 2.27798829272971e-08 3.669725362762738 2.1187171044257798 5.992636679727655 3.6697253886754186 4.1600429343118664e-08 6.115238920940229e-08 7.339450653471382" Properties=species:S:1:pos:R:3:forces:R:3 energy=-31.075944900512695 free_energy=-31.075944900512695 stress="0.0002788752899505198 1.44603093943374e-08 9.196025274604835e-09 1.44603093943374e-08 0.0002788544516079128 9.361066366508908e-10 9.196025274604835e-09 9.361066366508908e-10 0.000278828083537519" pbc="T T T"
Sc       2.11871728       1.49815966       3.66972501       0.00000009       0.00000165      -0.00000090
Sc       6.35615069       4.49447687      11.00917521      -0.00000196      -0.00000223      -0.00000260
Sb       0.00000001       0.00000023      -0.00000004      -0.00000092      -0.00000355      -0.00000075
Br       2.20206216       1.55709263       7.33945094      -0.00564864      -0.00399429       0.00000110
Br       6.27280633       4.43554380       7.33945099       0.00565055       0.00399518       0.00000075
Br       5.25512045       1.55709308       5.57676695       0.00282493      -0.00399280      -0.00489235
Br       3.21974825       4.43554365       9.10213477      -0.00282407       0.00399399       0.00489464
Br       3.21974803       4.43554377       5.57676704      -0.00282429       0.00399458      -0.00489271
Br       5.25512063       1.55709332       9.10213491       0.00282438      -0.00399262       0.00489298
