9
Lattice="4.438085852669494 -1.4183897720571947e-07 2.5623299668706565 1.4793618272816398 4.184267137392601 2.562329949344274 -1.440199266272237e-07 -1.233028326321664e-07 5.124660183191157" Properties=species:S:1:pos:R:3:forces:R:3 energy=-44.6268424987793 free_energy=-44.6268424987793 stress="0.0002525931049603969 2.246885060230852e-07 1.1687735934629018e-07 2.246885060230852e-07 0.00025314342929050326 5.4106450875224255e-08 1.1687735934629018e-07 5.4106450875224255e-08 0.0002529426128603518" pbc="T T T"
Sc       1.47936107       1.04606592       2.56233270      -0.00000986      -0.00001102       0.00002439
Sc       4.43808340       3.13819938       7.68698947      -0.00002230      -0.00000743      -0.00000093
S        0.00000002       0.00000000      -0.00000006      -0.00000421       0.00000294      -0.00000566
F        1.61755569       1.14378260       5.12465871      -0.00106704      -0.00077641      -0.00001726
F        4.29989198       3.04048440       5.12465998       0.00107110       0.00077748       0.00000250
F        3.62931023       1.14378297       3.96317494       0.00054973      -0.00076652      -0.00091815
F        2.28813965       3.04048532       6.28614490      -0.00053412       0.00078362       0.00091684
F        2.28813999       3.04048120       3.96317135      -0.00052440       0.00073808      -0.00095534
F        3.62930805       1.14378585       6.28614827       0.00054210      -0.00074071       0.00095403
