9
Lattice="6.150458934763445 5.497050427409911e-08 3.5509691631407714 2.050153137228716 5.798708154814855 3.5509689775557307 4.9095891353259643e-08 -1.9257820426075284e-07 7.101938241244927" Properties=species:S:1:pos:R:3:forces:R:3 energy=-33.999000549316406 free_energy=-33.999000549316406 stress="1.575500937178731e-05 3.6815041681848015e-08 -1.7995837708895124e-08 3.6815041681848015e-08 1.5690135114709847e-05 7.343690544558967e-09 -1.7995837708895124e-08 7.343690544558967e-09 1.5675779650337063e-05" pbc="T T T"
Sc       2.05015212       1.44967726       3.55097059      -0.00000568       0.00000070       0.00000736
Sc       6.15045851       4.34902941      10.65290895      -0.00000223      -0.00000758       0.00000907
Sb       0.00000012      -0.00000017      -0.00000111       0.00000084       0.00000089       0.00000709
Cl       2.13126861       1.50703433       7.10193756      -0.00282922      -0.00199950      -0.00000386
Cl       6.06934339       4.29167389       7.10193703       0.00282869       0.00199923      -0.00000557
Cl       5.08482547       1.50703499       5.39670125       0.00141570      -0.00199461      -0.00245050
Cl       3.11578665       4.29167471       8.80717477      -0.00141259       0.00199831       0.00244287
Cl       3.11578738       4.29167351       5.39670101      -0.00141039       0.00199571      -0.00244886
Cl       5.08482635       1.50703407       8.80717522       0.00141503      -0.00199321       0.00244212
