9
Lattice="6.249212164946238 9.860271307258821e-08 3.6079845518389493 2.083070842457879 5.89181356242378 3.60798450360897 1.5904592769613466e-08 -4.782320529145278e-08 7.215969076130319" Properties=species:S:1:pos:R:3:forces:R:3 energy=-29.0188045501709 free_energy=-29.0188045501709 stress="-4.998017175239511e-05 3.2123740112410815e-08 1.1646090758432592e-09 3.2123740112410815e-08 -4.993781112716533e-05 -2.79853096252225e-09 1.1646090758432592e-09 -2.79853096252225e-09 -4.991906462237239e-05" pbc="T T T"
Sc       2.08307541       1.47295269       3.60798407       0.00002562      -0.00000253      -0.00000177
Sc       6.24920953       4.41885747      10.82395399      -0.00001507      -0.00001455       0.00000095
S        0.00000014       0.00000018       0.00000019      -0.00000199      -0.00000047      -0.00000087
Br       2.13205533       1.50759068       7.21596862      -0.00088501      -0.00062639      -0.00000063
Br       6.20022667       4.38422456       7.21596940       0.00088131       0.00063354       0.00000150
Br       5.18318442       1.50759235       5.45439740       0.00043827      -0.00061792      -0.00077462
Br       3.14909838       4.38422236       8.97754021      -0.00044060       0.00062403       0.00077164
Br       3.14909857       4.38422295       5.45439837      -0.00043899       0.00062558      -0.00077009
Br       5.18318368       1.50759123       8.97754028       0.00043666      -0.00062111       0.00077391
