9
Lattice="4.831630658274035 -2.3700198674888887e-06 2.7895396993258665 1.6105413263894384 4.555306464305478 2.7895396852828496 7.490301127753175e-08 3.576540352857821e-08 5.579079268916137" Properties=species:S:1:pos:R:3:forces:R:3 energy=-43.898643493652344 free_energy=-43.898643493652344 stress="-3.224703732485068e-06 3.8705575207131915e-06 -4.4260590925659926e-07 3.8705575207131915e-06 -7.5736102189694066e-06 -2.9383579658315284e-07 -4.4260590925659926e-07 -2.9383579658315284e-07 7.722072950855363e-06" pbc="T T T"
Sc       1.61057187       1.13889040       2.78958341       0.00027378       0.00063463       0.00044157
Sc       4.83156292       3.41646114       8.36867111      -0.00065547      -0.00015192       0.00052551
Te      -0.00000247       0.00000278       0.00000363      -0.00001558       0.00001627       0.00003001
F        1.77440112       1.25468403       5.57906310       0.00050902       0.00026307      -0.00017503
F        4.66778406       3.30060131       5.57905175      -0.00035837      -0.00046358      -0.00025815
F        3.94441861       1.25470937       4.32617928      -0.00033852       0.00052401       0.00007468
F        2.49776028       3.30059635       6.83196709       0.00038713      -0.00052908      -0.00024194
F        2.49776236       3.30058266       4.32616916       0.00044477      -0.00064549      -0.00000581
F        3.94442928       1.25468826       6.83194612      -0.00024682       0.00035220      -0.00039098
