9
Lattice="5.911180264846658 -3.477607203067186e-08 3.412821511219891 1.970393360045319 5.573114758218506 3.412821561073519 -1.7209252561555536e-07 -6.062976723640021e-08 6.825643320512687" Properties=species:S:1:pos:R:3:forces:R:3 energy=-42.820533752441406 free_energy=-42.820533752441406 stress="0.0002605480549391359 5.962915139434699e-08 1.3074592075668079e-08 5.962915139434699e-08 0.00026058228104375303 -2.288929579208343e-08 1.3074592075668079e-08 -2.288929579208343e-08 0.0002606176713015884" pbc="T T T"
Sc       1.97039445       1.39327867       3.41282310       0.00000800      -0.00000056       0.00001305
Sc       5.91118126       4.17983612      10.23846355       0.00000917      -0.00000017      -0.00000608
Ta       0.00000012      -0.00000012      -0.00000017      -0.00000673      -0.00000295       0.00000290
Cl       2.00591600       1.41839752       6.82564234      -0.00566512      -0.00400412      -0.00000386
Cl       5.87565627       4.15471767       6.82564336       0.00566691       0.00401086       0.00000310
Cl       4.90822118       1.41839697       5.14999628       0.00282764      -0.00400835      -0.00490636
Cl       2.97335085       4.15471770       8.50128994      -0.00283217       0.00400358       0.00489986
Cl       2.97335151       4.15471702       5.14999640      -0.00283813       0.00400603      -0.00490749
Cl       4.90822201       1.41839729       8.50129034       0.00283015      -0.00400454       0.00490493
