9
Lattice="6.4327227004266 1.8361669530049357e-07 3.713934239401259 2.144241029989272 6.06482937378911 3.713934314344349 1.4490019273169368e-07 1.9424603669190855e-07 7.427868227828051" Properties=species:S:1:pos:R:3:forces:R:3 energy=-28.758914947509766 free_energy=-28.758914947509766 stress="-8.809008431853727e-05 -2.0045243243060895e-09 -7.1409171908953795e-09 -2.0045243243060895e-09 -8.804543904261664e-05 1.269399030334739e-10 -7.1409171908953795e-09 1.269399030334739e-10 -8.80681982380338e-05" pbc="T T T"
Sc       2.14424127       1.51620503       3.71393335       0.00000026      -0.00001053      -0.00000312
Sc       6.43272150       4.54862298      11.14180391      -0.00000431       0.00000309       0.00000452
Te       0.00000018       0.00000007       0.00000004       0.00000039       0.00000044      -0.00000167
Br       2.22899738       1.57613844       7.42786848      -0.00015700      -0.00011495       0.00000133
Br       6.34796635       4.48869175       7.42786807       0.00015646       0.00011650      -0.00000191
Br       5.31822488       1.57613942       5.64430203       0.00008041      -0.00011104      -0.00013810
Br       3.25873961       4.48869082       9.21143472      -0.00007874       0.00011495       0.00013778
Br       3.25873983       4.48869140       5.64430218      -0.00007692       0.00011572      -0.00013691
Br       5.31822447       1.57613911       9.21143448       0.00007951      -0.00011426       0.00013784
