9
Lattice="6.239039189581148 9.837363289866886e-08 3.602110848578671 2.079679832840644 5.882222435018297 3.6021108308551275 -1.7144836479905413e-07 -1.4293910765536342e-07 7.204221994114661" Properties=species:S:1:pos:R:3:forces:R:3 energy=-39.29411315917969 free_energy=-39.29411315917969 stress="-0.00032768899109214544 1.0020063889726316e-08 -3.1339116191020366e-08 1.0020063889726316e-08 -0.00032768017263151705 4.32321343168951e-08 -3.1339116191020366e-08 4.32321343168951e-08 -0.0003277153300587088" pbc="T T T"
Sc       2.07968079       1.47055658       3.60211041       0.00000305       0.00000459      -0.00000246
Sc       6.23904015       4.41166706      10.80633272       0.00000379       0.00000049      -0.00000001
Ta      -0.00000004      -0.00000060       0.00000046      -0.00000660       0.00000371      -0.00000014
Br       2.09979602       1.48477997       7.20422177       0.00443059       0.00313464      -0.00000058
Br       6.21892195       4.39744189       7.20422182      -0.00443143      -0.00313285       0.00000137
Br       5.18914064       1.48478073       5.42058829      -0.00221306       0.00312868       0.00383306
Br       3.12957757       4.39744196       8.98785577       0.00221288      -0.00313345      -0.00383729
Br       3.12957789       4.39744192       5.42058773       0.00221682      -0.00313678       0.00384080
Br       5.18914038       1.48477982       8.98785573      -0.00221601       0.00313121      -0.00383449
