9
Lattice="6.8517243051420005 2.5289667716487515e-08 3.9558447504102396 2.2839081032337893 6.459867411071 3.955844789075737 -1.6082400145142533e-08 3.598338715116676e-08 7.911689528676017" Properties=species:S:1:pos:R:3:forces:R:3 energy=-34.79637908935547 free_energy=-34.79637908935547 stress="0.00024785700952634215 1.583326358911563e-08 -5.80113113102243e-09 1.583326358911563e-08 0.0002478733367752284 -3.809546900157557e-09 -5.80113113102243e-09 -3.809546900157557e-09 0.0002478608803357929" pbc="T T T"
Sc       2.28390804       1.61496671       3.95584495      -0.00000109       0.00000188       0.00000147
Sc       6.85172437       4.84490082      11.86753393       0.00000072      -0.00000210      -0.00000149
Ta       0.00000011      -0.00000019      -0.00000027      -0.00000091       0.00000175      -0.00000060
I        2.29231796       1.62091345       7.91168951       0.00120446       0.00085181      -0.00000028
I        6.84331443       4.83895405       7.91168959      -0.00120464      -0.00085154       0.00000038
I        5.70556544       1.62091330       5.94105025      -0.00060283       0.00085226       0.00104344
I        3.43006688       4.83895425       9.88232898       0.00060372      -0.00085354      -0.00104469
I        3.43006685       4.83895423       5.94105025       0.00060344      -0.00085354       0.00104490
I        5.70556551       1.62091324       9.88232903      -0.00060290       0.00085288      -0.00104311
