9
Lattice="6.851642021259073 -8.069994761980168e-08 3.9557972574532894 2.283880487782524 6.45979026904749 3.9557974477811984 -2.0632271843113733e-07 8.72109732698569e-08 7.911594872267979" Properties=species:S:1:pos:R:3:forces:R:3 energy=-34.796382904052734 free_energy=-34.796382904052734 stress="0.00024202738131862134 1.3601632709026035e-08 1.491626022698256e-08 1.3601632709026035e-08 0.0002420236123725772 -8.192818867769347e-09 1.491626022698256e-08 -8.192818867769347e-09 0.0002420213131699711" pbc="T T T"
Sc       2.28388044       1.61494758       3.95579728      -0.00000054       0.00000141      -0.00000136
Sc       6.85164191       4.84484296      11.86739229       0.00000140       0.00000021       0.00000187
Ta       0.00000021       0.00000018       0.00000043      -0.00000117       0.00000077      -0.00000134
I        2.29231347       1.62091058       7.91159485       0.00116104       0.00082135      -0.00000006
I        6.84320906       4.83887960       7.91159478      -0.00116310      -0.00082141      -0.00000034
I        5.70548519       1.62091049       5.94099894      -0.00058168       0.00082287       0.00100684
I        3.43003676       4.83887985       9.88219049       0.00058250      -0.00082365      -0.00100887
I        3.43003710       4.83887981       5.94099912       0.00058228      -0.00082323       0.00100890
I        5.70548503       1.62091009       9.88219009      -0.00058071       0.00082177      -0.00100568
