9
Lattice="4.974136055103013 2.2234393089030524e-06 2.8718243135123314 1.6580478800998801 4.689659476287329 2.8718235650597963 2.0295065928990725e-06 5.184132068181016e-07 5.74364511181634" Properties=species:S:1:pos:R:3:forces:R:3 energy=-55.27668380737305 free_energy=-55.27668380737305 stress="-2.1003661458962597e-06 -2.163896624551853e-06 -1.3603034858533647e-06 -2.163896624551853e-06 -1.5937628177198349e-06 -8.863030416250695e-07 -1.3603034858533647e-06 -8.863030416250695e-07 -8.159281605912838e-06" pbc="T T T"
Sc       1.65804250       1.17245315       2.87180873      -0.00011128       0.00020348      -0.00015109
Sc       4.97414239       3.51727677       8.61544545       0.00008920       0.00025944      -0.00012374
Ta      -0.00000403      -0.00000830       0.00000097      -0.00001295      -0.00001229       0.00000877
F        1.71229034       1.21076288       5.74366861       0.00306189       0.00208646       0.00011720
F        4.91990205       3.47887176       5.74364471      -0.00297260      -0.00226074       0.00002857
F        4.11800927       1.21075199       4.35473639      -0.00143576       0.00200057       0.00278187
F        2.51417949       3.47889142       7.13257089       0.00144851      -0.00219041      -0.00264454
F        2.51418335       3.47890292       4.35473274       0.00144243      -0.00210804       0.00271440
F        4.11799891       1.21074583       7.13256331      -0.00150865       0.00202101      -0.00273156
