9
Lattice="4.776790095893668 -2.2111039783444128e-07 2.757880852491176 1.5922632696088912 4.503599936321883 2.757880657157601 7.509502436339178e-08 -1.8613359044164964e-07 5.515761574913934" Properties=species:S:1:pos:R:3:forces:R:3 energy=-55.567291259765625 free_energy=-55.567291259765625 stress="0.0006975195719860494 -1.226408086196784e-09 7.993413930762472e-08 -1.226408086196784e-09 0.0006978351157158613 8.957685260213566e-09 7.993413930762472e-08 8.957685260213566e-09 0.0006976716686040163" pbc="T T T"
Sc       1.59226251       1.12589990       2.75788029      -0.00000474      -0.00000392      -0.00000596
Sc       4.77679029       3.37770142       8.27363988      -0.00000492       0.00002257      -0.00002274
Ti      -0.00000046      -0.00000019       0.00000002       0.00000109       0.00000279       0.00000153
F        1.61734213       1.14363040       5.51576156       0.00281674       0.00197855       0.00000240
F        4.75171172       3.35996792       5.51576201      -0.00281358      -0.00198779       0.00000790
F        3.96811953       1.14363081       4.15854037      -0.00140557       0.00197712       0.00244486
F        2.40093528       3.35996795       6.87298431       0.00141376      -0.00198913      -0.00243321
F        2.40093380       3.35996798       4.15853975       0.00140297      -0.00198641       0.00243849
F        3.96811892       1.14363190       6.87298425      -0.00140598       0.00198629      -0.00243357
