9
Lattice="6.782475026305749 -5.7986827313330725e-08 3.915863725787127 2.2608249482177465 6.394578734559296 3.915863735972174 -2.8633778883823304e-09 1.0449346960589955e-08 7.831727456533804" Properties=species:S:1:pos:R:3:forces:R:3 energy=-32.80646896362305 free_energy=-32.80646896362305 stress="4.0028422517934814e-05 8.376597193660018e-09 2.390444064914732e-09 8.376597193660018e-09 4.003537105745636e-05 -4.469625558556345e-09 2.390444064914732e-09 -4.469625558556345e-09 4.002128116553649e-05" pbc="T T T"
Sc       2.26082504       1.59864479       3.91586407      -0.00000117       0.00000036       0.00000353
Sc       6.78247493       4.79593412      11.74759102       0.00000118       0.00000034      -0.00000271
Ti      -0.00000004      -0.00000004      -0.00000010      -0.00000005      -0.00000099      -0.00000188
I        2.26712987       1.60310291       7.83172737       0.00137912       0.00097474      -0.00000054
I        6.77617004       4.79147539       7.83172756      -0.00137813      -0.00097424      -0.00000016
I        5.64891020       1.60310269       5.87925598      -0.00069060       0.00097514       0.00119416
I        3.39439006       4.79147591       9.78419919       0.00068880      -0.00097340      -0.00119315
I        3.39438987       4.79147581       5.87925558       0.00068919      -0.00097480       0.00119311
I        5.64890992       1.60310316       9.78419903      -0.00068835       0.00097280      -0.00119236
