9
Lattice="5.826303346697086 -1.2954998493676263e-07 3.363817787674113 1.9421009918916792 5.49309141018164 3.3638177903295974 -1.006737592972072e-07 -6.793482604689395e-08 6.727635749720243" Properties=species:S:1:pos:R:3:forces:R:3 energy=-41.12847900390625 free_energy=-41.12847900390625 stress="9.524320921627805e-05 -2.3872726018225876e-08 9.196020833712737e-09 -2.3872726018225876e-08 9.524695633444935e-05 -2.1678388861801068e-08 9.196020833712737e-09 -2.1678388861801068e-08 9.521716128801927e-05" pbc="T T T"
Sc       1.94209847       1.37327612       3.36381895      -0.00001571       0.00002326       0.00000821
Sc       5.82630239       4.11981535      10.09145288      -0.00000397      -0.00002346      -0.00000722
Ti       0.00000013      -0.00000002       0.00000026       0.00000109      -0.00000082       0.00000027
Cl       1.95482047       1.38226771       6.72763532       0.00151211       0.00107485      -0.00000117
Cl       5.81358412       4.11082256       6.72763576      -0.00150451      -0.00107807       0.00000283
Cl       4.84889370       1.38226733       5.05674252      -0.00075096       0.00107205       0.00130898
Cl       2.91951198       4.11082444       8.39852877       0.00075866      -0.00107193      -0.00130823
Cl       2.91951178       4.11082337       5.05674205       0.00075425      -0.00107291       0.00130484
Cl       4.84889375       1.38226788       8.39852891      -0.00075078       0.00107691      -0.00130844
