9
Lattice="6.917082219120037 -1.1079350767603225e-07 3.993579326217169 2.3056940193796063 6.521487300930095 3.993579238234697 4.490387082929835e-08 -7.60042668105967e-08 7.987158574658602" Properties=species:S:1:pos:R:3:forces:R:3 energy=-25.244251251220703 free_energy=-25.244251251220703 stress="0.00011513059871504083 1.4488585442506974e-08 9.328385175422227e-09 1.4488585442506974e-08 0.00011511258344398811 -1.318230946623089e-08 9.328385175422227e-09 -1.318230946623089e-08 0.00011511945922393352" pbc="T T T"
Sc       2.30569411       1.63037157       3.99357917      -0.00000061      -0.00000064      -0.00000022
Sc       6.91708229       4.89111552      11.98073774       0.00000068       0.00000059      -0.00000159
Te      -0.00000007       0.00000006       0.00000017       0.00000024      -0.00000131       0.00000077
I        2.43251536       1.72004785       7.98715855       0.00059476       0.00042021       0.00000032
I        6.79026093       4.80143921       7.98715857      -0.00059459      -0.00041988       0.00000002
I        5.70082451       1.72004774       6.10019936      -0.00029798       0.00042164       0.00051689
I        3.52195174       4.80143940       9.87411783       0.00029831      -0.00042138      -0.00051609
I        3.52195166       4.80143935       6.10019930       0.00029728      -0.00042050       0.00051545
I        5.70082456       1.72004779       9.87411789      -0.00029817       0.00042132      -0.00051568
