9
Lattice="6.16819664239463 5.5203596311109146e-08 3.561210093774406 2.0560656226127527 5.81543189092188 3.5612100537615405 -2.3344433629404986e-09 -5.065621944911772e-08 7.122420191592154" Properties=species:S:1:pos:R:3:forces:R:3 energy=-37.405155181884766 free_energy=-37.405155181884766 stress="-1.8991147953784093e-05 -1.3267231757652098e-08 -4.922536600560079e-09 -1.3267231757652098e-08 -1.896112553367857e-05 3.09194945202762e-08 -4.922536600560079e-09 3.09194945202762e-08 -1.8982911569764838e-05" pbc="T T T"
Sc       2.05606562       1.45385779       3.56121025      -0.00000162      -0.00000033       0.00000106
Sc       6.16819505       4.36157388      10.68363317      -0.00000528      -0.00000084       0.00001148
Ti       0.00000020      -0.00000027      -0.00000021      -0.00000127       0.00000498      -0.00000571
Br       2.05938084       1.45620190       7.12241970       0.00004360       0.00002956      -0.00000077
Br       6.16488187       4.35922982       7.12241938      -0.00004363      -0.00002916      -0.00000469
Br       5.13850688       1.45620270       5.34468641      -0.00001934       0.00003001       0.00003096
Br       3.08575602       4.35922959       8.90015337       0.00002012      -0.00002763      -0.00003374
Br       3.08575617       4.35922988       5.34468579       0.00002643      -0.00003354       0.00003508
Br       5.13850625       1.45620227       8.90015357      -0.00001901       0.00002703      -0.00003341
