9
Lattice="4.973784238534257 5.184857001544396e-07 2.8716158155570795 1.6579288461111081 4.689327569578405 2.8716153344513873 9.169234193080132e-07 5.913091092603757e-08 5.743230042956517" Properties=species:S:1:pos:R:3:forces:R:3 energy=-55.27668762207031 free_energy=-55.27668762207031 stress="-2.1687117623514496e-05 -4.317446951063175e-07 -1.5806271846940945e-07 -4.317446951063175e-07 -2.201659845013637e-05 -9.308139681252214e-08 -1.5806271846940945e-07 -9.308139681252214e-08 -2.294238038302865e-05" pbc="T T T"
Sc       1.65792413       1.17230078       2.87162167      -0.00002254      -0.00009458       0.00002941
Sc       4.97380255       3.51698649       8.61483277       0.00011006       0.00001296      -0.00004431
Ta      -0.00000135       0.00005909       0.00000875      -0.00000661       0.00016899       0.00002698
F        1.71241768       1.21084272       5.74323388       0.00103736       0.00068164      -0.00000457
F        4.91934590       3.47848054       5.74322729      -0.00090146      -0.00068986       0.00000220
F        4.11757288       1.21084502       4.35461620      -0.00053424       0.00064868       0.00092638
F        2.51410442       3.47848620       7.13188984       0.00041020      -0.00066370      -0.00081384
F        2.51410928       3.47847717       4.35457104       0.00040853      -0.00069916       0.00081313
F        4.11758057       1.21083470       7.13184299      -0.00050104       0.00063485      -0.00093544
