9
Lattice="6.092550540420726 1.1094065065005893e-08 3.5175355877394736 2.030850200455522 5.74411189480009 3.517535570668895 -4.88272164667697e-08 -5.543313036875735e-08 7.0350712600501595" Properties=species:S:1:pos:R:3:forces:R:3 energy=-37.918819427490234 free_energy=-37.918819427490234 stress="0.00026501237880438566 1.183112274816267e-08 4.775818407409815e-09 1.183112274816267e-08 0.00026500929379835725 -5.768039379461243e-09 4.775818407409815e-09 -5.768039379461243e-09 0.00026505073765292764" pbc="T T T"
Sc       2.03084989       1.43602767       3.51753649      -0.00000143      -0.00000217       0.00000460
Sc       6.09255101       4.30808435      10.55260688       0.00000352       0.00000222      -0.00000092
V       -0.00000009      -0.00000002      -0.00000020      -0.00000028       0.00000082      -0.00000093
Br       2.03242512       1.43714144       7.03507086       0.00035205       0.00024842      -0.00000244
Br       6.09097556       4.30697038       7.03507123      -0.00035331      -0.00024887       0.00000107
Br       5.07633819       1.43714143       5.27766720      -0.00017650       0.00024920       0.00030641
Br       3.04706226       4.30697044       8.79247505       0.00017533      -0.00024809      -0.00030692
Br       3.04706271       4.30697017       5.27766701       0.00017558      -0.00024979       0.00030543
Br       5.07633809       1.43714154       8.79247514      -0.00017492       0.00024816      -0.00030636
