9
Lattice="6.674379823216339 8.499375163648096e-08 3.8534549666689792 2.224793365356906 6.292665493254506 3.8534549479306257 4.437926613941896e-08 8.431193562157685e-09 7.706909856470797" Properties=species:S:1:pos:R:3:forces:R:3 energy=-33.35356140136719 free_energy=-33.35356140136719 stress="0.00019858880841638893 1.2650758662857697e-08 2.2404340604964545e-09 1.2650758662857697e-08 0.0001985779672395438 -8.667603856871153e-10 2.2404340604964545e-09 -8.667603856871153e-10 0.00019859126769006252" pbc="T T T"
Sc       2.22479304       1.57316660       3.85345483      -0.00000060       0.00000071      -0.00000076
Sc       6.67437987       4.71949853      11.56036505      -0.00000003      -0.00000235       0.00000003
V        0.00000004      -0.00000019      -0.00000009      -0.00000104      -0.00000003       0.00000036
I        2.21717527       1.56778018       7.70690988       0.00161632       0.00114448       0.00000051
I        6.68199801       4.72488561       7.70690977      -0.00161512      -0.00114287       0.00000052
I        5.56579227       1.56777977       5.77358519      -0.00080846       0.00114291       0.00140025
I        3.33338110       4.72488592       9.64023464       0.00080932      -0.00114436      -0.00140090
I        3.33338114       4.72488612       5.77358520       0.00080837      -0.00114300       0.00140022
I        5.56579223       1.56777982       9.64023458      -0.00080876       0.00114450      -0.00140021
