9
Lattice="4.850123031981242 1.5784801084867761e-06 2.8002199138603645 1.6167087245185274 4.572743707313078 2.800220677718852 -1.2949423318756703e-08 9.263752430725296e-07 5.600439850149868" Properties=species:S:1:pos:R:3:forces:R:3 energy=-54.360416412353516 free_energy=-54.360416412353516 stress="9.505425987299532e-05 -1.3346932803415257e-07 -9.492961083878981e-08 -1.3346932803415257e-07 9.45208448683843e-05 -1.0560640362200502e-07 -9.492961083878981e-08 -1.0560640362200502e-07 9.454768587602302e-05" pbc="T T T"
Sc       1.61669919       1.14323362       2.80021674      -0.00007679       0.00040048      -0.00001170
Sc       4.85012521       3.42959871       8.40066235       0.00001391       0.00028867       0.00002399
V        0.00000007      -0.00000397       0.00000176       0.00000438      -0.00000018      -0.00000742
F        1.59767108       1.12971469       5.60043853      -0.00175589      -0.00138426       0.00000919
F        4.86917191       3.44300343       5.60043995       0.00193459       0.00113869      -0.00000543
F        4.05129255       1.12971646       4.18384619       0.00091809      -0.00138515      -0.00149554
F        2.41553639       3.44300788       7.01704314      -0.00097406       0.00115991       0.00164986
F        2.41554129       3.44300283       4.18383762      -0.00095853       0.00117546      -0.00166124
F        4.05129024       1.12971294       7.01703461       0.00089470      -0.00139362       0.00149888
