9
Lattice="6.772829175306931 -4.036438757922109e-08 3.910294763305694 2.257609679968691 6.385484629746404 3.9102947755646427 -4.37377495725941e-08 -1.5913189749218806e-08 7.820589602367405" Properties=species:S:1:pos:R:3:forces:R:3 energy=-34.31624221801758 free_energy=-34.31624221801758 stress="5.058984697825508e-06 -1.0862496679919786e-08 -5.7751765175639846e-11 -1.0862496679919786e-08 5.05496882396983e-06 4.378157836271157e-09 -5.7751765175639846e-11 4.378157836271157e-09 5.053487257100642e-06" pbc="T T T"
Sc       2.25760997       1.59637112       3.91029461       0.00000176      -0.00000008      -0.00000099
Sc       6.77282905       4.78911358      11.73088456      -0.00000053       0.00000088       0.00000058
W        0.00000007       0.00000006       0.00000010       0.00000066      -0.00000046       0.00000052
I        2.25867037       1.59712104       7.82058964      -0.00094127      -0.00066521       0.00000047
I        6.77176825       4.78836346       7.82058972       0.00094124       0.00066584       0.00000013
I        5.64349377       1.59712117       5.86636092       0.00047089      -0.00066706      -0.00081663
I        3.38694486       4.78836335       9.77481812      -0.00047176       0.00066596       0.00081568
I        3.38694504       4.78836341       5.86636078      -0.00047129       0.00066645      -0.00081617
I        5.64349387       1.59712105       9.77481816       0.00047036      -0.00066631       0.00081643
