9
Lattice="4.762541273895105 -1.7490704381623556e-07 2.749654342060473 1.5875136416210724 4.490166882478432 2.7496542579521455 -1.0928988584801158e-08 -1.1073921745936552e-07 5.499308703050538" Properties=species:S:1:pos:R:3:forces:R:3 energy=-51.88168716430664 free_energy=-51.88168716430664 stress="0.00012839716509915888 8.0454711337552e-08 -1.8544672286679997e-07 8.0454711337552e-08 0.00012855228851549327 -7.167609794578311e-08 -1.8544672286679997e-07 -7.167609794578311e-08 0.0001286002661800012" pbc="T T T"
Sc       1.58751320       1.12254527       2.74965414       0.00000029       0.00003647      -0.00000194
Sc       4.76253867       3.36762974       8.24896702      -0.00002308       0.00004046       0.00003720
W        0.00000069      -0.00000050      -0.00000020       0.00000606       0.00000011      -0.00000345
F        1.65889726       1.17301563       5.49930851      -0.00267911      -0.00191605       0.00000113
F        4.69116031       3.31714835       5.49930580       0.00269043       0.00188416      -0.00001885
F        3.93309315       1.17301626       4.18629947       0.00134271      -0.00190371      -0.00233001
F        2.41696315       3.31714794       6.81231769      -0.00133955       0.00188696       0.00233287
F        2.41696216       3.31714898       4.18629986      -0.00133252       0.00188911      -0.00233406
F        3.93309116       1.17301456       6.81231683       0.00133461      -0.00191730       0.00231737
