9
Lattice="6.121276098546805 -2.1378965448808537e-07 3.5341202148865003 2.0404252109829155 5.771193953311198 3.534120134582577 1.0550614515565897e-08 -9.089139614161922e-08 7.068240411498775" Properties=species:S:1:pos:R:3:forces:R:3 energy=-41.79082489013672 free_energy=-41.79082489013672 stress="0.0002442268014419824 -1.8417500413647758e-08 1.6751073417253792e-08 -1.8417500413647758e-08 0.00024423981085419655 -6.956558440407434e-09 1.6751073417253792e-08 -6.956558440407434e-09 0.0002442906843498349" pbc="T T T"
Sc       2.04042696       1.44279933       3.53412082       0.00000834       0.00000352       0.00000313
Sc       6.12127439       4.32839518      10.60235869      -0.00000696       0.00000221      -0.00000893
Y        0.00000005       0.00000025       0.00000031       0.00000151      -0.00000498      -0.00000654
Cl       2.10903001       1.49130844       7.06824014       0.00164267       0.00115854      -0.00000114
Cl       6.05267140       4.27988506       7.06824043      -0.00164211      -0.00115994       0.00000384
Cl       5.06676093       1.49130871       5.36059377      -0.00082389       0.00116074       0.00142202
Cl       3.09494085       4.27988415       8.77588788       0.00082108      -0.00115892      -0.00141433
Cl       3.09494000       4.27988407       5.36059340       0.00081851      -0.00116158       0.00141686
Cl       5.06676069       1.49130939       8.77588758      -0.00081901       0.00116029      -0.00141495
