9
Lattice="6.900041784572074 1.164658639345715e-07 3.9837408631893 2.3000139809477393 6.505421937772666 3.9837409619993704 -8.922779081824329e-08 5.792356197604619e-08 7.967481880925656" Properties=species:S:1:pos:R:3:forces:R:3 energy=-33.43465042114258 free_energy=-33.43465042114258 stress="2.846079041773919e-05 -1.0500865066376264e-08 5.751500387063402e-10 -1.0500865066376264e-08 2.8482460038503632e-05 -9.753685858981953e-09 5.751500387063402e-10 -9.753685858981953e-09 2.8470571123762056e-05" pbc="T T T"
Sc       2.30001439       1.62635552       3.98374085       0.00000171       0.00000031      -0.00000143
Sc       6.90004147       4.87906661      11.95122333      -0.00000115       0.00000053       0.00000234
Y        0.00000012       0.00000016       0.00000028      -0.00000028      -0.00000038      -0.00000521
I        2.38817575       1.68869578       7.96748161       0.00172381       0.00121896       0.00000009
I        6.81187997       4.81672635       7.96748177      -0.00172429      -0.00121926      -0.00000035
I        5.70595356       1.68869549       6.05196171      -0.00086319       0.00122051       0.00149365
I        3.49410205       4.81672647       9.88300177       0.00086109      -0.00121796      -0.00149122
I        3.49410211       4.81672684       6.05196193       0.00086421      -0.00122030       0.00149377
I        5.70595331       1.68869521       9.88300159      -0.00086190       0.00121757      -0.00149159
