9
Lattice="4.892245576458704 -1.0146557704766481e-07 2.824539262530591 1.6307483429646752 4.61245458778428 2.824539412974641 -3.421551126021059e-07 -5.768464701777032e-08 5.64907911769125" Properties=species:S:1:pos:R:3:forces:R:3 energy=-55.663963317871094 free_energy=-55.663963317871094 stress="0.0004333831602707505 -2.124438225337144e-08 1.8515291344556317e-07 -2.124438225337144e-08 0.00043335912050679326 1.2215745925914234e-07 1.8515291344556317e-07 1.2215745925914234e-07 0.0004335926496423781" pbc="T T T"
Sc       1.63075094       1.15311604       2.82454511       0.00002373       0.00001684       0.00004223
Sc       4.89224765       3.45933944       8.47361987       0.00001480      -0.00000813       0.00000605
Zr      -0.00000022       0.00000001      -0.00000109       0.00000287       0.00000142       0.00000265
F        1.72758764       1.22159015       5.64907682      -0.00605142      -0.00426751      -0.00001932
F        4.79540576       3.39086358       5.64907780       0.00604540       0.00426838      -0.00000552
F        4.02844873       1.22158868       4.32067370       0.00300416      -0.00427660      -0.00524729
F        2.49454351       3.39086496       6.97748249      -0.00302431       0.00427657       0.00522953
F        2.49454110       3.39086375       4.32067422      -0.00303495       0.00426346      -0.00524426
F        4.02844967       1.22159013       6.97748268       0.00301978      -0.00427455       0.00523561
