9
Lattice="6.322935678639196 -1.9119461643934664e-07 3.650548460946379 2.107645181955583 5.9613203551549425 3.6505482253830746 1.0229662447302403e-07 -2.1617031585692106e-07 7.301096744709811" Properties=species:S:1:pos:R:3:forces:R:3 energy=-38.55573272705078 free_energy=-38.55573272705078 stress="0.00012931108358316123 3.743269161304852e-08 -5.994544416410008e-09 3.743269161304852e-08 0.00012933644757140428 8.89266171810732e-09 -5.994544416410008e-09 8.89266171810732e-09 0.00012928055366501212" pbc="T T T"
Sc       2.10764501       1.49033119       3.65054843      -0.00000073       0.00000469       0.00000092
Sc       6.32293567       4.47098942      10.95164464       0.00000016      -0.00000396      -0.00000056
Zr      -0.00000004       0.00000038      -0.00000014       0.00000053      -0.00000593       0.00000157
Br       2.13122524       1.50700367       7.30109638       0.00147092       0.00104082      -0.00000056
Br       6.29935562       4.45431587       7.30109703      -0.00146592      -0.00104007       0.00000022
Br       5.25732322       1.50700359       5.49624366      -0.00073695       0.00104275       0.00127661
Br       3.17325789       4.45431604       9.10594975       0.00073397      -0.00104058      -0.00127208
Br       3.17325815       4.45431609       5.49624360       0.00073501      -0.00104114       0.00127140
Br       5.25732298       1.50700347       9.10595035      -0.00073713       0.00104335      -0.00127688
