9
Lattice="6.896135240289406 -8.510008520119558e-08 3.981485633865895 2.2987116715949174 6.501738788238647 3.981485625093199 -3.304468488660856e-08 -3.411043632508777e-08 7.962971324966862" Properties=species:S:1:pos:R:3:forces:R:3 energy=-34.048614501953125 free_energy=-34.048614501953125 stress="-2.196372861362761e-06 1.2022171036463192e-09 1.5695905686285982e-09 1.2022171036463192e-09 -2.1970815851091174e-06 -8.76607231248272e-09 1.5695905686285982e-09 -8.76607231248272e-09 -2.1968871806166135e-06" pbc="T T T"
Sc       2.29871151       1.62543460       3.98148578       0.00000006       0.00000013       0.00000100
Sc       6.89613515       4.87630388      11.94445664       0.00000021      -0.00000055       0.00000044
Zr      -0.00000006       0.00000004       0.00000024      -0.00000094      -0.00000121      -0.00000238
I        2.33520714       1.65124101       7.96297119       0.00002864       0.00002135       0.00000011
I        6.85963978       4.85049757       7.96297134      -0.00002760      -0.00002043      -0.00000032
I        5.72853157       1.65124087       6.00383460      -0.00001456       0.00002095       0.00002436
I        3.46631540       4.85049797       9.92210806       0.00001328      -0.00001928      -0.00002375
I        3.46631540       4.85049788       6.00383449       0.00001411      -0.00002028       0.00002368
I        5.72853159       1.65124089       9.92210798      -0.00001319       0.00001933      -0.00002320
