9
Lattice="6.1145134666947 -4.4195335609238913e-08 3.530215950715133 2.038171136091383 5.7648190635365575 3.53021591227359 5.353309191963384e-08 -9.227443569698804e-09 7.060431808708207" Properties=species:S:1:pos:R:3:forces:R:3 energy=-42.057777404785156 free_energy=-42.057777404785156 stress="0.0001879391202237457 -1.599844523525462e-08 -2.7658093593174726e-09 -1.599844523525462e-08 0.00018797321536112577 -4.004255771405951e-08 -2.7658093593174726e-09 -4.004255771405951e-08 0.00018797875964082778" pbc="T T T"
Sc       2.03816866       1.44120215       3.53021611      -0.00001019      -0.00000896       0.00000300
Sc       6.11451311       4.32361620      10.59064424      -0.00000052       0.00000588      -0.00001604
Zr       0.00000045      -0.00000021       0.00000066       0.00000523       0.00000145      -0.00000380
Cl       2.05276082       1.45152066       7.06043219      -0.00014377      -0.00010583      -0.00000080
Cl       6.09992485       4.31329906       7.06043306       0.00013912       0.00010052       0.00000570
Cl       5.08813383       1.45152031       5.30795846       0.00007391      -0.00010514      -0.00012004
Cl       3.06455194       4.31329835       8.81290561      -0.00006962       0.00010940       0.00012720
Cl       3.06455103       4.31329797       5.30795851      -0.00007296       0.00010517      -0.00012207
Cl       5.08813411       1.45152157       8.81290578       0.00007868      -0.00010258       0.00012696
