9
Lattice="4.7231234969595555 1.9534074316759142e-07 2.726896183700788 1.574374574517111 4.453003958175529 2.72689637186795 -3.900212467396698e-07 -4.532990977623915e-08 5.4537930429381465" Properties=species:S:1:pos:R:3:forces:R:3 energy=-39.12902069091797 free_energy=-39.12902069091797 stress="-5.990624049445614e-05 9.74185496716018e-08 1.620767022814107e-07 9.74185496716018e-08 -5.9540172514971346e-05 1.2155686590631376e-07 1.620767022814107e-07 1.2155686590631376e-07 -5.987325857859105e-05" pbc="T T T"
Se       1.57437431       1.11325175       2.72689961      -0.00000027       0.00000319       0.00004015
Se       4.72312497       3.33974961       8.18069651       0.00001690      -0.00003339       0.00007871
As       0.00000014      -0.00000009      -0.00000054      -0.00000478       0.00000424       0.00000175
O        1.48753027       1.05184586       5.45379088      -0.00438023      -0.00307804      -0.00002492
O        4.80996661       3.40115956       5.45378984       0.00437391       0.00308955      -0.00002601
O        3.97935812       1.05184507       4.01513471       0.00218183      -0.00307566      -0.00379860
O        2.31813865       3.40116057       6.89244697      -0.00219405       0.00309438       0.00375819
O        2.31814170       3.40116040       4.01513500      -0.00217527       0.00308615      -0.00379723
O        3.97935620       1.05184405       6.89244838       0.00218141      -0.00309002       0.00376761
