9
Lattice="4.5882217705304775 1.7224290265526567e-07 2.649011130985127 1.5294073517809412 4.325817083912292 2.649011247820104 -9.023358590269055e-09 1.3671256466497327e-07 5.298022277599169" Properties=species:S:1:pos:R:3:forces:R:3 energy=-32.51921844482422 free_energy=-32.51921844482422 stress="-7.499859748349991e-06 -8.718467370272265e-08 1.6276915371093992e-09 -8.718467370272265e-08 -7.826358341844752e-06 -5.6188937946899387e-08 1.6276915371093992e-09 -5.6188937946899387e-08 -7.789154551574029e-06" pbc="T T T"
Se       1.52940730       1.08145447       2.64901107       0.00000075      -0.00000028      -0.00000005
Se       4.58822173       3.24436312       7.94703363      -0.00000166       0.00000154       0.00000082
As      -0.00000007       0.00000001       0.00000013      -0.00000019       0.00000387      -0.00000558
F        1.51848368       1.07373041       5.29802231      -0.00017637      -0.00012580       0.00000049
F        4.59914551       3.25208694       5.29802241       0.00017431       0.00012434      -0.00000044
F        3.82897993       1.07373037       3.96405663       0.00008738      -0.00012261      -0.00015101
F        2.28864926       3.25208686       6.63198789      -0.00008699       0.00012389       0.00015047
F        2.28864918       3.25208690       3.96405679      -0.00008637       0.00012231      -0.00014901
F        3.82897997       1.07373056       6.63198777       0.00008912      -0.00012726       0.00015447
