9
Lattice="4.588226638561603 8.362050526385356e-09 2.649013999536928 1.5294088915976667 4.325821673820001 2.6490139922738813 1.5220837941200735e-08 1.8673915335730647e-09 5.2980279727105914" Properties=species:S:1:pos:R:3:forces:R:3 energy=-32.51922607421875 free_energy=-32.51922607421875 stress="-1.2489173968788236e-05 -2.0695456015573654e-08 1.5603895064941753e-08 -2.0695456015573654e-08 -1.238960976479575e-05 7.4257062721017064e-09 1.5603895064941753e-08 7.4257062721017064e-09 -1.25047499750508e-05" pbc="T T T"
Se       1.52940848       1.08145594       2.64901415       0.00000025       0.00000192      -0.00000015
Se       4.58822666       3.24436691       7.94704210      -0.00000083       0.00000147       0.00000083
As       0.00000006      -0.00000016      -0.00000010      -0.00000002      -0.00000710      -0.00000222
F        1.51847572       1.07372441       5.29802802      -0.00003436      -0.00002661      -0.00000039
F        4.59915979       3.25209701       5.29802800       0.00003743       0.00002560      -0.00000077
F        3.82898879       1.07372430       3.96405223       0.00001650      -0.00002304      -0.00002697
F        2.28864687       3.25209699       6.63200336      -0.00001760       0.00002518       0.00003096
F        2.28864690       3.25209701       3.96405263      -0.00001813       0.00002643      -0.00003114
F        3.82898892       1.07372424       6.63200346       0.00001669      -0.00002399       0.00002930
