9
Lattice="6.609577676788799 -2.4292617737639246e-08 3.816041500629498 2.2031924991076437 6.231569593950326 3.816041564574534 -1.4162544508614847e-08 6.830192564655882e-08 7.632083025789268" Properties=species:S:1:pos:R:3:forces:R:3 energy=-17.573137283325195 free_energy=-17.573137283325195 stress="5.459989552036859e-05 -1.768079727071381e-08 -6.173350275417988e-09 -1.768079727071381e-08 5.461307955556549e-05 5.683908899101198e-09 -6.173350275417988e-09 5.683908899101198e-09 5.4625972552457824e-05" pbc="T T T"
Se       2.20319270       1.55789258       3.81604149       0.00000017       0.00000077      -0.00000033
Se       6.60957771       4.67367727      11.44812459       0.00000022       0.00000009       0.00000080
As      -0.00000021      -0.00000012       0.00000013      -0.00000001       0.00000031       0.00000206
I        2.30115540       1.62716263       7.63208306      -0.00006273      -0.00004426      -0.00000014
I        6.51161492       4.60440704       7.63208316       0.00006236       0.00004432      -0.00000052
I        5.45899987       1.62716262       5.80890067       0.00003185      -0.00004466      -0.00005519
I        3.35377030       4.60440686       9.45526530      -0.00003183       0.00004433       0.00005424
I        3.35377016       4.60440697       5.80890075      -0.00003171       0.00004438      -0.00005524
I        5.45899981       1.62716270       9.45526526       0.00003168      -0.00004524       0.00005442
