9
Lattice="5.51451645130205 -1.1550596225975558e-07 3.1838075746771652 1.8381721025069218 5.199135978354884 3.1838074690688734 1.068505023827909e-09 -1.2858768276313256e-07 6.367615147503646" Properties=species:S:1:pos:R:3:forces:R:3 energy=-28.26708221435547 free_energy=-28.26708221435547 stress="-0.00011206016642972827 -5.057195551216864e-08 -9.862268512961236e-08 -5.057195551216864e-08 -0.00011212434037588537 1.0764037439159324e-09 -9.862268512961236e-08 1.0764037439159324e-09 -0.00011230343807255849" pbc="T T T"
Se       1.83817554       1.29978562       3.18380566       0.00002630       0.00001197      -0.00001228
Se       5.51451640       3.89935211       9.55142025       0.00000448       0.00000179      -0.00001730
As       0.00000009      -0.00000006       0.00000005      -0.00000318       0.00000203       0.00000409
S        1.92574825       1.36170940       6.36761565      -0.00132203      -0.00093955       0.00000488
S        5.42694032       3.83742606       6.36761565       0.00132185       0.00093636       0.00000561
S        4.55164154       1.36170898       4.85155472       0.00065473      -0.00094095      -0.00114635
S        2.80104584       3.83742533       7.88367673      -0.00066027       0.00092643       0.00115189
S        2.80104495       3.83742591       4.85155489      -0.00066960       0.00093251      -0.00114447
S        4.55164121       1.36170959       7.88367717       0.00064814      -0.00093073       0.00115418
