9
Lattice="5.7402912124907095 8.84967081900438e-08 3.3141585536867 1.9134304695848434 5.411998245430557 3.3141585848882134 3.393990160958569e-08 6.221306534626191e-08 6.628317048587751" Properties=species:S:1:pos:R:3:forces:R:3 energy=-21.509443283081055 free_energy=-21.509443283081055 stress="0.0003499709418974817 -6.143220332432975e-08 -4.8824735365826655e-09 -6.143220332432975e-08 0.0003497992001939565 4.146201249000114e-08 -4.8824735365826655e-09 4.146201249000114e-08 0.0003499492595437914" pbc="T T T"
Se       1.91343045       1.35299969       3.31415852       0.00000166       0.00000012       0.00000066
Se       5.74029146       4.05899836       9.94247536      -0.00000214       0.00000051      -0.00000322
As      -0.00000063      -0.00000007       0.00000052       0.00000496       0.00000206      -0.00000319
Cl       1.92565862       1.36164615       6.62831759       0.00119236       0.00084314      -0.00000183
Cl       5.72806352       4.05035238       6.62831687      -0.00119886      -0.00084597       0.00000042
Cl       4.77746194       1.36164631       4.98182766      -0.00059517       0.00084230       0.00103262
Cl       2.87625998       4.05035231       8.27480596       0.00059524      -0.00084001      -0.00102893
Cl       2.87625939       4.05035167       4.98182778       0.00059554      -0.00084308       0.00103125
Cl       4.77746211       1.36164680       8.27480648      -0.00059378       0.00084099      -0.00102735
