9
Lattice="5.739860354799095 -1.135578458773522e-07 3.3139101239659117 1.9132867477171744 5.411592166904399 3.3139100029865602 1.310962306875656e-07 -5.546984301711969e-08 6.627820020866512" Properties=species:S:1:pos:R:3:forces:R:3 energy=-21.509445190429688 free_energy=-21.509445190429688 stress="0.00030545800109393895 1.0757734258959317e-08 5.077758302718394e-08 1.0757734258959317e-08 0.0003054352127946913 4.615230864146724e-09 5.077758302718394e-08 4.615230864146724e-09 0.00030541003798134625" pbc="T T T"
Se       1.91328683       1.35289931       3.31391014       0.00000059       0.00000591      -0.00000091
Se       5.73986058       4.05869371       9.94172934       0.00000227       0.00000153      -0.00000252
As       0.00000027       0.00000028      -0.00000019      -0.00000280      -0.00000192      -0.00000029
Cl       1.92558002       1.36159076       6.62781967       0.00119007       0.00084269      -0.00000002
Cl       5.72756695       4.05000098       6.62781975      -0.00118887      -0.00084373       0.00000172
Cl       4.77707053       1.36159038       4.98151142      -0.00059624       0.00084138       0.00103185
Cl       2.87607667       4.05000104       8.27412955       0.00059557      -0.00084329      -0.00103125
Cl       2.87607658       4.05000098       4.98151170       0.00059527      -0.00084350       0.00103223
Cl       4.77707053       1.36159060       8.27412921      -0.00059584       0.00084081      -0.00103113
