9
Lattice="5.780616908462811 5.182647745893896e-08 3.3374409107843404 1.9268722730275427 5.450017516828338 3.337441047020251 8.978777162301629e-08 2.303437605096121e-07 6.674881666051754" Properties=species:S:1:pos:R:3:forces:R:3 energy=-22.101802825927734 free_energy=-22.101802825927734 stress="-0.00022036662267055362 1.8341809848720914e-08 3.0191678046520565e-09 1.8341809848720914e-08 -0.00022027408704161644 6.428293897187132e-09 3.0191678046520565e-09 6.428293897187132e-09 -0.00022037771122995764" pbc="T T T"
Se       1.92687293       1.36250459       3.33744142       0.00000095       0.00000116       0.00000111
Se       5.78061625       4.08751240      10.01232200      -0.00000114      -0.00000277      -0.00000023
B       -0.00000735      -0.00000344      -0.00000185      -0.00007323      -0.00003802      -0.00002267
Cl       1.68145993       1.18897235       6.67488236       0.00173819       0.00122610      -0.00000197
Cl       6.02603487       4.26105010       6.67488205      -0.00169030      -0.00119540       0.00000139
Cl       4.93988796       1.18897058       4.79362618      -0.00085253       0.00121522       0.00148606
Cl       2.76760146       4.26104776       8.55613801       0.00086156      -0.00120413      -0.00148153
Cl       2.76760180       4.26104684       4.79362643       0.00086445      -0.00121167       0.00149277
Cl       4.93988908       1.18897026       8.55613806      -0.00084770       0.00120974      -0.00147584
