9
Lattice="6.346997103215703 -1.1817533483817456e-07 3.6644403729098785 2.115665584159414 5.984006267664955 3.664440382428873 -7.98810478698123e-08 -4.482618109661021e-08 7.328880884177649" Properties=species:S:1:pos:R:3:forces:R:3 energy=-17.292842864990234 free_energy=-17.292842864990234 stress="0.00022591438028030097 1.3140856403026646e-08 1.6048943507485092e-08 1.3140856403026646e-08 0.00022592974710278213 4.3937267157900806e-09 1.6048943507485092e-08 4.3937267157900806e-09 0.00022591296874452382" pbc="T T T"
Se       2.11566577       1.49600130       3.66444038      -0.00000045       0.00000046       0.00000035
Se       6.34699680       4.48800495      10.99332166       0.00000055       0.00000028      -0.00000045
B        0.00000043       0.00000002      -0.00000091       0.00000359      -0.00000154      -0.00000380
I        2.07591607       1.46789427       7.32888095      -0.00762880      -0.00539395       0.00000009
I        6.38674649       4.51611151       7.32888077       0.00762674       0.00539327       0.00000016
I        5.30903884       1.46789450       5.46223666       0.00381303      -0.00539234      -0.00660467
I        3.15362353       4.51611201       9.19552528      -0.00381446       0.00539470       0.00660646
I        3.15362369       4.51611173       5.46223659      -0.00381403       0.00539324      -0.00660509
I        5.30903885       1.46789402       9.19552515       0.00381376      -0.00539419       0.00660703
