9
Lattice="6.193526872988642 -7.583259269337973e-08 3.575834450712 2.0645088660905517 5.839313236077748 3.575834485485823 -3.686528503350297e-08 1.6521345800350632e-08 7.151668965276535" Properties=species:S:1:pos:R:3:forces:R:3 energy=-19.193767547607422 free_energy=-19.193767547607422 stress="-5.169570431462489e-05 -7.85154874449745e-09 1.6040203831835242e-08 -7.85154874449745e-09 -5.172048258827999e-05 2.6488449211825582e-09 1.6040203831835242e-08 2.6488449211825582e-09 -5.1747148972935975e-05" pbc="T T T"
Se       2.06450947       1.45982874       3.57583397       0.00000101       0.00000064      -0.00000107
Se       6.19352631       4.37948454      10.72750350      -0.00000074       0.00000005       0.00000127
B        0.00000009       0.00000013       0.00000060       0.00000094      -0.00000012      -0.00000078
Br       1.89296840       1.33853073       7.15166889       0.00020096       0.00014266       0.00000014
Br       6.36506717       4.50078232       7.15166885      -0.00020146      -0.00014332      -0.00000119
Br       5.24704239       1.33853096       5.21519327      -0.00010028       0.00014280       0.00017427
Br       3.01099332       4.50078217       9.08814463       0.00009961      -0.00014310      -0.00017315
Br       3.01099330       4.50078211       5.21519330       0.00010070      -0.00014243       0.00017381
Br       5.24704233       1.33853103       9.08814453      -0.00010081       0.00014302      -0.00017376
