9
Lattice="6.388546900314016 -9.283588666953569e-08 3.68842926809285 2.1295155484921575 6.02317957170898 3.6884292636230014 -3.854076171569762e-08 -3.2726857636466946e-08 7.376858602940253" Properties=species:S:1:pos:R:3:forces:R:3 energy=-18.134641647338867 free_energy=-18.134641647338867 stress="6.905482587171718e-05 1.573594587966909e-08 7.519689759760695e-09 1.573594587966909e-08 6.909562944201753e-05 1.2345015676373805e-08 7.519689759760695e-09 1.2345015676373805e-08 6.905353802721947e-05" pbc="T T T"
Se       2.12951567       1.50579477       3.68842908      -0.00000006       0.00000026      -0.00000091
Se       6.38854749       4.51738421      11.06528763       0.00000139      -0.00000147      -0.00000068
Bi      -0.00000028       0.00000004      -0.00000015      -0.00000076      -0.00000035       0.00000289
Br       2.25312037       1.59319673       7.37685860       0.00093772       0.00066490       0.00000047
Br       6.26494205       4.42998308       7.37685860      -0.00094000      -0.00066476       0.00000016
Br       5.26198657       1.59319668       5.63968874      -0.00046805       0.00066386       0.00081261
Br       3.25607537       4.42998320       9.11402863       0.00046995      -0.00066448      -0.00081362
Br       3.25607554       4.42998273       5.63968875       0.00046875      -0.00066312       0.00081193
Br       5.26198685       1.59319634       9.11402860      -0.00046903       0.00066510      -0.00081278
