9
Lattice="5.930067292957143 3.136999481290098e-08 3.423726028422519 1.9766891375750215 5.59092118035632 3.423726010501435 1.6878463178079976e-07 9.740000431547397e-08 6.847451764501505" Properties=species:S:1:pos:R:3:forces:R:3 energy=-21.224733352661133 free_energy=-21.224733352661133 stress="0.0001803418854251504 5.9984675004898236e-09 4.451502721991574e-09 5.9984675004898236e-09 0.00018028989143203944 -4.4859017833687176e-08 4.451502721991574e-09 -4.4859017833687176e-08 0.00018024942255578935" pbc="T T T"
Se       1.97668892       1.39773000       3.42372621       0.00000105       0.00000015      -0.00000072
Se       5.93006669       4.19319134      10.27117836       0.00000116      -0.00000188      -0.00000086
Bi       0.00000032      -0.00000031      -0.00000019      -0.00000350       0.00000177       0.00000083
Cl       2.11478545       1.49537926       6.84745167       0.00143573       0.00101583      -0.00000068
Cl       5.79197114       4.09554208       6.84745207      -0.00143364      -0.00101455      -0.00000103
Cl       4.87267519       1.49537893       5.25518348      -0.00071957       0.00101870       0.00124698
Cl       3.03408168       4.09554261       8.43972094       0.00072172      -0.00101735      -0.00124696
Cl       3.03408201       4.09554250       5.25518310       0.00071874      -0.00101601       0.00124605
Cl       4.87267503       1.49537886       8.43971954      -0.00072158       0.00101335      -0.00124357
