9
Lattice="6.831952421418983 -4.449120972208676e-09 3.9444296232314966 2.2773175268933548 6.441226492648228 3.9444295240166727 8.199633130516715e-08 -6.353268712984924e-08 7.888859104441192" Properties=species:S:1:pos:R:3:forces:R:3 energy=-16.575599670410156 free_energy=-16.575599670410156 stress="0.00019937127945013344 -2.4981822832614853e-08 -1.877854316489902e-08 -2.4981822832614853e-08 0.00019937999604735523 2.2879330430214395e-08 -1.877854316489902e-08 2.2879330430214395e-08 0.00019937625620514154" pbc="T T T"
Se       2.27731730       1.61030662       3.94442945       0.00000129      -0.00000023      -0.00000231
Se       6.83195262       4.83091958      11.83328858      -0.00000208      -0.00000009       0.00000040
Bi      -0.00000014      -0.00000019       0.00000068       0.00000059       0.00000127      -0.00000433
I        2.48993816       1.76065218       7.88885921      -0.00400731      -0.00283456       0.00000034
I        6.61933191       4.68057421       7.88885922       0.00400665       0.00283372       0.00000107
I        5.58698368       1.76065203       6.10077903       0.00200304      -0.00283349      -0.00346881
I        3.52228681       4.68057428       9.67693905      -0.00200297       0.00283405       0.00347114
I        3.52228647       4.68057474       6.10077873      -0.00200258       0.00283280      -0.00346890
I        5.58698341       1.76065230       9.67693904       0.00200330      -0.00283350       0.00347152
