9
Lattice="5.380911813453698 -2.2089091073533062e-07 3.106670665177304 1.7936370829472164 5.0731705885885345 3.1066706304429985 2.1944536101272445e-07 1.1263048615317278e-07 6.213340950264236" Properties=species:S:1:pos:R:3:forces:R:3 energy=-31.235794067382812 free_energy=-31.235794067382812 stress="0.00038911719457246363 2.251106856476781e-08 -4.9491468701035046e-08 2.251106856476781e-08 0.0003891704836860299 3.724949593220117e-08 -4.9491468701035046e-08 3.724949593220117e-08 0.00038902441156096756" pbc="T T T"
Se       1.79363719       1.26828950       3.10667190       0.00000070      -0.00000339       0.00000035
Se       5.38091164       3.80487858       9.32001278      -0.00000157       0.00000298       0.00000058
Bi      -0.00000022      -0.00000021       0.00000044       0.00000141      -0.00000353       0.00001263
F        1.71174687       1.21038807       6.21333983      -0.00299776      -0.00211954       0.00000157
F        5.46280142       3.86278320       6.21333998       0.00299895       0.00212106      -0.00000033
F        4.52503749       1.21038844       4.58908672       0.00150105      -0.00212283      -0.00259757
F        2.64951114       3.86278396       7.83759517      -0.00149652       0.00211710       0.00259176
F        2.64951138       3.86278257       4.58908698      -0.00149943       0.00212087      -0.00259569
F        4.52503947       1.21038784       7.83759530       0.00149322      -0.00211275       0.00258669
