9
Lattice="6.3193572118301775 -1.6827805036110035e-07 3.6484826081214607 2.106452259419473 5.957946984895031 3.6484825836472408 1.3913424165980033e-08 -2.0136414198424518e-08 7.296965192144125" Properties=species:S:1:pos:R:3:forces:R:3 energy=-17.696857452392578 free_energy=-17.696857452392578 stress="-0.00015801252448000014 -6.647306705076517e-09 -1.7298095400519742e-08 -6.647306705076517e-09 -0.00015793700003996491 4.493077909728527e-09 -1.7298095400519742e-08 4.493077909728527e-09 -0.00015795491344761103" pbc="T T T"
Se       2.10645253       1.48948647       3.64848279       0.00000054       0.00000012       0.00000070
Se       6.31935713       4.46846026      10.94544820       0.00000037      -0.00000037       0.00000058
C        0.00000097      -0.00000009       0.00000036       0.00000340      -0.00000100       0.00000209
I        2.16539141       1.53116300       7.29696511       0.00416380       0.00294483      -0.00000081
I        6.26041760       4.42678339       7.29696521      -0.00416613      -0.00294593      -0.00000006
I        5.23666136       1.53116324       5.52376677      -0.00208271       0.00294614       0.00360650
I        3.18914810       4.42678373       9.07016335       0.00208184      -0.00294530      -0.00360662
I        3.18914786       4.42678383       5.52376672       0.00208145      -0.00294489       0.00360602
I        5.23666090       1.53116335       9.07016308      -0.00208250       0.00294626      -0.00360870
