9
Lattice="4.4538661804957655 7.502206647336853e-09 2.571440831701335 1.4846220438746138 4.199145309903784 2.5714408721686066 -2.1254788646401745e-08 3.453267113848733e-08 5.142881700217047" Properties=species:S:1:pos:R:3:forces:R:3 energy=-33.51374816894531 free_energy=-33.51374816894531 stress="0.0006717938231304288 -4.800707387175862e-08 2.568549994919067e-08 -4.800707387175862e-08 0.0006718111108057201 -3.4191508291314676e-08 2.568549994919067e-08 -3.4191508291314676e-08 0.0006718530785292387" pbc="T T T"
Se       1.48462212       1.04978684       2.57144045      -0.00000001       0.00000184      -0.00000018
Se       4.45386602       3.14935901       7.71432317      -0.00000059      -0.00000007       0.00000254
Co      -0.00000007       0.00000005       0.00000018       0.00000494       0.00000233      -0.00001736
F        1.47238728       1.04113495       5.14288178       0.00093042       0.00065812      -0.00000121
F        4.46610114       3.15801024       5.14288151      -0.00093544      -0.00066104       0.00000113
F        3.71767250       1.04113490       3.84656562      -0.00046792       0.00065968       0.00080791
F        2.22081566       3.15801018       6.43919767       0.00046408      -0.00065449      -0.00080145
F        2.22081580       3.15801018       3.84656551       0.00046686      -0.00066127       0.00080804
F        3.71767238       1.04113510       6.43919776      -0.00046238       0.00065491      -0.00079995
