9
Lattice="5.771724471714652 -1.769166164529036e-07 3.3323065960684746 1.923908030105349 5.441634055239737 3.3323065273654 2.4830578150040684e-08 -6.658585684328146e-08 6.664613149129033" Properties=species:S:1:pos:R:3:forces:R:3 energy=-28.451168060302734 free_energy=-28.451168060302734 stress="7.302359153982252e-05 -9.3594474392944e-09 5.496681509953305e-08 -9.3594474392944e-09 7.289074710570276e-05 3.238365664515186e-08 5.496681509953305e-08 3.238365664515186e-08 7.29755629436113e-05" pbc="T T T"
Se       1.92390818       1.36040782       3.33230609       0.00000012      -0.00000109      -0.00000126
Se       5.77172445       4.08122488       9.99691886       0.00000125       0.00000209      -0.00000612
Cr      -0.00000014       0.00000039       0.00000042      -0.00000146      -0.00000360      -0.00000043
Cl       1.84991548       1.30808765       6.66461369       0.00145000       0.00102538       0.00000056
Cl       5.84571646       4.13354640       6.66461336      -0.00144677      -0.00102153       0.00000163
Cl       4.84676713       1.30808807       4.93438098      -0.00072695       0.00102451       0.00125569
Cl       2.84886562       4.13354612       8.39484535       0.00072519      -0.00102518      -0.00125025
Cl       2.84886583       4.13354590       4.93438087       0.00072395      -0.00102517       0.00125378
Cl       4.84676715       1.30808805       8.39484555      -0.00072552       0.00102438      -0.00125341
