9
Lattice="4.494589596100805 -1.9455228622245727e-08 2.594952536624399 1.4981965184147792 4.237539741682682 2.5949525284426422 -2.9253301145453183e-08 -3.0705771380648884e-08 5.1899051239169935" Properties=species:S:1:pos:R:3:forces:R:3 energy=-38.458675384521484 free_energy=-38.458675384521484 stress="0.00017060356913134456 9.137330003738953e-09 -3.3884302030884328e-09 9.137330003738953e-09 0.00017060506797861308 3.4513785607259706e-08 -3.3884302030884328e-09 3.4513785607259706e-08 0.0001705771719571203" pbc="T T T"
Se       1.49819655       1.05938501       2.59495251       0.00000035      -0.00000063      -0.00000018
Se       4.49458959       3.17815481       7.78485762       0.00000087       0.00000060      -0.00000004
Cr      -0.00000009      -0.00000001      -0.00000005      -0.00000082      -0.00000076       0.00000183
F        1.51046297       1.06805843       5.18990499       0.00603506       0.00426844       0.00000088
F        4.48232309       3.16948124       5.18990509      -0.00603613      -0.00426885      -0.00000048
F        3.73935804       1.06805858       3.90305190      -0.00301526       0.00426729       0.00522751
F        2.25342809       3.16948105       6.47675841       0.00301833      -0.00426885      -0.00522861
F        2.25342803       3.16948113       3.90305185       0.00301716      -0.00426736       0.00522889
F        3.73935809       1.06805853       6.47675845      -0.00301942       0.00427027      -0.00523001
