9
Lattice="5.706371211056456 -7.582522054515795e-08 3.2945747530349117 1.9021236663824204 5.380018528304141 3.2945747515586645 -1.0585471273509477e-07 -7.665858665413732e-08 6.589149689415546" Properties=species:S:1:pos:R:3:forces:R:3 energy=-23.708080291748047 free_energy=-23.708080291748047 stress="0.00031733731157146394 1.241297287180032e-08 2.466989101890249e-08 1.241297287180032e-08 0.00031727907480672 -2.0108570808474724e-08 2.466989101890249e-08 -2.0108570808474724e-08 0.00031710605253465474" pbc="T T T"
Se       1.90212380       1.34500448       3.29457440      -0.00000059      -0.00000137      -0.00000126
Se       5.70637133       4.03501316       9.88372432       0.00000123      -0.00000217      -0.00000067
Co      -0.00000002      -0.00000014       0.00000014      -0.00000081       0.00000051       0.00000112
Cl       1.82453071       1.29013818       6.58914905      -0.00032210      -0.00022803       0.00000235
Cl       5.78396426       4.08988066       6.58914913       0.00032046       0.00022818       0.00000127
Cl       4.79410572       1.29013791       4.87466519       0.00016144      -0.00022943      -0.00028062
Cl       2.81438878       4.08988008       8.30363479      -0.00016074       0.00022900       0.00027882
Cl       2.81438897       4.08988058       4.87466510      -0.00016095       0.00023107      -0.00027987
Cl       4.79410550       1.29013860       8.30363462       0.00016217      -0.00022778       0.00027931
