9
Lattice="4.699211733418854 1.1110783816333288e-08 2.713090883977656 1.5664039431955217 4.430459129930347 2.713090846599048 1.528627544262861e-07 6.231103912185731e-08 5.426181503189239" Properties=species:S:1:pos:R:3:forces:R:3 energy=-33.11654281616211 free_energy=-33.11654281616211 stress="3.144339643768035e-05 -2.2529771825929856e-08 1.2594715492753039e-08 -2.2529771825929856e-08 3.156550883431919e-05 5.476564624018465e-08 1.2594715492753039e-08 5.476564624018465e-08 3.1812680390430614e-05" pbc="T T T"
Se       1.56640474       1.10761440       2.71308994       0.00000520       0.00000037      -0.00000620
Se       4.69921259       3.32284510       8.13927220       0.00000333       0.00000175      -0.00000325
C        0.00000023       0.00000027      -0.00000040       0.00000310      -0.00000239      -0.00000131
F        1.30151668       0.92031146       5.42618168      -0.00094277      -0.00066906       0.00000248
F        4.96409842       3.51014761       5.42618193       0.00094140       0.00066942      -0.00000032
F        4.04845293       0.92031148       3.84023801       0.00047106      -0.00067163      -0.00082183
F        2.21716228       3.51014779       7.01212578      -0.00047472       0.00067258       0.00082427
F        2.21716241       3.51014735       3.84023786      -0.00047374       0.00067019      -0.00081986
F        4.04845319       0.92031146       7.01212597       0.00046781      -0.00067103       0.00082296
