9
Lattice="6.163090247759567 7.901521805751717e-08 3.5582616772290283 2.0543634614616253 5.810617095827993 3.558261727379665 -4.1653851181227225e-08 3.1968015017691574e-08 7.116523426604612" Properties=species:S:1:pos:R:3:forces:R:3 energy=-25.48790168762207 free_energy=-25.48790168762207 stress="-2.759155449894024e-06 1.2586605535602757e-08 1.1662972809745042e-08 1.2586605535602757e-08 -2.772478865153971e-06 -8.50558112830413e-09 1.1662972809745042e-08 -8.50558112830413e-09 -2.77778008239693e-06" pbc="T T T"
Se       2.05436362       1.45265462       3.55826166      -0.00000032       0.00000045       0.00000016
Se       6.16308993       4.35796280      10.67478528      -0.00000019      -0.00000041       0.00000083
Cr       0.00000012      -0.00000001      -0.00000022      -0.00000165       0.00000138       0.00000209
Br       1.97722497       1.39810913       7.11652331       0.00001729       0.00001252       0.00000039
Br       6.24022867       4.41250798       7.11652327      -0.00001599      -0.00001082      -0.00000011
Br       5.17447789       1.39810916       5.27058875      -0.00000919       0.00001272       0.00001339
Br       3.04297588       4.41250802       8.96245831       0.00001032      -0.00001536      -0.00001797
Br       3.04297579       4.41250798       5.27058888       0.00000872      -0.00001286       0.00001541
Br       5.17447782       1.39810917       8.96245808      -0.00000893       0.00001233      -0.00001427
