9
Lattice="6.463371911585841 4.8161122643372474e-08 3.7316293833679732 2.154457344186467 6.093725418901467 3.7316293921705856 -4.820743042061615e-09 7.372196319377834e-09 7.4632587750857535" Properties=species:S:1:pos:R:3:forces:R:3 energy=-23.50885581970215 free_energy=-23.50885581970215 stress="7.483601802960038e-05 9.47240952342554e-09 8.465598888562909e-09 9.47240952342554e-09 7.482377986889333e-05 -5.422121418519055e-09 8.465598888562909e-09 -5.422121418519055e-09 7.482081127818674e-05" pbc="T T T"
Se       2.15445791       1.52343117       3.73162886       0.00000016      -0.00000058       0.00000064
Se       6.46337160       4.57029410      11.19488851       0.00000025       0.00000042      -0.00000135
Cr      -0.00000028       0.00000025      -0.00000003       0.00000222      -0.00000191      -0.00000079
I        2.13362733       1.50870248       7.46325885      -0.00027485      -0.00019433       0.00000020
I        6.48420180       4.58502313       7.46325881       0.00027427       0.00019412      -0.00000009
I        5.39655825       1.50870239       5.57940462       0.00013625      -0.00019302      -0.00023617
I        3.22127112       4.58502288       9.34711280      -0.00013745       0.00019427       0.00023835
I        3.22127111       4.58502298       5.57940480      -0.00013725       0.00019426      -0.00023813
I        5.39655816       1.50870252       9.34711300       0.00013631      -0.00019320       0.00023737
