9
Lattice="6.119288492934317 5.00492083343273e-08 3.5329729462665878 2.0397628658784557 5.7693205598375625 3.5329729675473907 3.334097279081549e-08 4.963919243932138e-08 7.065945834784906" Properties=species:S:1:pos:R:3:forces:R:3 energy=-21.136526107788086 free_energy=-21.136526107788086 stress="0.0003506152715999633 -4.754561189201922e-09 1.3130977194464322e-08 -4.754561189201922e-09 0.000350614485796541 5.8788836021506086e-09 1.3130977194464322e-08 5.8788836021506086e-09 0.0003506049979478121" pbc="T T T"
Se       2.03976281       1.44233019       3.53297285       0.00000054      -0.00000067      -0.00000091
Se       6.11928835       4.32699030      10.59891868      -0.00000031      -0.00000043      -0.00000008
Co       0.00000009      -0.00000010      -0.00000015       0.00000032       0.00000112      -0.00000031
Br       2.00064461       1.41466943       7.06594584       0.00198038       0.00140047       0.00000109
Br       6.15840694       4.35465130       7.06594594      -0.00198102      -0.00139943      -0.00000013
Br       5.11896636       1.41466943       5.26558198      -0.00099036       0.00140103       0.00171572
Br       3.04008508       4.35465128       8.86630993       0.00099060      -0.00140132      -0.00171533
Br       3.04008504       4.35465127       5.26558196       0.00099071      -0.00140074       0.00171545
Br       5.11896629       1.41466951       8.86631001      -0.00099096       0.00139999      -0.00171538
