9
Lattice="6.061832978650618 -8.232723756438134e-08 3.499800757064943 2.0206108931411326 5.715150811841128 3.4998007953840475 -1.4140318629992738e-07 -5.305605317289123e-08 6.999601759047378" Properties=species:S:1:pos:R:3:forces:R:3 energy=-18.694398880004883 free_energy=-18.694398880004883 stress="-0.00020528688037302345 -9.388911870189531e-09 6.047460310298902e-10 -9.388911870189531e-09 -0.00020524727005977184 -1.2560866124999848e-08 6.047460310298902e-10 -1.2560866124999848e-08 -0.00020526256412267685" pbc="T T T"
Se       2.02061111       1.42878764       3.49980112      -0.00000004       0.00000084       0.00000031
Se       6.06183243       4.28636268      10.49940195      -0.00000075      -0.00000139      -0.00000050
C       -0.00000006      -0.00000002      -0.00000007       0.00000290       0.00000156       0.00000093
Br       1.97657353       1.39764851       6.99960195      -0.00173673      -0.00122835      -0.00000012
Br       6.10587025       4.31750207       6.99960184       0.00173664       0.00122868      -0.00000034
Br       5.07354623       1.39764854       5.21156340       0.00086789      -0.00122796      -0.00150444
Br       3.00889758       4.31750236       8.78763982      -0.00086880       0.00122772       0.00150423
Br       3.00889758       4.31750220       5.21156347      -0.00086951       0.00122814      -0.00150576
Br       5.07354625       1.39764868       8.78763979       0.00086834      -0.00122926       0.00150573
