9
Lattice="5.8238542037918934 -1.2534292227225004e-07 3.3624037794507333 1.9412846640609887 5.490782161713546 3.362403696939098 -2.2165839113446937e-07 -2.5779183767527677e-07 6.724807942825021" Properties=species:S:1:pos:R:3:forces:R:3 energy=-25.336688995361328 free_energy=-25.336688995361328 stress="4.4456508476287127e-05 4.12738216937214e-08 -1.0113919479692868e-08 4.12738216937214e-08 4.475415335036814e-05 -7.577319394158621e-08 -1.0113919479692868e-08 -7.577319394158621e-08 4.4593634811462834e-05" pbc="T T T"
Se       1.94128530       1.37269443       3.36240316       0.00000188       0.00000079      -0.00000061
Se       5.82385379       4.11808775      10.08721202      -0.00000130      -0.00000433       0.00000130
Fe      -0.00000007      -0.00000039      -0.00000019       0.00000131       0.00000667       0.00000174
Cl       1.82615665       1.29128785       6.72480776       0.00093111       0.00065550      -0.00000118
Cl       5.93898209       4.19949424       6.72480717      -0.00093567      -0.00065851      -0.00000021
Cl       4.91077557       1.29128769       4.94390213      -0.00046742       0.00066084       0.00080866
Cl       2.85436261       4.19949369       8.50571412       0.00046997      -0.00066260      -0.00081229
Cl       2.85436298       4.19949420       4.94390224       0.00046723      -0.00065687       0.00081110
Cl       4.91077564       1.29128776       8.50571325      -0.00046737       0.00065869      -0.00080839
