9
Lattice="6.530527688144351 1.542141815899516e-07 3.770401948785085 2.17684271378969 6.157040472886276 3.770401938946423 4.561640934662765e-08 2.0205847469234246e-08 7.540803818560244" Properties=species:S:1:pos:R:3:forces:R:3 energy=-22.33184242248535 free_energy=-22.33184242248535 stress="-0.00014121374988462776 6.49744507086325e-08 7.422431558268272e-09 6.49744507086325e-08 -0.0001412548590451479 -9.682828761015116e-09 7.422431558268272e-09 -9.682828761015116e-09 -0.00014130181807558984" pbc="T T T"
Se       2.17684239       1.53926029       3.77040199       0.00000062      -0.00000045      -0.00000090
Se       6.53052806       4.61778046      11.31120552       0.00000008       0.00000068       0.00000025
Fe       0.00000022       0.00000005      -0.00000041      -0.00000872      -0.00000477       0.00000914
I        1.95667928       1.38358113       7.54080385       0.00789665       0.00558344       0.00000034
I        6.75069069       4.77345908       7.54080398      -0.00788779      -0.00557691       0.00000018
I        5.55218860       1.38358109       5.46493578      -0.00394857       0.00558293       0.00683854
I        3.15518186       4.77345993       9.61667228       0.00395097      -0.00558866      -0.00684363
I        3.15518199       4.77345964       5.46493569       0.00394830      -0.00558338       0.00683860
I        5.55218863       1.38358094       9.61667229      -0.00395156       0.00558707      -0.00684228
