9
Lattice="6.536489341119793 -1.3027941867929054e-07 3.7738439395921324 2.178829567029088 6.162662218306239 3.773844096369682 -1.0915619122555581e-07 1.1482738198111994e-07 7.547688068248369" Properties=species:S:1:pos:R:3:forces:R:3 energy=-23.640724182128906 free_energy=-23.640724182128906 stress="-1.0798070434248075e-05 -2.8366278215230523e-09 2.0254873334124568e-08 -2.8366278215230523e-09 -1.0819793715199921e-05 -6.394662577235977e-09 2.0254873334124568e-08 -6.394662577235977e-09 -1.0762713827716652e-05" pbc="T T T"
Se       2.17882875       1.54066608       3.77384459       0.00000274       0.00000151       0.00000315
Se       6.53649018       4.62199863      11.32153495      -0.00000234      -0.00000041      -0.00000124
Fe       0.00000001      -0.00000037       0.00000030      -0.00000476       0.00000678      -0.00002852
Br       1.83579520       1.29810329       7.54768737       0.00046131       0.00032686       0.00000014
Br       6.87952340       4.86455835       7.54768725      -0.00046235      -0.00032750       0.00000048
Br       5.61859191       1.29810249       5.36368924      -0.00023475       0.00033146       0.00040542
Br       3.09672743       4.86455874       9.73168583       0.00022979      -0.00032471      -0.00039719
Br       3.09672738       4.86455836       5.36368893       0.00023597      -0.00033455       0.00040844
Br       5.61859094       1.29810317       9.73168582      -0.00022556       0.00032051      -0.00039081
