9
Lattice="6.176502178718215 4.822520445591885e-09 3.566005124328023 2.0588340602304385 5.823262162085293 3.566005131063977 -4.0929808920237096e-08 -2.069194235613286e-08 7.132010319548565" Properties=species:S:1:pos:R:3:forces:R:3 energy=-17.865333557128906 free_energy=-17.865333557128906 stress="0.00010189160821028054 -3.893642630536931e-10 -4.486587101837358e-09 -3.893642630536931e-10 0.00010190050670644268 1.2667531024135315e-08 -4.486587101837358e-09 1.2667531024135315e-08 0.00010189942258875817" pbc="T T T"
Se       2.05883386       1.45581522       3.56600545      -0.00000081       0.00000044       0.00000018
Se       6.17650183       4.36744674      10.69801433      -0.00000099       0.00000015      -0.00000178
Ga       0.00000002       0.00000006       0.00000030      -0.00000034      -0.00000000      -0.00000236
Br       2.05377849       1.45224046       7.13201057       0.00039095       0.00027691      -0.00000115
Br       6.18155794       4.37102168       7.13201051      -0.00039080      -0.00027603       0.00000002
Br       5.14961320       1.45224044       5.34462951      -0.00019670       0.00027771       0.00033920
Br       3.08572356       4.37102144       8.91939116       0.00019503      -0.00027493      -0.00033791
Br       3.08572306       4.37102168       5.34462935       0.00019667      -0.00027810       0.00034018
Br       5.14961282       1.45224086       8.91939111      -0.00019294       0.00027381      -0.00033668
