9
Lattice="5.738033338636039 -2.1017208220265163e-08 3.312855121396296 1.9126777516783584 5.409869737084082 3.3128551353423856 -2.1617235103603677e-08 1.7947239977435723e-09 6.625710280234741" Properties=species:S:1:pos:R:3:forces:R:3 energy=-20.949724197387695 free_energy=-20.949724197387695 stress="0.00026411309954710305 8.793613659463517e-08 -6.172201860721316e-09 8.793613659463517e-08 0.00026414936291985214 -2.8364735005226294e-09 -6.172201860721316e-09 -2.8364735005226294e-09 0.00026409310521557927" pbc="T T T"
Se       1.91267875       1.35246705       3.31285498       0.00000090       0.00000233       0.00000390
Se       5.73803359       4.05740209       9.93856618       0.00000184      -0.00000251      -0.00000118
Ga       0.00000023       0.00000016      -0.00000024      -0.00000295      -0.00000003       0.00000204
Cl       1.91530426       1.35432462       6.62571092      -0.00135073      -0.00095718       0.00000086
Cl       5.73540633       4.05554468       6.62571041       0.00135392       0.00095837      -0.00000005
Cl       4.78038026       1.35432521       4.97155776       0.00067697      -0.00095974      -0.00117496
Cl       2.87032944       4.05554552       8.27986229      -0.00067750       0.00095931       0.00116974
Cl       2.87033005       4.05554444       4.97155711      -0.00067554       0.00095543      -0.00117323
Cl       4.78038138       1.35432509       8.27986271       0.00067306      -0.00095598       0.00117320
