9
Lattice="5.406636891012543 -1.6934045247861168e-07 3.1215232066177365 1.8022122452123646 5.097425448602882 3.1215230197920074 1.513078010963929e-07 -1.2182306477368719e-07 6.243046151162684" Properties=species:S:1:pos:R:3:forces:R:3 energy=-26.456951141357422 free_energy=-26.456951141357422 stress="1.543535472592339e-05 1.929695336855275e-08 -1.0866971322798236e-08 1.929695336855275e-08 1.5559733583359048e-05 4.749533033532316e-08 -1.0866971322798236e-08 4.749533033532316e-08 1.5588500900776125e-05" pbc="T T T"
Se       1.80221533       1.27435684       3.12152288       0.00002128       0.00000194      -0.00000212
Se       5.40663666       3.82307015       9.36456909      -0.00000188       0.00001004      -0.00000301
Ga      -0.00000012       0.00000009      -0.00000019      -0.00000017       0.00000109       0.00000150
S        1.93375688       1.36737248       6.24304634       0.00019288       0.00013821       0.00000078
S        5.27509146       3.73005249       6.24304640      -0.00019915      -0.00013740       0.00000209
S        4.43975706       1.36737235       4.79620598      -0.00010796       0.00013444       0.00016570
S        2.76909134       3.73005188       7.68988677       0.00009983      -0.00014479      -0.00016481
S        2.76909094       3.73005249       4.79620592       0.00009860      -0.00013802       0.00016918
S        4.43975762       1.36737185       7.68988632      -0.00010351       0.00013451      -0.00016909
