9
Lattice="5.90362425077226 -2.4068638160401186e-07 3.408458881117125 1.967874545207466 5.565989771892429 3.408458843234749 -6.992531609083222e-08 -9.584081586597711e-08 6.816917883348447" Properties=species:S:1:pos:R:3:forces:R:3 energy=-22.326139450073242 free_energy=-22.326139450073242 stress="-1.0686417226679623e-05 4.702976141857107e-08 -3.154924854698038e-08 4.702976141857107e-08 -1.0732729606388602e-05 3.833649486750801e-08 -3.154924854698038e-08 3.833649486750801e-08 -1.0678237231331877e-05" pbc="T T T"
Se       1.96787506       1.39149775       3.40845876      -0.00000098      -0.00000032       0.00000029
Se       5.90362367       4.17449197      10.22537665       0.00000118       0.00000057      -0.00000052
Ge      -0.00000019       0.00000014      -0.00000014       0.00000211      -0.00000348      -0.00000431
Cl       1.83882512       1.30024553       6.81691784      -0.00126779      -0.00089476      -0.00000180
Cl       6.03267333       4.26574396       6.81691803       0.00126669       0.00089693      -0.00000108
Cl       4.98421196       1.30024535       5.00092829       0.00063285      -0.00089270      -0.00109415
Cl       2.88728702       4.26574376       8.63290771      -0.00063524       0.00089552       0.00109787
Cl       2.88728716       4.26574420       5.00092763      -0.00063010       0.00089249      -0.00109154
Cl       4.98421181       1.30024513       8.63290756       0.00063103      -0.00089449       0.00109503
