9
Lattice="4.634577803654978 -9.779887852011784e-08 2.675774741218811 1.5448592307317595 4.36952185149889 2.6757746458652227 8.595164502715863e-08 -5.600683004954563e-08 5.351549333564956" Properties=species:S:1:pos:R:3:forces:R:3 energy=-35.87017822265625 free_energy=-35.87017822265625 stress="0.0008264590287581086 -2.9785196531406655e-08 -1.9387096372724955e-09 -2.9785196531406655e-08 0.0008265181677415967 -2.1010571060742222e-08 -1.9387096372724955e-09 -2.1010571060742222e-08 0.0008265171200037003" pbc="T T T"
Se       1.54485854       1.09238062       2.67577329      -0.00000892      -0.00000035      -0.00001895
Se       4.63457957       3.27714342       8.02732318       0.00002223       0.00002875      -0.00001474
Ga       0.00000001      -0.00000002       0.00000019       0.00000245       0.00000222       0.00000099
O        1.56443495       1.10622216       5.35154948      -0.00103325      -0.00073627       0.00000779
O        4.61500257       3.26329891       5.35154939       0.00103813       0.00072771       0.00000752
O        3.85236023       1.10622142       4.03061601       0.00051853      -0.00074899      -0.00088200
O        2.32707641       3.26329893       6.67248382      -0.00052232       0.00072798       0.00089386
O        2.32707620       3.26329986       4.03061626      -0.00052944       0.00074092      -0.00088453
O        3.85236002       1.10622158       6.67248349       0.00051272      -0.00074190       0.00088936
