9
Lattice="4.471464529843239 7.2766417730800865e-09 2.5816012493932576 1.4904881753887247 4.215737266914956 2.5816012633989334 -1.6833725264129644e-08 5.2501483612893494e-09 5.163202527943391" Properties=species:S:1:pos:R:3:forces:R:3 energy=-31.040172576904297 free_energy=-31.040172576904297 stress="0.00020467264403123409 -2.2588322323713328e-08 -1.7818766906430028e-08 -2.2588322323713328e-08 0.00020474597113206983 6.13033392937723e-08 -1.7818766906430028e-08 6.13033392937723e-08 0.00020476461213547736" pbc="T T T"
Se       1.49048832       1.05393448       2.58160115      -0.00000024       0.00000211       0.00000184
Se       4.47146441       3.16180317       7.74480385       0.00000140       0.00000181       0.00000136
Ga       0.00000011       0.00000019       0.00000020       0.00000140      -0.00000545      -0.00000398
F        1.54470650       1.09227235       5.16320250       0.00133473       0.00094447       0.00000021
F        4.41724620       3.12346474       5.16320242      -0.00133517      -0.00094467      -0.00000024
F        3.69911123       1.09227236       3.91935626      -0.00066753       0.00094324       0.00115526
F        2.26284145       3.12346473       6.40704864       0.00066532      -0.00094190      -0.00115260
F        2.26284132       3.12346483       3.91935643       0.00066817      -0.00094396       0.00115487
F        3.69911113       1.09227229       6.40704868      -0.00066824       0.00094426      -0.00115696
