9
Lattice="6.176502176605548 -2.3108690927014734e-08 3.566005132658523 2.0588340533679075 5.823262033026524 3.566005104449518 -1.089337954523297e-08 -4.225161869280677e-08 7.132010284184941" Properties=species:S:1:pos:R:3:forces:R:3 energy=-17.865333557128906 free_energy=-17.865333557128906 stress="0.0001019810006255284 -2.9258100386897468e-09 -5.598257413197416e-09 -2.9258100386897468e-09 0.0001019688934320584 2.015831057633477e-09 -5.598257413197416e-09 2.015831057633477e-09 0.00010198569361818954" pbc="T T T"
Se       2.05883429       1.45581542       3.56600514      -0.00000096      -0.00000072       0.00000015
Se       6.17650191       4.36744666      10.69801469       0.00000033       0.00000125      -0.00000223
Ga      -0.00000012      -0.00000008       0.00000028       0.00000166      -0.00000127      -0.00000197
Br       2.05377859       1.45224073       7.13201049       0.00038597       0.00027259      -0.00000070
Br       6.18155756       4.37102140       7.13201052      -0.00038639      -0.00027363      -0.00000058
Br       5.14961297       1.45224031       5.34462948      -0.00019431       0.00027560       0.00033763
Br       3.08572357       4.37102115       8.91939095       0.00019257      -0.00027193      -0.00033239
Br       3.08572324       4.37102145       5.34462959       0.00019346      -0.00027387       0.00033481
Br       5.14961284       1.45224080       8.91939092      -0.00019231       0.00027210      -0.00033462
