9
Lattice="6.258556376094077 -1.003093394823579e-08 3.613379190911286 2.086185438990357 5.900623544457242 3.613379208665517 -8.507863575462339e-08 -3.841527062720105e-08 7.226758529183058" Properties=species:S:1:pos:R:3:forces:R:3 energy=-19.064910888671875 free_energy=-19.064910888671875 stress="-0.00010798745643114671 -8.058198552873819e-09 1.6637988764500733e-09 -8.058198552873819e-09 -0.00010801919415825978 -1.507146962786976e-09 1.6637988764500733e-09 -1.507146962786976e-09 -0.00010799278970807791" pbc="T T T"
Se       2.08618589       1.47515584       3.61337907       0.00000077      -0.00000055      -0.00000054
Se       6.25855641       4.42546796      10.84013747       0.00000017       0.00000017      -0.00000070
Ge      -0.00000013      -0.00000024      -0.00000038       0.00000060       0.00000068       0.00000632
Br       1.98134730       1.40102390       7.22675832      -0.00310470      -0.00219487       0.00000116
Br       6.36339423       4.49959944       7.22675833       0.00310442       0.00219509       0.00000118
Br       5.26788242       1.40102395       5.32927637       0.00155358      -0.00219697      -0.00269079
Br       3.07685879       4.49959963       9.12424101      -0.00155102       0.00219247       0.00268717
Br       3.07685922       4.49959944       5.32927654      -0.00155413       0.00219672      -0.00269069
Br       5.26788275       1.40102402       9.12424096       0.00155026      -0.00219274       0.00268716
