9
Lattice="6.581632460295211 5.540457689033003e-08 3.799907400236585 2.193877535881782 6.205222606832425 3.7999074056392432 -1.5432493260202067e-08 -4.295553186618756e-09 7.5998148272030335" Properties=species:S:1:pos:R:3:forces:R:3 energy=-17.02143669128418 free_energy=-17.02143669128418 stress="0.00010149164154427126 -8.559218334092122e-10 3.8305386640402617e-10 -8.559218334092122e-10 0.00010148333967663348 9.105066034464926e-09 3.8305386640402617e-10 9.105066034464926e-09 0.0001014884837786667" pbc="T T T"
Se       2.19387733       1.55130567       3.79990752      -0.00000085      -0.00000021       0.00000121
Se       6.58163249       4.65391716      11.39972206       0.00000058       0.00000096      -0.00000213
Ge       0.00000017       0.00000033      -0.00000037      -0.00000028       0.00000026       0.00000026
I        2.33194937       1.64893712       7.59981480      -0.00164667      -0.00116435       0.00000024
I        6.44356066       4.55628561       7.59981496       0.00164664       0.00116323       0.00000047
I        5.41565797       1.64893700       5.81943473       0.00082409      -0.00116494      -0.00142547
I        3.35985201       4.55628548       9.38019510      -0.00082345       0.00116432       0.00142637
I        3.35985210       4.55628539       5.81943454      -0.00082344       0.00116463      -0.00142699
I        5.41565777       1.64893692       9.38019520       0.00082333      -0.00116387       0.00142601
