9
Lattice="4.500037350609898 1.4643271729543478e-08 2.5980977731920616 1.500012455519727 4.242675973670636 2.59809778789609 1.6387031352523665e-09 1.9167424895650556e-08 5.196195543545804" Properties=species:S:1:pos:R:3:forces:R:3 energy=-33.24165344238281 free_energy=-33.24165344238281 stress="0.000612578063737601 -5.0199940204720406e-08 2.6880371262194558e-09 -5.0199940204720406e-08 0.0006125204963609576 -2.997355252887246e-08 2.6880371262194558e-09 -2.997355252887246e-08 0.0006126773660071194" pbc="T T T"
Se       1.50001247       1.06066898       2.59809768      -0.00000011       0.00000019      -0.00000036
Se       4.50003731       3.18200697       7.79429319       0.00000023       0.00000011      -0.00000031
Ge      -0.00000008       0.00000004       0.00000003       0.00000622       0.00000330       0.00000201
F        1.51577847       1.07181718       5.19619559       0.00209928       0.00148518       0.00000020
F        4.48427149       3.17085882       5.19619560      -0.00210568      -0.00148889       0.00000039
F        3.74214811       1.07181733       3.91080047      -0.00105017       0.00148495       0.00181802
F        2.25790165       3.17085875       6.48159068       0.00105087      -0.00148690      -0.00181909
F        2.25790158       3.17085874       3.91080044       0.00105032      -0.00148453       0.00181831
F        3.74214823       1.07181720       6.48159075      -0.00105090       0.00148661      -0.00181956
