9
Lattice="4.4714642979865795 -6.426392762207408e-09 2.581601095675209 1.4904880920413393 4.215736903979513 2.5816010978033592 3.060224780467161e-08 2.4245483899414535e-08 5.163202138345788" Properties=species:S:1:pos:R:3:forces:R:3 energy=-31.04017448425293 free_energy=-31.04017448425293 stress="0.00020439995569176972 6.430928678469172e-09 -2.2902103324895506e-08 6.430928678469172e-09 0.0002044211869360879 -3.067702181169807e-08 -2.2902103324895506e-08 -3.067702181169807e-08 0.00020445721747819334" pbc="T T T"
Se       1.49048825       1.05393418       2.58160103      -0.00000137      -0.00000062       0.00000046
Se       4.47146427       3.16180256       7.74480322      -0.00000067      -0.00000061       0.00000062
Ga      -0.00000010       0.00000004       0.00000009       0.00000521       0.00000105      -0.00000271
F        1.54470631       1.09227217       5.16320211       0.00133815       0.00094473      -0.00000074
F        4.41724629       3.12346482       5.16320218      -0.00134423      -0.00094995      -0.00000008
F        3.69911119       1.09227252       3.91935598      -0.00066985       0.00094891       0.00116077
F        2.26284123       3.12346460       6.40704839       0.00067037      -0.00094509      -0.00115764
F        2.26284116       3.12346456       3.91935608       0.00067055      -0.00094572       0.00115883
F        3.69911116       1.09227226       6.40704831      -0.00066808       0.00094697      -0.00115949
