9
Lattice="6.530571506784655 -2.6400916989753356e-08 3.770427302902199 2.1768571563503505 6.1570820482781885 3.7704272815751567 3.685731392826094e-08 -5.810832042857555e-11 7.540854541965646" Properties=species:S:1:pos:R:3:forces:R:3 energy=-16.049158096313477 free_energy=-16.049158096313477 stress="4.6848359488649294e-05 -1.8113176736278547e-08 -2.9902302856044116e-09 -1.8113176736278547e-08 4.686186002800241e-05 6.573859234748625e-09 -2.9902302856044116e-09 6.573859234748625e-09 4.6868073695804924e-05" pbc="T T T"
Se       2.17685726       1.53927062       3.77042724      -0.00000023       0.00000039       0.00000054
Se       6.53057167       4.61781136      11.31128206       0.00000012      -0.00000076      -0.00000015
Ga      -0.00000011      -0.00000021       0.00000009       0.00000102       0.00000111       0.00000019
I        2.25971689       1.59786139       7.54085462      -0.00006199      -0.00004345       0.00000032
I        6.44771185       4.55922092       7.54085441       0.00006045       0.00004293      -0.00000017
I        5.40071311       1.59786126       5.72739968       0.00003075      -0.00004323      -0.00005288
I        3.30671559       4.55922074       9.35430942      -0.00003000       0.00004250       0.00005190
I        3.30671560       4.55922075       5.72739961      -0.00003017       0.00004312      -0.00005218
I        5.40071295       1.59786125       9.35430935       0.00003015      -0.00004259       0.00005253
