9
Lattice="4.529416269516224 -7.218201029920552e-08 2.615059769771502 1.509805365097812 4.270374538576655 2.615059752486353 -3.236081799143353e-08 -4.405245449405842e-08 5.230119595593587" Properties=species:S:1:pos:R:3:forces:R:3 energy=-47.26085662841797 free_energy=-47.26085662841797 stress="-0.00028907059459015727 -3.4857869479765213e-08 4.178059143100654e-08 -3.4857869479765213e-08 -0.0002891025214921683 1.9000449213990578e-08 4.178059143100654e-08 1.9000449213990578e-08 -0.000289081537630409" pbc="T T T"
Se       1.50980544       1.06759370       2.61505978       0.00000079       0.00000002      -0.00000112
Se       4.52941611       3.20278065       7.84517946      -0.00000087       0.00000204      -0.00000051
Hf      -0.00000019      -0.00000013      -0.00000011       0.00000454       0.00000094      -0.00000019
F        1.58773771       1.12270007       5.23011955       0.00284645       0.00201234       0.00000045
F        4.45148394       3.14767452       5.23011953      -0.00284877      -0.00201540      -0.00000075
F        3.73554737       1.12270006       3.99008107      -0.00142357       0.00201274       0.00246571
F        2.30367426       3.14767448       6.47015807       0.00142194      -0.00201327      -0.00246410
F        2.30367434       3.14767443       3.99008096       0.00142352      -0.00201261       0.00246577
F        3.73554743       1.12270000       6.47015814      -0.00142409       0.00201322      -0.00246532
