9
Lattice="6.139490308261724 2.960605529021694e-07 3.5446365961697577 2.0464967642904153 5.788366395255428 3.5446370885204312 -3.133042638297877e-07 3.8146432011403025e-07 7.089273734998324" Properties=species:S:1:pos:R:3:forces:R:3 energy=-32.06430435180664 free_energy=-32.06430435180664 stress="-9.075464186025783e-05 2.604787852078516e-08 -2.603292337255425e-08 2.604787852078516e-08 -9.078105358639732e-05 8.909147197755374e-08 -2.603292337255425e-08 8.909147197755374e-08 -9.080657036975026e-05" pbc="T T T"
Se       2.04649712       1.44709418       3.54464005       0.00000150       0.00000393       0.00000369
Se       6.13948986       4.34127620      10.63391175      -0.00000151       0.00000143       0.00000237
Hf      -0.00000030      -0.00000072      -0.00000100       0.00000490       0.00000175       0.00000389
Cl       2.00079101       1.41477342       7.08927360      -0.00046805      -0.00033133      -0.00000252
Cl       6.18519605       4.37359324       7.08927414       0.00046401       0.00032653      -0.00000274
Cl       5.13909448       1.41477295       5.27737243       0.00023299      -0.00033110      -0.00040808
Cl       3.04689250       4.37359336       8.90117331      -0.00023428       0.00032990       0.00040600
Cl       3.04689167       4.37359355       5.27737160      -0.00022819       0.00032316      -0.00039956
Cl       5.13909463       1.41477206       8.90117382       0.00022856      -0.00032432       0.00039688
