9
Lattice="6.4154818746104 1.791113264755287e-09 3.7039801913850567 2.1384939527851516 6.048574341450988 3.7039802036947327 -3.4264151358318527e-09 1.2653378936545823e-08 7.40796038870484" Properties=species:S:1:pos:R:3:forces:R:3 energy=-22.376415252685547 free_energy=-22.376415252685547 stress="-0.00013364836922846735 7.356392828228309e-09 -3.017047944808837e-09 7.356392828228309e-09 -0.0001336502900812775 2.833989487527333e-09 -3.017047944808837e-09 2.833989487527333e-09 -0.0001336453715339303" pbc="T T T"
Se       2.13849395       1.51214360       3.70398019      -0.00000072      -0.00000042      -0.00000056
Se       6.41548187       4.53643079      11.11194057       0.00000069       0.00000070       0.00000084
Ir       0.00000002      -0.00000002       0.00000024      -0.00000151      -0.00000102      -0.00000281
I        2.15835782       1.52618946       7.40796042      -0.00045213      -0.00032006      -0.00000064
I        6.39561798       4.52238488       7.40796039       0.00045317       0.00032102      -0.00000020
I        5.33630300       1.52618942       5.57317290       0.00022564      -0.00031913      -0.00039143
I        3.21767292       4.52238480       9.24274778      -0.00022683       0.00032117       0.00039295
I        3.21767284       4.52238496       5.57317289      -0.00022536       0.00031897      -0.00039132
I        5.33630289       1.52618955       9.24274777       0.00022708      -0.00032121       0.00039322
