9
Lattice="5.8659406651550094 -2.8662750345724372e-08 3.3867020949532063 1.9553135052838038 5.530461716366576 3.3867021343476096 -1.3452208356782783e-08 3.873593471640914e-08 6.7734042132062715" Properties=species:S:1:pos:R:3:forces:R:3 energy=-26.03989028930664 free_energy=-26.03989028930664 stress="0.00015567523951176554 -8.99446028768125e-09 1.565825336058424e-08 -8.99446028768125e-09 0.00015578509191982448 1.196896448618645e-08 1.565825336058424e-08 1.196896448618645e-08 0.00015563963097520173" pbc="T T T"
Se       1.95531239       1.38261524       3.38670247      -0.00000128      -0.00000111       0.00000675
Se       5.86594083       4.14784550      10.16010656       0.00000024      -0.00000470       0.00000022
Ir       0.00000031       0.00000025      -0.00000015      -0.00000437      -0.00000397      -0.00000928
Cl       1.86862634       1.32131814       6.77340411       0.00096774       0.00068367      -0.00000086
Cl       5.95262873       4.20914376       6.77340381      -0.00096637      -0.00068316      -0.00000042
Cl       4.93162767       1.32131803       5.00497908      -0.00048336       0.00068936       0.00084254
Cl       2.88962664       4.20914385       8.54182922       0.00048554      -0.00068215      -0.00084102
Cl       2.88962638       4.20914387       5.00497918       0.00048473      -0.00068325       0.00084040
Cl       4.93162731       1.32131832       8.54182943      -0.00048253       0.00068519      -0.00083813
