9
Lattice="4.6889525874410865 1.514313477680573e-07 2.7071680150411965 1.562984302991131 4.420787374701866 2.707168076690798 -9.138099950050359e-09 6.904340470056298e-08 5.4143360459100425" Properties=species:S:1:pos:R:3:forces:R:3 energy=-35.05810546875 free_energy=-35.05810546875 stress="0.0006064946646802127 8.329686274066717e-09 -2.7966956750447025e-08 8.329686274066717e-09 0.0006064610788598657 2.4371296092340344e-08 -2.7966956750447025e-08 2.4371296092340344e-08 0.0006064461194910109" pbc="T T T"
Se       1.56298402       1.10519697       2.70716771       0.00000017       0.00000118      -0.00000217
Se       4.68895300       3.31559114       8.12150366      -0.00000002       0.00000176      -0.00000242
Ir      -0.00000009      -0.00000015       0.00000017       0.00000409       0.00000626       0.00001099
F        1.57635035       1.11464830       5.41433599      -0.00255170      -0.00180554       0.00000005
F        4.67558661       3.30613923       5.41433635       0.00254585       0.00179954       0.00000095
F        3.90077743       1.11464831       4.07232748       0.00127625      -0.00180548      -0.00221007
F        2.35115930       3.30613900       6.75634472      -0.00127224       0.00180028       0.00220551
F        2.35115954       3.30613925       4.07232753      -0.00127511       0.00180241      -0.00220753
F        3.90077745       1.11464819       6.75634487       0.00127259      -0.00180039       0.00220469
