9
Lattice="6.200399017730834 -1.9146085240849953e-08 3.5798020120949556 2.0667996752282436 5.845792017548987 3.579801976237338 1.5256184639713776e-07 6.396108877142192e-08 7.159603759945048" Properties=species:S:1:pos:R:3:forces:R:3 energy=-23.634159088134766 free_energy=-23.634159088134766 stress="0.00016419115127064288 -7.444804772660518e-10 -1.1942388411512184e-08 -7.444804772660518e-10 0.0001641973212826997 9.57077084251523e-09 -1.1942388411512184e-08 9.57077084251523e-09 0.0001641785493120551" pbc="T T T"
Se       2.06679921       1.46144804       3.57980244      -0.00000081       0.00000030       0.00000155
Se       6.20039934       4.38434391      10.73940554       0.00000044       0.00000030      -0.00000039
Ir      -0.00000001      -0.00000012       0.00000001       0.00000180       0.00000135       0.00000039
Br       2.01383089       1.42399336       7.15960373       0.00113601       0.00080427      -0.00000011
Br       6.25336800       4.42179885       7.15960377      -0.00113633      -0.00080419       0.00000041
Br       5.19348363       1.42399321       5.32383045      -0.00056806       0.00080257       0.00098384
Br       3.07371538       4.42179890       8.99537727       0.00056751      -0.00080406      -0.00098599
Br       3.07371510       4.42179870       5.32383032       0.00056746      -0.00080424       0.00098559
Br       5.19348387       1.42399340       8.99537742      -0.00056804       0.00080367      -0.00098528
