9
Lattice="4.688180220706932 6.486928878118184e-08 2.7067220729374584 1.5627267938723315 4.4200586082705335 2.7067220859671077 7.477599512131168e-08 6.883261556555606e-08 5.4134440163590885" Properties=species:S:1:pos:R:3:forces:R:3 energy=-35.05813980102539 free_energy=-35.05813980102539 stress="0.00025521349743939936 -1.2616715450164406e-09 -1.3665016673769514e-08 -1.2616715450164406e-09 0.00025520159397274256 -4.886890891953044e-08 -1.3665016673769514e-08 -4.886890891953044e-08 0.00025520488270558417" pbc="T T T"
Se       1.56272677       1.10501498       2.70672233       0.00000017       0.00000223       0.00000458
Se       4.68818028       3.31504449       8.12016731       0.00000000       0.00000252       0.00000484
Ir       0.00000005      -0.00000017      -0.00000022      -0.00000057      -0.00000148      -0.00000547
F        1.57620622       1.11454617       5.41344389       0.00083716       0.00059097      -0.00000218
F        4.67470077       3.30551252       5.41344397      -0.00083649      -0.00059250      -0.00000158
F        3.90007720       1.11454599       4.07175636      -0.00042015       0.00059277       0.00072537
F        2.35083001       3.30551248       6.75513129       0.00041851      -0.00059066      -0.00072504
F        2.35082986       3.30551237       4.07175646       0.00041888      -0.00059313       0.00072420
F        3.90007710       1.11454611       6.75513131      -0.00041742       0.00058927      -0.00072451
