9
Lattice="6.200297642497215 6.228833031108333e-08 3.5797436090476826 2.0667659552436777 5.845696815600601 3.5797435818799967 6.33528992003359e-09 -2.8793750350734853e-08 7.1594872071223135" Properties=species:S:1:pos:R:3:forces:R:3 energy=-23.634159088134766 free_energy=-23.634159088134766 stress="0.00015013685333542526 2.5895776634143886e-09 -1.5130672270657897e-09 2.5895776634143886e-09 0.00015012446965556592 2.514519426011219e-10 -1.5130672270657897e-09 2.514519426011219e-10 0.0001501026126788929" pbc="T T T"
Se       2.06676634       1.46142420       3.57974353       0.00000067      -0.00000012       0.00000093
Se       6.20029789       4.38427258      10.73923078       0.00000007       0.00000011      -0.00000023
Ir      -0.00000013       0.00000006      -0.00000012       0.00000023       0.00000043      -0.00000234
Br       2.01382101       1.42398645       7.15948724       0.00112858       0.00079895       0.00000001
Br       6.25324250       4.42171038       7.15948722      -0.00112988      -0.00079925      -0.00000009
Br       5.19338709       1.42398657       5.32376382      -0.00056514       0.00079998       0.00097868
Br       3.07367630       4.42171042       8.99521070       0.00056490      -0.00079956      -0.00097833
Br       3.07367638       4.42171034       5.32376380       0.00056530      -0.00079988       0.00097919
Br       5.19338706       1.42398641       8.99521068      -0.00056474       0.00079942      -0.00097783
