9
Lattice="6.416394975021714 -1.4692985798925858e-08 3.7045073800003863 2.1387983015337486 6.049435240930436 3.7045073966641198 -1.0011845663132126e-08 1.3329372780110177e-08 7.409014777341797" Properties=species:S:1:pos:R:3:forces:R:3 energy=-22.376415252685547 free_energy=-22.376415252685547 stress="6.566054798895493e-05 -4.799511899022946e-09 -1.271056260243597e-09 -4.799511899022946e-09 6.566692900378257e-05 4.0303134163366394e-09 -1.271056260243597e-09 4.0303134163366394e-09 6.567457603523508e-05" pbc="T T T"
Se       2.13879852       1.51235884       3.70450723      -0.00000005      -0.00000054      -0.00000099
Se       6.41639477       4.53707642      11.11352241      -0.00000072       0.00000094       0.00000097
Ir      -0.00000001       0.00000020      -0.00000039       0.00000241       0.00000043       0.00000817
I        2.15885349       1.52653992       7.40901481      -0.00567590      -0.00401329      -0.00000013
I        6.39633972       4.52289527       7.40901473       0.00567482       0.00401235      -0.00000031
I        5.33696819       1.52654004       5.57412952       0.00283926      -0.00401536      -0.00491782
I        3.21822503       4.52289528       9.24390012      -0.00283730       0.00401153       0.00491422
I        3.21822512       4.52289518       5.57412952      -0.00283916       0.00401512      -0.00491761
I        5.33696824       1.52653981       9.24390025       0.00283668      -0.00401118       0.00491359
