9
Lattice="4.592996585351297 -1.4271491650496586e-08 2.6517680105388686 1.5309988526376062 4.3303186748534825 2.651768003075208 -4.383966878527936e-08 -4.014041055028988e-08 5.303536097010268" Properties=species:S:1:pos:R:3:forces:R:3 energy=-38.751914978027344 free_energy=-38.751914978027344 stress="3.934525011572987e-05 -4.55572219948408e-08 -5.834434091411822e-08 -4.55572219948408e-08 3.9381819078698754e-05 5.115982659731344e-08 -5.834434091411822e-08 5.115982659731344e-08 3.929365266230889e-05" pbc="T T T"
Se       1.53099871       1.08257966       2.65176799       0.00000075       0.00000115       0.00000044
Se       4.59299652       3.24773907       7.95530404      -0.00000060      -0.00000138      -0.00000015
Mo       0.00000005      -0.00000009      -0.00000006      -0.00000079       0.00000758       0.00000066
F        1.59607503       1.12859546       5.30353608       0.00055809       0.00039439       0.00000037
F        4.52792037       3.20172324       5.30353608      -0.00056101      -0.00039718       0.00000072
F        3.79495907       1.12859535       4.03400974      -0.00027754       0.00039324       0.00047908
F        2.32903629       3.20172332       6.57306249       0.00028079      -0.00039712      -0.00048564
F        2.32903632       3.20172331       4.03400953       0.00028098      -0.00039839       0.00048823
F        3.79495922       1.12859520       6.57306256      -0.00028066       0.00039762      -0.00048364
