9
Lattice="6.347179210057338 -5.699283466723523e-08 3.664545456957218 2.1157264079224545 5.984177427404447 3.6645453559727885 1.080941697574531e-07 -4.724601262402661e-08 7.329090726689848" Properties=species:S:1:pos:R:3:forces:R:3 energy=-26.14408302307129 free_energy=-26.14408302307129 stress="-0.00011108704347861931 2.99262197245298e-08 -1.664584381444456e-08 2.99262197245298e-08 -0.00011107089085271582 -3.787803404264878e-09 -1.664584381444456e-08 -3.787803404264878e-09 -0.00011110671766800806" pbc="T T T"
Se       2.11572632       1.49604418       3.66454600      -0.00000107      -0.00000014       0.00000097
Se       6.34717889       4.48813288      10.99363643      -0.00000076      -0.00000068       0.00000028
Mo       0.00000004       0.00000018       0.00000027      -0.00000009       0.00000265      -0.00000586
Br       2.03376273       1.43808710       7.32909120       0.00147414       0.00104171      -0.00000122
Br       6.42914329       4.54609023       7.32909091      -0.00147358      -0.00104215      -0.00000118
Br       5.33029793       1.43808726       5.42583502      -0.00073849       0.00104479       0.00127839
Br       3.13260787       4.54609003       9.23234570       0.00073615      -0.00104136      -0.00127544
Br       3.13260727       4.54608989       5.42583491       0.00073911      -0.00104565       0.00127870
Br       5.33029860       1.43808753       9.23234568      -0.00073548       0.00104079      -0.00127465
