9
Lattice="6.5787281036088565 -1.9386775325332154e-08 3.7982303127471884 2.192909336650842 6.202484113075607 3.7982303351612288 -5.087347122869779e-09 2.3854173118778625e-08 7.5964606343059335" Properties=species:S:1:pos:R:3:forces:R:3 energy=-24.147825241088867 free_energy=-24.147825241088867 stress="0.0002844529808498919 -1.708564489888431e-08 -1.0990447663061786e-08 -1.708564489888431e-08 0.00028449425008147955 2.089455897191783e-08 -1.0990447663061786e-08 2.089455897191783e-08 0.0002844799601007253" pbc="T T T"
Se       2.19290964       1.55062093       3.79823034       0.00000101      -0.00000072       0.00000031
Se       6.57872785       4.65186314      11.39469093      -0.00000051       0.00000112      -0.00000166
Mo      -0.00000007      -0.00000004       0.00000020       0.00000150       0.00000087      -0.00000107
I        2.20952188       1.56236778       7.59646070      -0.00443664      -0.00313766      -0.00000011
I        6.56211557       4.64011641       7.59646061       0.00443593       0.00313736       0.00000024
I        5.47396717       1.56236768       5.71173218       0.00221745      -0.00313795      -0.00384341
I        3.29767053       4.64011621       9.48118889      -0.00221901       0.00313884       0.00384457
I        3.29767017       4.64011639       5.71173230      -0.00221839       0.00313686      -0.00384289
I        5.47396702       1.56236797       9.48118899       0.00221864      -0.00313874       0.00384411
