9
Lattice="4.592998258272322 -1.0810783385232273e-07 2.651768704315325 1.5309993499933159 4.330320145366787 2.6517686480336207 -7.568159044033855e-08 -1.2244569685888034e-07 5.303537539715031" Properties=species:S:1:pos:R:3:forces:R:3 energy=-38.751914978027344 free_energy=-38.751914978027344 stress="4.152883047936484e-05 -5.386480594893328e-08 -2.300703449975572e-08 -5.386480594893328e-08 4.1556184442015365e-05 3.5806216658329504e-08 -2.300703449975572e-08 3.5806216658329504e-08 4.159898162470199e-05" pbc="T T T"
Se       1.53099942       1.08258001       2.65176874       0.00000046      -0.00000069      -0.00000085
Se       4.59299824       3.24773995       7.95530601      -0.00000037       0.00000011       0.00000016
Mo       0.00000004      -0.00000003       0.00000011       0.00000590      -0.00000321       0.00000314
F        1.59607566       1.12859584       5.30353753       0.00054350       0.00038373       0.00000005
F        4.52792198       3.20172416       5.30353749      -0.00054729      -0.00038591       0.00000026
F        3.79496036       1.12859568       4.03401073      -0.00027104       0.00038380       0.00047036
F        2.32903711       3.20172422       6.57306406       0.00027155      -0.00038336      -0.00046724
F        2.32903715       3.20172412       4.03401069       0.00027069      -0.00038171       0.00046707
F        3.79496024       1.12859574       6.57306416      -0.00027330       0.00038728      -0.00047299
