9
Lattice="6.2255092755383705 2.8204957586587792e-08 3.5942993628365754 2.0751698026610135 5.869466174207558 3.5942993324280783 -5.506135589889384e-08 -7.61768630442962e-08 7.188598821042201" Properties=species:S:1:pos:R:3:forces:R:3 energy=-24.827104568481445 free_energy=-24.827104568481445 stress="-0.00022551037545781583 -8.070609069932289e-09 4.779177942282331e-09 -8.070609069932289e-09 -0.0002255445724586025 -1.9086761060549406e-09 4.779177942282331e-09 -1.9086761060549406e-09 -0.00022552491282112896" pbc="T T T"
Se       2.07517007       1.46736547       3.59429943       0.00000041      -0.00000195      -0.00000053
Se       6.22550936       4.40209991      10.78289723      -0.00000032       0.00000007      -0.00000108
Mn       0.00000013       0.00000047      -0.00000015      -0.00000057      -0.00000347       0.00000189
Br       1.95540351       1.38267931       7.18859900       0.00315180       0.00222856       0.00000028
Br       6.34527499       4.48678674       7.18859882      -0.00314973      -0.00222632       0.00000133
Br       5.24780719       1.38267933       5.28772845      -0.00157589       0.00222700       0.00272993
Br       3.05287144       4.48678739       9.08946941       0.00157653      -0.00222803      -0.00272955
Br       3.05287183       4.48678703       5.28772856       0.00157434      -0.00222572       0.00272848
Br       5.24780756       1.38267883       9.08946930      -0.00157672       0.00222989      -0.00273098
