9
Lattice="5.964849911521568 -7.394611988961134e-07 3.4438076695073154 1.988282715100722 5.6237151738651034 3.443807481699484 -3.0049327556748347e-07 -4.424974008446846e-07 6.887615859484199" Properties=species:S:1:pos:R:3:forces:R:3 energy=-29.43800163269043 free_energy=-29.43800163269043 stress="-0.00022670468024443835 7.978206895131734e-08 6.379620032248567e-08 7.978206895131734e-08 -0.00022652535699307919 5.926429125224786e-08 6.379620032248567e-08 5.926429125224786e-08 -0.00022675881336908787" pbc="T T T"
Se       1.98828120       1.40593008       3.44380475      -0.00000456       0.00000585      -0.00000524
Se       5.96484870       4.21778490      10.33142539       0.00000031      -0.00000229       0.00000530
Mo       0.00000022      -0.00000002      -0.00000025       0.00000398      -0.00000346       0.00000383
Cl       1.90611460       1.34782619       6.88761546       0.00699502       0.00494507       0.00000114
Cl       6.04701818       4.27588752       6.88761447      -0.00699630      -0.00494576      -0.00000184
Cl       5.01179330       1.34782519       5.09455226      -0.00349782       0.00494644       0.00606239
Cl       2.94133915       4.27588609       8.68068045       0.00349571      -0.00494385      -0.00606033
Cl       2.94134078       4.27588889       5.09455053       0.00350048      -0.00494957       0.00605834
Cl       5.01179312       1.34782700       8.68068111      -0.00349696       0.00494762      -0.00606352
