9
Lattice="6.46751032921696 -1.5309981143740373e-07 3.734018950798046 2.155836669926674 6.097627269113952 3.734018885214124 4.784373401869984e-08 -4.649291201948524e-08 7.468037818728313" Properties=species:S:1:pos:R:3:forces:R:3 energy=-22.889732360839844 free_energy=-22.889732360839844 stress="-1.7471276805736125e-05 -1.1003542965681845e-08 -9.22634058042604e-09 -1.1003542965681845e-08 -1.7462618416175246e-05 -1.233362567631957e-08 -9.22634058042604e-09 -1.233362567631957e-08 -1.7452593965572305e-05" pbc="T T T"
Se       2.15583697       1.52440717       3.73401836       0.00000009       0.00000075      -0.00000088
Se       6.46751030       4.57322009      11.20205723       0.00000021      -0.00000034       0.00000084
Mn      -0.00000006      -0.00000009       0.00000034       0.00000217       0.00000070      -0.00000523
I        2.06637938       1.46115094       7.46803803       0.00297409       0.00210285       0.00000055
I        6.55696756       4.63647611       7.46803784      -0.00297531      -0.00210384      -0.00000048
I        5.43432035       1.46115101       5.52355594      -0.00148703       0.00210308       0.00257678
I        3.18902665       4.63647601       9.41251945       0.00148501      -0.00210105      -0.00257365
I        3.18902660       4.63647604       5.52355596       0.00148675      -0.00210278       0.00257571
I        5.43432034       1.46115107       9.41251951      -0.00148585       0.00210072      -0.00257362
