9
Lattice="6.577053418572498 4.656208676330002e-08 3.7972635238851162 2.1923511546341006 6.200905361051124 3.7972635737494875 -6.4777828511434966e-09 5.6490643148510884e-08 7.594527058990065" Properties=species:S:1:pos:R:3:forces:R:3 energy=-24.147871017456055 free_energy=-24.147871017456055 stress="4.9595248128753155e-05 7.798321099983241e-09 -8.057269518246812e-09 7.798321099983241e-09 4.9598962505115196e-05 1.3480224048123546e-08 -8.057269518246812e-09 1.3480224048123546e-08 4.958707722835243e-05" pbc="T T T"
Se       2.19235145       1.55022685       3.79726341       0.00000107      -0.00000244       0.00000011
Se       6.57705320       4.65067860      11.39179115      -0.00000083       0.00000240       0.00000107
Mo      -0.00000003       0.00000006      -0.00000000       0.00000047       0.00000035      -0.00000001
I        2.20878301       1.56184548       7.59452712       0.00021037       0.00014873      -0.00000002
I        6.56062183       4.63906011       7.59452700      -0.00021145      -0.00014932      -0.00000076
I        5.47266202       1.56184547       5.71012540      -0.00010551       0.00014973       0.00018251
I        3.29674253       4.63905988       9.47892855       0.00010588      -0.00014928      -0.00018308
I        3.29674244       4.63905992       5.71012543       0.00010578      -0.00014983       0.00018233
I        5.47266181       1.56184550       9.47892858      -0.00010587       0.00014971      -0.00018223
