9
Lattice="4.463852069230004 -4.925477388569758e-08 2.577206171251072 1.487950644698614 4.208559955579248 2.577206168838115 -2.791799616426745e-08 -2.2696263791011993e-08 5.154412390857542" Properties=species:S:1:pos:R:3:forces:R:3 energy=-36.60907745361328 free_energy=-36.60907745361328 stress="0.0003824853338301182 -3.0444379461869175e-08 2.2099738927749968e-08 -3.0444379461869175e-08 0.00038254616083577275 -1.2066367460761285e-08 2.2099738927749968e-08 -1.2066367460761285e-08 0.0003824966261163354" pbc="T T T"
Se       1.48795075       1.05213997       2.57720629      -0.00000015      -0.00000025       0.00000021
Se       4.46385201       3.15641998       7.73161839       0.00000087       0.00000039      -0.00000010
Mn      -0.00000000      -0.00000006       0.00000004      -0.00000133      -0.00000133       0.00000272
F        1.49832988       1.05947918       5.15441232       0.00073035       0.00051572      -0.00000004
F        4.45347274       3.14908073       5.15441241      -0.00072689      -0.00051405       0.00000040
F        3.71468707       1.05947913       3.87479803      -0.00036548       0.00051571       0.00063144
F        2.23711560       3.14908070       6.43402677       0.00036482      -0.00051719      -0.00063238
F        2.23711554       3.14908067       3.87479804       0.00036323      -0.00051470       0.00062928
F        3.71468719       1.05947918       6.43402668      -0.00036554       0.00051575      -0.00063156
