9
Lattice="5.96492736725593 -5.599202575526236e-08 3.4438524891542066 1.988309117063439 5.623788642460233 3.4438524069950245 3.124657289685076e-07 1.203226598192374e-07 6.887704437101905" Properties=species:S:1:pos:R:3:forces:R:3 energy=-29.43800163269043 free_energy=-29.43800163269043 stress="-0.00022928192629478872 5.493198429462609e-08 4.9744148356012374e-08 5.493198429462609e-08 -0.00022921802883502096 9.337924211649806e-09 4.9744148356012374e-08 9.337924211649806e-09 -0.00022944888041820377" pbc="T T T"
Se       1.98830963       1.40594770       3.44385232       0.00000108       0.00000569      -0.00000055
Se       5.96492469       4.21784225      10.33155682      -0.00000489       0.00000317      -0.00000168
Mo       0.00000018      -0.00000032       0.00000031       0.00000345       0.00000093      -0.00000009
Cl       1.90610173       1.34781735       6.88770431       0.00713906       0.00504200       0.00000232
Cl       6.04713609       4.27597046       6.88770431      -0.00713620      -0.00504263       0.00000176
Cl       5.01187684       1.34781747       5.09458455      -0.00357246       0.00504634       0.00618410
Cl       2.94136018       4.27597081       8.68082496       0.00357112      -0.00505142      -0.00618920
Cl       2.94136096       4.27597088       5.09458452       0.00356665      -0.00504817       0.00618371
Cl       5.01187680       1.34781820       8.68082522      -0.00356773       0.00504401      -0.00618076
