9
Lattice="6.347251035294949 1.4373147753940947e-07 3.664587262445971 2.11575047568383 5.984246035033646 3.6645872709777567 8.765186922949819e-08 7.242848922195685e-08 7.329174373074468" Properties=species:S:1:pos:R:3:forces:R:3 energy=-26.144084930419922 free_energy=-26.144084930419922 stress="-0.00010659713734639809 -3.786558622209668e-08 4.481048865301318e-09 -3.786558622209668e-08 -0.00010658080282155424 1.8859232397971937e-08 4.481048865301318e-09 1.8859232397971937e-08 -0.00010654372454155236" pbc="T T T"
Se       2.11575001       1.49606231       3.66458640      -0.00000043       0.00000093      -0.00000136
Se       6.34725123       4.48818613      10.99376161       0.00000087       0.00000426       0.00000013
Mo      -0.00000001      -0.00000051       0.00000036       0.00000202       0.00000169      -0.00000244
Br       2.03375806       1.43808409       7.32917450       0.00147600       0.00104196       0.00000034
Br       6.42924358       4.54616189       7.32917458      -0.00147890      -0.00104605       0.00000015
Br       5.33037210       1.43808403       5.42587360      -0.00073735       0.00104228       0.00127779
Br       3.13262970       4.54616155       9.23247571       0.00073664      -0.00104249      -0.00127642
Br       3.13262969       4.54616169       5.42587340       0.00073884      -0.00104417       0.00127885
Br       5.33037206       1.43808376       9.23247550      -0.00073763       0.00104170      -0.00127707
