9
Lattice="5.764598199684469 -4.077090305962015e-08 3.3281921467171505 1.921532790531405 5.434915394071545 3.3281919808864813 1.0144123721629366e-07 -1.3137050258451402e-07 6.656384117732879" Properties=species:S:1:pos:R:3:forces:R:3 energy=-27.72225570678711 free_energy=-27.72225570678711 stress="0.00028029343229718506 -1.1030766522424074e-08 7.577003202641208e-08 -1.1030766522424074e-08 0.0002804484392981976 -3.709735096890654e-08 7.577003202641208e-08 -3.709735096890654e-08 0.0002803468087222427" pbc="T T T"
Se       1.92153236       1.35872955       3.32819119       0.00000114       0.00000287      -0.00000133
Se       5.76459858       4.07618632       9.98457675       0.00000019       0.00000019      -0.00000018
Mn       0.00000076      -0.00000019       0.00000028      -0.00000766      -0.00000020      -0.00000336
Cl       1.85231598       1.30978476       6.65638395      -0.00083004      -0.00058620       0.00000091
Cl       5.83381496       4.12513016       6.65638376       0.00083326       0.00058874       0.00000294
Cl       4.83844041       1.30978511       4.93234515       0.00041374      -0.00058982      -0.00072395
Cl       2.84769111       4.12513005       8.38042376      -0.00042014       0.00058795       0.00072371
Cl       2.84769041       4.12513002       4.93234468      -0.00041223       0.00058876      -0.00072277
Cl       4.83843980       1.30978512       8.38042344       0.00042189      -0.00059222       0.00072371
