9
Lattice="5.605533112837336 -0.04531382789818658 4.082937771291923 1.354767496524956 4.930719048014227 4.1193199424186275 1.0266927158360148 1.2041154461090704 6.474712001357103" Properties=species:S:1:pos:R:3:forces:R:3 energy=-49.31753158569336 free_energy=-49.31753158569336 stress="-0.0049087172374129295 0.0003158256586175412 0.0012599609326571226 0.0003158256586175412 -0.0028157676570117474 0.0009374862420372665 0.0012599609326571226 0.0009374862420372665 -0.002532137557864189" pbc="T T T"
Se       1.10539461       2.30988194       3.19667865       0.00482493       0.00356834       0.00666504
Se       5.12831066       4.39320860       8.94911136       0.00356625      -0.02124381       0.00169137
N        1.09787014       0.11997919       1.45764366      -0.02900166      -0.03349309       0.04326174
O        3.29586498       1.37893103       8.23000043       0.01197181       0.00835326      -0.00898872
O        5.35283890       3.33977323       7.32697360      -0.00913193      -0.01509179       0.01411802
O        5.82020135       0.98754256       6.03578061      -0.01150922      -0.00337532      -0.00113603
O        3.10206188       4.33588337       8.54005415       0.00216106       0.00591433       0.00142536
O        1.91403599       4.20098708       4.82957121       0.01099893       0.03847750      -0.04002136
O        5.13135489       3.29190212      10.14207635       0.01612004       0.01689097      -0.01701546
