9
Lattice="6.551722751972278 2.729771368442852e-07 3.782639608371982 2.1839078893738755 6.177023238572715 3.7826395252027396 5.223996484517052e-07 2.675312507183272e-07 7.5652783119212215" Properties=species:S:1:pos:R:3:forces:R:3 energy=-27.193815231323242 free_energy=-27.193815231323242 stress="-0.00022604921832680702 6.127684581969106e-09 1.3240291529825754e-08 6.127684581969106e-09 -0.00022605588310398161 -3.3804315791030604e-08 1.3240291529825754e-08 -3.3804315791030604e-08 -0.00022606347920373082" pbc="T T T"
Se       2.18390653       1.54425587       3.78263850      -0.00000088       0.00000109      -0.00000124
Se       6.55172415       4.63276742      11.34791836       0.00000015      -0.00000111       0.00000134
Nb       0.00000007       0.00000030       0.00000038       0.00000237      -0.00000139       0.00000006
Br       2.06012655       1.45672935       7.56527829       0.00409298       0.00289486       0.00000058
Br       6.67550494       4.72029454       7.56527892      -0.00409532      -0.00289613      -0.00000051
Br       5.52165992       1.45672931       5.56676166      -0.00204512       0.00289488       0.00354497
Br       3.21397133       4.72029449       9.56379630       0.00204570      -0.00289354      -0.00354426
Br       3.21397103       4.72029402       5.56676106       0.00204661      -0.00289321       0.00354430
Br       5.52166020       1.45672983       9.56379644      -0.00204659       0.00289463      -0.00354508
