9
Lattice="5.6078684169449025 -1.0785379227619258e-07 3.237704421588338 1.8692894039814045 5.287148944424547 3.237704363820939 2.6214401827667565e-08 -5.221395983625621e-08 6.475408797771989" Properties=species:S:1:pos:R:3:forces:R:3 energy=-19.425926208496094 free_energy=-19.425926208496094 stress="8.105333836283535e-05 5.283409709733178e-09 -2.3150724004494805e-08 5.283409709733178e-09 8.113557851174846e-05 2.022571798931949e-08 -2.3150724004494805e-08 2.022571798931949e-08 8.106970926746726e-05" pbc="T T T"
Se       1.86928968       1.32178712       3.23770422      -0.00000029       0.00000058      -0.00000200
Se       5.60786879       3.96536153       9.71311337       0.00000178      -0.00000201       0.00000035
N        0.00000029       0.00000017      -0.00000219       0.00000216       0.00000188      -0.00001410
Cl       1.77941544       1.25823674       6.47540900       0.00034726       0.00024416       0.00000000
Cl       5.69774190       4.02891192       6.47540889      -0.00034872      -0.00024621       0.00000020
Cl       4.71816032       1.25823723       4.77872411      -0.00017544       0.00024877       0.00030367
Cl       2.75899704       4.02891220       8.17209442       0.00017012      -0.00024253      -0.00029558
Cl       2.75899736       4.02891171       4.77872427       0.00017536      -0.00024684       0.00030473
Cl       4.71816066       1.25823652       8.17209429      -0.00017189       0.00024210      -0.00029710
