9
Lattice="7.70181674096752 1.275303508533086e-06 4.446645783921964 2.5672734767922076 7.261342652714292 4.446645736402441 -1.4930518437112696e-07 -1.637738540887233e-07 8.89329182644793" Properties=species:S:1:pos:R:3:forces:R:3 energy=-30.908445358276367 free_energy=-30.908445358276367 stress="-3.2599069527350366e-05 -5.616537990249526e-08 7.898295351083107e-09 -5.616537990249526e-08 -3.257100615883246e-05 3.474112375556615e-08 7.898295351083107e-09 3.474112375556615e-08 -3.254955663578585e-05" pbc="T T T"
Se       2.56727825       1.81533960       4.44664971       0.00000266      -0.00000049       0.00000097
Se       7.70181619       5.44601002      13.33994839       0.00000041       0.00000043       0.00000446
Nb      -0.00000048      -0.00000056      -0.00000155       0.00000060       0.00000702       0.00000806
Cl       1.93095891       1.36539216       8.89329226      -0.00066090      -0.00046745      -0.00000225
Cl       8.33813122       5.89594954       8.89329095       0.00065565       0.00046477       0.00000039
Cl       6.73633435       1.36539782       6.11890158       0.00033683      -0.00047854      -0.00058264
Cl       3.53274989       5.89594741      11.66767459      -0.00032988       0.00046885       0.00057420
Cl       3.53275377       5.89594598       6.11890228      -0.00033548       0.00047278      -0.00057667
Cl       6.73633797       1.36539315      11.66767446       0.00033042      -0.00046715       0.00057352
