9
Lattice="5.692159467848707 -1.0466100757490048e-08 3.2863697809109222 1.8973865077696108 5.366619050369421 3.286369731799911 9.794106526934682e-08 9.106342085720532e-09 6.572739392182925" Properties=species:S:1:pos:R:3:forces:R:3 energy=-22.081226348876953 free_energy=-22.081226348876953 stress="0.00018527258362155408 -4.331754865916082e-08 1.2707551455548582e-08 -4.331754865916082e-08 0.000185370008694008 2.4612615945329708e-08 1.2707551455548582e-08 2.4612615945329708e-08 0.00018538584117777646" pbc="T T T"
Se       1.89738580       1.34165463       3.28636946      -0.00000679      -0.00000149      -0.00000310
Se       5.69215950       4.02496456       9.85910966       0.00000044       0.00000007       0.00000126
Ni       0.00000013      -0.00000016       0.00000010      -0.00000288      -0.00000059      -0.00000108
Cl       1.84910793       1.30751672       6.57273947       0.00162470       0.00114901      -0.00000213
Cl       5.74043818       4.05910263       6.57273922      -0.00162050      -0.00114515      -0.00000219
Cl       4.76760585       1.30751613       4.88774390      -0.00081064       0.00114478       0.00140548
Cl       2.82194034       4.05910280       8.25773491       0.00081220      -0.00114594      -0.00140134
Cl       2.82194046       4.05910291       4.88774379       0.00081198      -0.00114760       0.00140217
Cl       4.76760612       1.30751597       8.25773508      -0.00080845       0.00114679      -0.00139937
