9
Lattice="4.706362667838708 -1.4523390824494366e-07 2.717219659023845 1.5687874541967586 4.437201391621763 2.717219598093136 1.1170034818362677e-07 4.359505628090781e-09 5.434439124577015" Properties=species:S:1:pos:R:3:forces:R:3 energy=-27.328269958496094 free_energy=-27.328269958496094 stress="0.00040073509444482625 1.9348469493252196e-09 -1.7289849552071246e-08 1.9348469493252196e-09 0.00040060238097794354 -1.1565435720228834e-08 -1.7289849552071246e-08 -1.1565435720228834e-08 0.00040068267844617367" pbc="T T T"
Se       1.56878698       1.10930012       2.71721879      -0.00000027       0.00000285      -0.00000691
Se       4.70636351       3.32790272       8.15165710       0.00000135       0.00000708      -0.00000944
N        0.00000008      -0.00000022       0.00000028       0.00000174      -0.00000188      -0.00000117
F        1.40285029       0.99196388       5.43443951      -0.00374058      -0.00264722       0.00000331
F        4.87229940       3.44523644       5.43443968       0.00374445       0.00264728       0.00000573
F        4.00493799       0.99196466       3.93212415       0.00187288      -0.00265118      -0.00323859
F        2.27021248       3.44523634       6.93675518      -0.00187290       0.00264251       0.00324464
F        2.27021231       3.44523629       3.93212349      -0.00187650       0.00264519      -0.00324160
F        4.00493787       0.99196485       6.93675503       0.00186969      -0.00264490       0.00324464
