9
Lattice="6.0990119249315855 1.3113806657706984e-08 3.5212662421429246 2.033003983230217 5.750203597138846 3.521266249263019 -2.2693266769307367e-08 -7.326253341733699e-09 7.042532523591738" Properties=species:S:1:pos:R:3:forces:R:3 energy=-19.932764053344727 free_energy=-19.932764053344727 stress="0.0002923731808550656 1.1712685044074078e-08 -1.8294751269465337e-09 1.1712685044074078e-08 0.00029235027614049613 4.911566264809153e-09 -1.8294751269465337e-09 4.911566264809153e-09 0.0002923667780123651" pbc="T T T"
Se       2.03300426       1.43755099       3.52126615       0.00000094       0.00000064      -0.00000002
Se       6.09901191       4.31265306      10.56379901      -0.00000017       0.00000069       0.00000045
Ni       0.00000013      -0.00000023       0.00000004      -0.00000133      -0.00000017      -0.00000088
Br       1.96887741       1.39220641       7.04253255       0.00259972       0.00183868       0.00000001
Br       6.16313835       4.35799707       7.04253248      -0.00259897      -0.00183871      -0.00000017
Br       5.11457310       1.39220636       5.22636415      -0.00130051       0.00183916       0.00225139
Br       3.01744269       4.35799713       8.85870084       0.00129934      -0.00183870      -0.00225103
Br       3.01744260       4.35799712       5.22636402       0.00130041      -0.00183995       0.00225127
Br       5.11457308       1.39220649       8.85870081      -0.00129962       0.00183842      -0.00225097
