9
Lattice="4.437418567439269 4.506455317457883e-08 2.561944829252765 1.4791395665572076 4.183638380570489 2.5619448264984945 2.0045603376035422e-08 1.0801090288937226e-08 5.123889623785521" Properties=species:S:1:pos:R:3:forces:R:3 energy=-29.87036895751953 free_energy=-29.87036895751953 stress="0.00017407388077117503 1.0042244369401487e-08 -5.502275524094102e-09 1.0042244369401487e-08 0.00017406523693352938 -6.573831701217614e-09 -5.502275524094102e-09 -6.573831701217614e-09 0.00017404617392458022" pbc="T T T"
Se       1.47913932       1.04590992       2.56194505      -0.00000167       0.00000206      -0.00000004
Se       4.43741865       3.13772895       7.68583421      -0.00000102       0.00000014      -0.00000111
Ni       0.00000007      -0.00000001      -0.00000003      -0.00000018      -0.00000461       0.00001009
F        1.47079327       1.04000787       5.12388957       0.00222239       0.00157052      -0.00000007
F        4.44576489       3.14363048       5.12388969      -0.00221990      -0.00157107      -0.00000008
F        3.70202202       1.04000784       3.83568915      -0.00111037       0.00157182       0.00192539
F        2.21453613       3.14363047       6.41209013       0.00111280      -0.00157432      -0.00192687
F        2.21453623       3.14363048       3.83568927       0.00111116      -0.00156868       0.00192177
F        3.70202203       1.04000774       6.41209009      -0.00111307       0.00157399      -0.00192936
