9
Lattice="6.337806114044722 2.902429247428047e-08 3.659134071330238 2.1126020600293627 5.975340900983175 3.6591340805965658 -7.317931638802506e-09 6.174336439077171e-09 7.318268155335506" Properties=species:S:1:pos:R:3:forces:R:3 energy=-18.65359878540039 free_energy=-18.65359878540039 stress="-6.836713146185502e-05 4.0070480267218045e-09 2.73159339592155e-09 4.0070480267218045e-09 -6.837047840235755e-05 -6.628309012768341e-09 2.73159339592155e-09 -6.628309012768341e-09 -6.837441469542682e-05" pbc="T T T"
Se       2.11260206       1.49383516       3.65913413      -0.00000040      -0.00000002       0.00000022
Se       6.33780608       4.48150578      10.97740222       0.00000056       0.00000028       0.00000018
Ni       0.00000006      -0.00000003      -0.00000005       0.00000011       0.00000017      -0.00000044
I        2.13847058       1.51212708       7.31826811      -0.00694846      -0.00491303      -0.00000013
I        6.31193750       4.46321379       7.31826813       0.00694969       0.00491370      -0.00000042
I        5.26857083       1.51212713       5.51110404       0.00347375      -0.00491293      -0.00601807
I        3.18183737       4.46321387       9.12543230      -0.00347501       0.00491279       0.00601833
I        3.18183734       4.46321380       5.51110407      -0.00347447       0.00491266      -0.00601831
I        5.26857086       1.51212715       9.12543229       0.00347426      -0.00491372       0.00601867
