9
Lattice="6.020035036400053 7.632563472189791e-08 3.4756689517148103 2.006678434495976 5.67574320347994 3.475668922150706 2.8910864416303915e-08 -1.576536461866383e-08 6.951337853354621" Properties=species:S:1:pos:R:3:forces:R:3 energy=-27.903579711914062 free_energy=-27.903579711914062 stress="-8.091108611552045e-05 -4.3639431623887504e-08 2.318547842605767e-08 -4.3639431623887504e-08 -8.090730261756107e-05 -1.1999857774114275e-09 2.318547842605767e-08 -1.1999857774114275e-09 -8.089528273558244e-05" pbc="T T T"
Se       2.00667849       1.41893701       3.47566971      -0.00000026       0.00000050      -0.00000162
Se       6.02003438       4.25680684      10.42700577      -0.00000003      -0.00000026      -0.00000054
Os       0.00000009      -0.00000008       0.00000005       0.00000178      -0.00000194      -0.00000110
Cl       1.86673600       1.31998201       6.95133731       0.00304031       0.00214970      -0.00000026
Cl       6.15997752       4.35576112       6.95133759      -0.00303930      -0.00215089       0.00000081
Cl       5.08666710       1.31998156       5.09230999      -0.00151968       0.00214833       0.00263160
Cl       2.94004696       4.35576124       8.81036594       0.00151759      -0.00214714      -0.00262761
Cl       2.94004676       4.35576128       5.09231056       0.00151706      -0.00214601       0.00262797
Cl       5.08666681       1.31998200       8.81036611      -0.00151715       0.00214744      -0.00262892
