9
Lattice="6.452665565610857 -1.1975830219413538e-08 3.7254481194013156 2.1508885428411864 6.083631443421207 3.725448063522192 3.386214775043674e-08 -4.449352179858038e-08 7.450896180151666" Properties=species:S:1:pos:R:3:forces:R:3 energy=-23.394235610961914 free_energy=-23.394235610961914 stress="0.00010350636148359627 8.888442870613744e-09 -7.602710822007808e-11 8.888442870613744e-09 0.0001034839078783989 3.0854856447604107e-09 -7.602710822007808e-11 3.0854856447604107e-09 0.0001034764718497172" pbc="T T T"
Se       2.15088856       1.52090805       3.72544815       0.00000035       0.00000007       0.00000033
Se       6.45266552       4.56272345      11.17634437      -0.00000071       0.00000018      -0.00000137
Os      -0.00000009      -0.00000002      -0.00000027       0.00000091      -0.00000067       0.00000321
I        2.17560615       1.53838574       7.45089624      -0.00235799      -0.00166731      -0.00000001
I        6.42794796       4.54524557       7.45089622       0.00235726       0.00166662       0.00000077
I        5.36486251       1.53838579       5.60957822       0.00117910      -0.00166702      -0.00204125
I        3.23869156       4.54524578       9.29221417      -0.00117774       0.00166573       0.00204085
I        3.23869171       4.54524551       5.60957824      -0.00117934       0.00166817      -0.00204210
I        5.36486266       1.53838566       9.29221411       0.00117815      -0.00166574       0.00203949
