9
Lattice="6.280975787078881 5.153990253396047e-08 3.626323152274458 2.0936586440031837 5.921760993806209 3.626323152762971 2.7827236399101395e-08 2.0275143863340992e-08 7.252646256350717" Properties=species:S:1:pos:R:3:forces:R:3 energy=-25.0875186920166 free_energy=-25.0875186920166 stress="0.0002269669494125992 1.2862064302510134e-08 -9.480277674001059e-10 1.2862064302510134e-08 0.00022695816005580127 1.0899444902179312e-08 -9.480277674001059e-10 1.0899444902179312e-08 0.00022695935331285" pbc="T T T"
Se       2.09365866       1.48043989       3.62632306      -0.00000080      -0.00000045      -0.00000106
Se       6.28097582       4.44132085      10.87896939       0.00000037      -0.00000021       0.00000048
Os      -0.00000006      -0.00000005      -0.00000023       0.00000008       0.00000010       0.00000052
Br       2.01308829       1.42346822       7.25264634      -0.00045320      -0.00031976      -0.00000037
Br       6.36154632       4.49829288       7.25264633       0.00045279       0.00032011       0.00000003
Br       5.27443150       1.42346844       5.36970864       0.00022659      -0.00031990      -0.00039196
Br       3.10020279       4.49829286       9.13558397      -0.00022615       0.00031956       0.00039181
Br       3.10020276       4.49829282       5.36970869      -0.00022605       0.00031973      -0.00039127
Br       5.27443175       1.42346838       9.13558394       0.00022647      -0.00031915       0.00039172
