9
Lattice="4.751243395673788 4.7043533036931934e-08 2.7431315170975616 1.5837478136235799 4.479515494778756 2.7431315678248738 -2.7713934275682878e-08 4.253130112016478e-08 5.486263082197072" Properties=species:S:1:pos:R:3:forces:R:3 energy=-38.41204071044922 free_energy=-38.41204071044922 stress="-0.00022217819059733301 -2.611903049398734e-08 3.6732370478631537e-09 -2.611903049398734e-08 -0.00022220144455786794 3.1225592778127975e-08 3.6732370478631537e-09 3.1225592778127975e-08 -0.0002221322210971266" pbc="T T T"
Se       1.58374789       1.11987884       2.74313135      -0.00000001       0.00000017       0.00000011
Se       4.75124352       3.35963711       8.22939460      -0.00000022      -0.00000016      -0.00000023
Os      -0.00000018      -0.00000005       0.00000019       0.00000025      -0.00000289      -0.00000068
F        1.56405215       1.10595205       5.48626315       0.00194526       0.00137493      -0.00000110
F        4.77093889       3.37356345       5.48626314      -0.00194343      -0.00137500      -0.00000039
F        3.96921721       1.10595198       4.09764046      -0.00097207       0.00137496       0.00168324
F        2.36577399       3.37356341       6.87488562       0.00097033      -0.00137267      -0.00168081
F        2.36577385       3.37356329       4.09764045       0.00097214      -0.00137461       0.00168319
F        3.96921738       1.10595214       6.87488569      -0.00097236       0.00137515      -0.00168334
