9
Lattice="6.42361125309722 2.544245468719992e-08 3.7086736598739813 2.141203761688866 6.056238776275617 3.7086736829638083 -5.6634578771367125e-09 2.4274476423411623e-08 7.417347329557358" Properties=species:S:1:pos:R:3:forces:R:3 energy=-19.93755531311035 free_energy=-19.93755531311035 stress="5.0938677304657176e-05 3.284368554901107e-09 -1.4498183209532556e-10 3.284368554901107e-09 5.092622814117931e-05 -3.6748373233308484e-09 -1.4498183209532556e-10 -3.6748373233308484e-09 5.09246347064618e-05" pbc="T T T"
Se       2.14120375       1.51405967       3.70867370       0.00000030      -0.00000037       0.00000087
Se       6.42361127       4.54217912      11.12602103      -0.00000041       0.00000003      -0.00000045
Pt      -0.00000016      -0.00000012      -0.00000031       0.00000036       0.00000061      -0.00000007
I        2.16690791       1.53223525       7.41734734       0.00187144       0.00132319      -0.00000001
I        6.39790729       4.52400369       7.41734731      -0.00187264      -0.00132339       0.00000028
I        5.34015732       1.53223530       5.58527089      -0.00093621       0.00132374       0.00162149
I        3.22465758       4.52400369       9.24942395       0.00093710      -0.00132442      -0.00162204
I        3.22465769       4.52400355       5.58527089       0.00093658      -0.00132371       0.00162156
I        5.34015740       1.53223515       9.24942390      -0.00093655       0.00132430      -0.00162165
