9
Lattice="6.184080724584472 1.3165034589948937e-08 3.570380793496977 2.0613602317977597 5.830407347756048 3.5703808318489445 4.204277378252156e-08 7.670008735587695e-08 7.14076151417375" Properties=species:S:1:pos:R:3:forces:R:3 energy=-19.935495376586914 free_energy=-19.935495376586914 stress="0.0002350898867007345 -1.465164611857972e-08 -6.094261095768161e-09 -1.465164611857972e-08 0.00023509176389779896 8.813615615110848e-09 -6.094261095768161e-09 8.813615615110848e-09 0.00023507841979153454" pbc="T T T"
Se       2.06136051       1.45760190       3.57038062       0.00000077      -0.00000050      -0.00000004
Se       6.18408077       4.37280562      10.71114244       0.00000006       0.00000135       0.00000033
Pd      -0.00000014       0.00000003       0.00000007       0.00000419      -0.00000064       0.00000185
Br       2.04311669       1.44470175       7.14076146       0.00105984       0.00074894       0.00000012
Br       6.20232432       4.38570574       7.14076161      -0.00106337      -0.00075178       0.00000026
Br       5.16252226       1.44470180       5.33977188      -0.00052981       0.00074920       0.00091831
Br       3.08291857       4.38570564       8.94175130       0.00052969      -0.00074930      -0.00091764
Br       3.08291855       4.38570556       5.33977188       0.00052974      -0.00074907       0.00091755
Br       5.16252245       1.44470171       8.94175128      -0.00053106       0.00075180      -0.00092074
