9
Lattice="5.262641697909754 2.831211146517579e-07 3.0383872019121587 1.7542142008651225 4.961665549985161 3.0383871419264636 9.359194977552982e-07 5.883278292619989e-07 6.076772782764205" Properties=species:S:1:pos:R:3:forces:R:3 energy=-36.627349853515625 free_energy=-36.627349853515625 stress="0.00011754357547033578 -8.73679462110033e-10 1.721044213809364e-07 -8.73679462110033e-10 0.00011772182915592566 1.4319309116217482e-07 1.721044213809364e-07 1.4319309116217482e-07 0.00011757932952605188" pbc="T T T"
Se       1.75421327       1.24041731       3.03838680      -0.00000301       0.00000223      -0.00000420
Se       5.26264373       3.72125063       9.11516334       0.00000321      -0.00000027       0.00000581
P       -0.00000003      -0.00000003      -0.00000040      -0.00000440      -0.00000818       0.00000567
F        1.33723886       0.94557080       6.07677336      -0.00442421      -0.00313133      -0.00000772
F        5.67961797       4.01609480       6.07677286       0.00443125       0.00313962       0.00001039
F        4.59402270       0.94557113       4.19646931       0.00220954      -0.00314325      -0.00383914
F        2.42283399       4.01609500       7.95707695      -0.00220835       0.00313514       0.00383437
F        2.42283371       4.01609517       4.19646944      -0.00222158       0.00313485      -0.00383949
F        4.59402330       0.94557067       7.95707681       0.00221694      -0.00313044       0.00383449
