9
Lattice="6.168891204440082 5.5701435839236155e-08 3.56161103026195 2.056297131945979 5.816086432126134 3.5616110107183636 8.635574536061354e-08 3.712685272244026e-08 7.123221910951349" Properties=species:S:1:pos:R:3:forces:R:3 energy=-21.245136260986328 free_energy=-21.245136260986328 stress="0.00027747213607653975 2.0883434981300297e-09 -4.8240722527737034e-09 2.0883434981300297e-09 0.00027744134422391653 7.385882572208402e-09 -4.8240722527737034e-09 7.385882572208402e-09 0.0002774291206151247" pbc="T T T"
Se       2.05629726       1.45402201       3.56161092       0.00000006       0.00000035      -0.00000006
Se       6.16889133       4.36206471      10.68483279       0.00000007      -0.00000009      -0.00000068
Pt       0.00000004       0.00000005      -0.00000005      -0.00000060       0.00000321       0.00000472
Br       2.01799907       1.42694078       7.12322196       0.00063676       0.00045157       0.00000012
Br       6.20718926       4.38914565       7.12322200      -0.00063796      -0.00045264       0.00000064
Br       5.15989165       1.42694089       5.30924941      -0.00031753       0.00044958       0.00055162
Br       3.06529671       4.38914566       8.93719472       0.00031974      -0.00045381      -0.00055530
Br       3.06529659       4.38914564       5.30924931       0.00031839      -0.00045148       0.00055341
Br       5.15989182       1.42694072       8.93719476      -0.00031894       0.00045335      -0.00055456
