9
Lattice="5.261684097103467 -3.893820819939968e-08 3.0378350950363564 1.753894797139866 4.960763564713262 3.0378348615270907 5.693211298469252e-08 -2.457322821051914e-07 6.075670091463407" Properties=species:S:1:pos:R:3:forces:R:3 energy=-36.627349853515625 free_energy=-36.627349853515625 stress="-3.9096848922781646e-05 2.0117630228355665e-08 6.159628895829883e-08 2.0117630228355665e-08 -3.927056968677789e-05 -6.370071758965423e-08 6.159628895829883e-08 -6.370071758965423e-08 -3.92018846469e-05" pbc="T T T"
Se       1.75389504       1.24019113       3.03783572      -0.00000068      -0.00000075       0.00000263
Se       5.26168446       3.72057293       9.11350490       0.00000081       0.00000133      -0.00000058
P       -0.00000005      -0.00000026       0.00000033      -0.00000024       0.00000728      -0.00001722
F        1.33715636       0.94551139       6.07567002      -0.00140560      -0.00099248       0.00000180
F        5.67842263       4.01525179       6.07566965       0.00140548       0.00099164       0.00000043
F        4.59310632       0.94551176       4.19584627       0.00069785      -0.00098640      -0.00121129
F        2.42247269       4.01525112       7.95549388      -0.00070256       0.00098759       0.00121582
F        2.42247244       4.01525097       4.19584587      -0.00070041       0.00098866      -0.00121510
F        4.59310631       0.94551217       7.95549391       0.00070477      -0.00099671       0.00122321
