9
Lattice="6.290619417870488 -9.66350297733283e-08 3.631890626895449 2.0968730244284313 5.9308527113319895 3.6318906680375176 -4.5823751417600727e-08 1.7986239293708294e-08 7.263781333159984" Properties=species:S:1:pos:R:3:forces:R:3 energy=-19.010826110839844 free_energy=-19.010826110839844 stress="-0.00017877461505122483 -1.7497972848445897e-08 2.6876643133277867e-08 -1.7497972848445897e-08 -0.00017876224592328072 -2.626655870585637e-08 2.6876643133277867e-08 -2.626655870585637e-08 -0.00017879108781926334" pbc="T T T"
Se       2.09687335       1.48271297       3.63189127      -0.00000147      -0.00000088       0.00000175
Se       6.29061845       4.44813932      10.89567236       0.00000020       0.00000024       0.00000039
P       -0.00000050       0.00000064      -0.00000193      -0.00000081      -0.00000050      -0.00000167
Br       1.97487178       1.39644523       7.26378098      -0.00427970      -0.00302669       0.00000022
Br       6.41262129       4.53440771       7.26378092       0.00427902       0.00302535       0.00000013
Br       5.30318318       1.39644491       5.34217971       0.00213954      -0.00302505      -0.00370598
Br       3.08430889       4.53440763       9.18538344      -0.00213914       0.00302690       0.00370553
Br       3.08430966       4.53440734       5.34218004      -0.00213836       0.00302783      -0.00370631
Br       5.30318345       1.39644472       9.18538370       0.00214082      -0.00302699       0.00370580
