9
Lattice="6.419992416677307 -1.0431053401362371e-08 3.706584363542249 2.139997479856545 6.052826892550513 3.706584333291499 2.2526223550237838e-08 -2.1121014273805096e-08 7.413168688067978" Properties=species:S:1:pos:R:3:forces:R:3 energy=-18.88743019104004 free_energy=-18.88743019104004 stress="0.0002691707049962133 4.664061581394208e-09 -6.28183638440305e-09 4.664061581394208e-09 0.00026916805654764175 4.5520192060166664e-09 -6.28183638440305e-09 4.5520192060166664e-09 0.0002691582776606083" pbc="T T T"
Se       2.13999756       1.51320657       3.70658433      -0.00000011       0.00000056       0.00000111
Se       6.41999241       4.53962016      11.11975307       0.00000003      -0.00000092      -0.00000117
Pd       0.00000016       0.00000020      -0.00000016      -0.00000192      -0.00000124       0.00000159
I        2.18798947       1.54714220       7.41316861      -0.00712211      -0.00503561       0.00000042
I        6.37200010       4.50568449       7.41316869       0.00712468       0.00503807      -0.00000022
I        5.32599757       1.54714237       5.60143900       0.00356253      -0.00503794      -0.00617002
I        3.23399226       4.50568467       9.22489848      -0.00356181       0.00503634       0.00616883
I        3.23399246       4.50568446       5.60143903      -0.00356255       0.00503799      -0.00616983
I        5.32599769       1.54714234       9.22489848       0.00356127      -0.00503721       0.00616919
