9
Lattice="6.284286725006465 -5.586467062828112e-08 3.6282346085522885 2.094762105132154 5.9248824971577205 3.628234753814019 -9.794569929306823e-08 1.0865052288177703e-07 7.25646938675142" Properties=species:S:1:pos:R:3:forces:R:3 energy=-19.010414123535156 free_energy=-19.010414123535156 stress="-0.00024147142539732158 -9.11222297617087e-09 8.240190196850961e-10 -9.11222297617087e-09 -0.00024145744100678712 8.3435987008329e-09 8.240190196850961e-10 8.3435987008329e-09 -0.00024149499949999154" pbc="T T T"
Se       2.09476234       1.48122095       3.62823504       0.00000103       0.00000016      -0.00000022
Se       6.28428705       4.44366213      10.88470367      -0.00000055       0.00000082       0.00000012
P       -0.00000006       0.00000009       0.00000034       0.00000070       0.00000240      -0.00000090
Br       1.97789000       1.39857923       7.25646941      -0.00652143      -0.00461236      -0.00000003
Br       6.40115772       4.52630285       7.25646946       0.00652513       0.00461239       0.00000122
Br       5.29534128       1.39857965       5.34113761       0.00326066      -0.00461373      -0.00564724
Br       3.08370763       4.52630259       9.17180045      -0.00326279       0.00461173       0.00564939
Br       3.08370756       4.52630270       5.34113810      -0.00326343       0.00461128      -0.00564927
Br       5.29534140       1.39857994       9.17180110       0.00326073      -0.00461289       0.00564688
