9
Lattice="6.849982939788747 -2.506762652767131e-08 3.9548397136868108 2.2833276471791977 6.458225801954891 3.954839671741798 1.1044468346382825e-07 2.6724262469373573e-08 7.909679236077796" Properties=species:S:1:pos:R:3:forces:R:3 energy=-15.743110656738281 free_energy=-15.743110656738281 stress="0.00024776626378297806 -4.638674777623919e-09 3.3080966854726057e-09 -4.638674777623919e-09 0.0002477840753272176 -2.1818957307573328e-08 3.3080966854726057e-09 -2.1818957307573328e-08 0.00024776163627393544" pbc="T T T"
Se       2.28332747       1.61455629       3.95483913      -0.00000174       0.00000029      -0.00000287
Se       6.84998328       4.84366974      11.86451948       0.00000144       0.00000072       0.00000129
Pb      -0.00000004       0.00000004      -0.00000009       0.00000089      -0.00000054       0.00000031
I        2.53209862       1.79046416       7.90967933      -0.00130899      -0.00092664       0.00000102
I        6.60121181       4.66776139       7.90967930       0.00131007       0.00092658       0.00000003
I        5.58393365       1.79046402       6.14770145       0.00065427      -0.00092627      -0.00113310
I        3.54937708       4.66776180       9.67165719      -0.00065443       0.00092521       0.00113431
I        3.54937728       4.66776170       6.14770155      -0.00065522       0.00092712      -0.00113414
I        5.58393363       1.79046404       9.67165720       0.00065386      -0.00092646       0.00113304
