9
Lattice="6.49178420835551 -1.440254557259869e-06 3.748021521955607 2.1639243814803666 6.120496694434157 3.748025557788585 1.5341716222741355e-06 6.027682666744683e-06 7.49604038665399" Properties=species:S:1:pos:R:3:forces:R:3 energy=-22.759136199951172 free_energy=-22.759136199951172 stress="5.699901521438733e-05 -4.06053629831149e-07 -2.3165105744737957e-07 -4.06053629831149e-07 5.638477159664035e-05 1.8948254592032754e-06 -2.3165105744737957e-07 1.8948254592032754e-06 5.693296043318696e-05" pbc="T T T"
Se       2.16388617       1.53016267       3.74805760      -0.00000558       0.00000923       0.00001483
Se       6.49178059       4.59039587      11.24408921      -0.00000860       0.00000742       0.00000488
P        0.00000446      -0.00000877      -0.00000715       0.00008309      -0.00003387      -0.00009953
Cl       1.73287358       1.22525886       7.49602263      -0.00644839      -0.00443625      -0.00004580
Cl       6.92288941       4.89517568       7.49600582       0.00635159       0.00449985       0.00010258
Cl       5.62537361       1.22530543       5.24869071       0.00319844      -0.00456059      -0.00553316
Cl       3.03035498       4.89516915       9.74334568      -0.00328207       0.00467646       0.00572145
Cl       3.03033644       4.89523144       5.24872155      -0.00317180       0.00433666      -0.00553888
Cl       5.62534366       1.22531291       9.74341881       0.00328386      -0.00449914       0.00537413
