9
Lattice="5.910649383121232 6.961853598160399e-08 3.412515159570569 1.9702165719147253 5.5726139607455325 3.4125150812171836 1.208550677348503e-07 -1.0505478219063117e-08 6.825030109814063" Properties=species:S:1:pos:R:3:forces:R:3 energy=-21.627443313598633 free_energy=-21.627443313598633 stress="0.0003767042944673449 -3.975598517058643e-08 -2.0311507142878327e-08 -3.975598517058643e-08 0.00037673060433007777 -6.8416291298945e-08 -2.0311507142878327e-08 -6.8416291298945e-08 0.0003766437584999949" pbc="T T T"
Se       1.97021737       1.39315407       3.41251477       0.00000057      -0.00000210      -0.00000276
Se       5.91064874       4.17946144      10.23754538       0.00000212       0.00000099      -0.00000068
Pd       0.00000023       0.00000006       0.00000014      -0.00000199      -0.00000518       0.00000081
Cl       1.90185500       1.34481433       6.82503041       0.00194034       0.00137180      -0.00000026
Cl       5.97901091       4.22779885       6.82503048      -0.00193784      -0.00136909      -0.00000082
Cl       4.95972159       1.34481445       5.05956976      -0.00096984       0.00136951       0.00167909
Cl       2.92114441       4.22779923       8.59049020       0.00096685      -0.00136819      -0.00167236
Cl       2.92114416       4.22779908       5.05956994       0.00096659      -0.00136739       0.00167435
Cl       4.95972192       1.34481444       8.59049029      -0.00096689       0.00136954      -0.00167686
