9
Lattice="5.893633633004532 8.24153787819192e-08 3.4026909643752137 1.9645445553013057 5.556570691191985 3.4026910799644647 5.760030676703614e-08 1.822969459121521e-07 6.8053818289837595" Properties=species:S:1:pos:R:3:forces:R:3 energy=-23.244396209716797 free_energy=-23.244396209716797 stress="-7.4321756073914e-06 5.651719447996584e-08 -1.8118244682341356e-08 5.651719447996584e-08 -7.516481673519593e-06 1.3686144662017341e-08 -1.8118244682341356e-08 1.3686144662017341e-08 -7.535901659139199e-06" pbc="T T T"
Se       1.96454487       1.38914361       3.40269066       0.00000426       0.00000262      -0.00000065
Se       5.89363365       4.16742814      10.20807300       0.00000078       0.00000038      -0.00000314
Pt      -0.00000010      -0.00000002      -0.00000019      -0.00000430       0.00000630       0.00000490
Cl       1.87877235       1.32849219       6.80538257      -0.00000596      -0.00000331       0.00000134
Cl       5.97940597       4.22807822       6.80538221       0.00000387       0.00000064      -0.00000219
Cl       4.95424762       1.32849271       5.02975513       0.00000107      -0.00000054      -0.00000158
Cl       2.90393038       4.22807863       8.58100868       0.00000085      -0.00000332      -0.00000182
Cl       2.90393043       4.22807819       5.02975501      -0.00000127      -0.00000301       0.00000221
Cl       4.95424784       1.32849222       8.58100843       0.00000077       0.00000022       0.00000101
