9
Lattice="6.329384705804643 -9.899558849176896e-08 3.6542718485224044 2.1097948018751143 5.967400764462305 3.6542718601717437 -1.3328506524077546e-07 -7.997915270980276e-08 7.308543927901228" Properties=species:S:1:pos:R:3:forces:R:3 energy=-29.78737449645996 free_energy=-29.78737449645996 stress="-0.00011777457257267088 -1.0051672383326604e-08 -1.676677463535725e-08 -1.0051672383326604e-08 -0.00011770518904086202 2.295769085947086e-08 -1.676677463535725e-08 2.295769085947086e-08 -0.00011767326213885099" pbc="T T T"
Se       2.10979307       1.49185278       3.65426982      -0.00000280       0.00000397      -0.00000263
Se       6.32938467       4.47555086      10.96281426       0.00000085      -0.00000057      -0.00000044
Re       0.00000056      -0.00000037       0.00000080      -0.00000265       0.00000313      -0.00000478
Cl       1.85932764       1.31474275       7.30854484       0.00613898       0.00433934       0.00000108
Cl       6.57985257       4.65265695       7.30854481      -0.00613910      -0.00434130       0.00000166
Cl       5.39972094       1.31474290       5.26449760      -0.00306553       0.00433725       0.00531369
Cl       3.03945733       4.65265688       9.35259064       0.00307003      -0.00434053      -0.00531191
Cl       3.03945922       4.65265703       5.26449688       0.00306955      -0.00434160       0.00531614
Cl       5.39972164       1.31474235       9.35259119      -0.00306928       0.00434047      -0.00531268
