9
Lattice="5.880612987563777 -4.7658240679619174e-08 3.395173210174935 1.9602042701811397 5.544294557091179 3.3951732345520655 -5.713648789219282e-08 -1.0545851037156278e-08 6.790346519313165" Properties=species:S:1:pos:R:3:forces:R:3 energy=-26.538536071777344 free_energy=-26.538536071777344 stress="-4.243903822498396e-05 4.938051079150796e-10 3.305741103076798e-08 4.938051079150796e-10 -4.235396772855893e-05 1.4626801991823868e-08 3.305741103076798e-08 1.4626801991823868e-08 -4.2296229366911575e-05" pbc="T T T"
Se       1.96020353       1.38607435       3.39517315      -0.00000367      -0.00000181       0.00000191
Se       5.88061349       4.15822070      10.18551985       0.00000206       0.00000284       0.00000151
Ru       0.00000014      -0.00000024       0.00000003      -0.00000058       0.00000267      -0.00000273
Cl       1.87137644       1.32326268       6.79034659       0.00007546       0.00005573       0.00000003
Cl       5.96944065       4.22103160       6.79034653      -0.00007486      -0.00005257      -0.00000147
Cl       4.94492427       1.32326285       5.01583298      -0.00003770       0.00005305       0.00006169
Cl       2.89589277       4.22103135       8.56485998       0.00003591      -0.00005478      -0.00006461
Cl       2.89589298       4.22103159       5.01583301       0.00003666      -0.00005430       0.00006527
Cl       4.94492451       1.32326319       8.56485956      -0.00003344       0.00004944      -0.00006169
