9
Lattice="4.575967388094479 1.8485370515024116e-07 2.641936283683934 1.525322587675344 4.31426347973393 2.64193636908199 3.811163962447468e-08 1.315397514084248e-07 5.283872501356623" Properties=species:S:1:pos:R:3:forces:R:3 energy=-33.07411193847656 free_energy=-33.07411193847656 stress="9.904974285745993e-05 -7.464951323754576e-08 -1.1751942530224824e-08 -7.464951323754576e-08 9.902501915348694e-05 -3.9723911271494217e-08 -1.1751942530224824e-08 -3.9723911271494217e-08 9.910725930240005e-05" pbc="T T T"
Se       1.52532232       1.07856506       2.64193359      -0.00000186      -0.00000631      -0.00002480
Se       4.57596743       3.23569815       7.92580818      -0.00000146      -0.00000089      -0.00001680
Rh       0.00000010       0.00000018       0.00000067       0.00000466      -0.00000389       0.00000772
F        1.57129602       1.11107479       5.28387333       0.00035417       0.00025022       0.00000856
F        4.52999339       3.20318946       5.28387285      -0.00035183      -0.00024917       0.00000683
F        3.79031923       1.11107443       4.00271956      -0.00017533       0.00024715       0.00031148
F        2.31097080       3.20318945       6.56502674       0.00017784      -0.00024810      -0.00029778
F        2.31097098       3.20318944       4.00271926       0.00017311      -0.00024139       0.00030625
F        3.79031948       1.11107456       6.56502672      -0.00017936       0.00025253      -0.00030158
