9
Lattice="6.395487910857596 -6.441027669819166e-09 3.6924366520618106 2.1318292775174728 6.029723837810083 3.692436686753156 -2.0679525952167386e-08 2.7865428188585608e-08 7.384873339941579" Properties=species:S:1:pos:R:3:forces:R:3 energy=-21.6977596282959 free_energy=-21.6977596282959 stress="5.1527938921935856e-05 -1.879260658199655e-08 5.693589155697509e-09 -1.879260658199655e-08 5.1538587285904214e-05 -3.8701046811695505e-09 5.693589155697509e-09 -3.8701046811695505e-09 5.153949678060599e-05" pbc="T T T"
Se       2.13182934       1.50743092       3.69243673      -0.00000027       0.00000024      -0.00000040
Se       6.39548791       4.52229283      11.07730982       0.00000005      -0.00000019      -0.00000051
Rh      -0.00000024       0.00000004      -0.00000030       0.00000559       0.00000028      -0.00000000
I        2.14324037       1.51549989       7.38487333      -0.00465154      -0.00328935      -0.00000004
I        6.38407693       4.51422410       7.38487336       0.00464697       0.00328600       0.00000068
I        5.32386773       1.51549982       5.54853734       0.00232505      -0.00328768      -0.00402733
I        3.20344934       4.51422411       9.22120953      -0.00232539       0.00328905       0.00402861
I        3.20344940       4.51422400       5.54853733      -0.00232536       0.00328941      -0.00402859
I        5.32386788       1.51549971       9.22120957       0.00232490      -0.00328768       0.00402758
