9
Lattice="6.134293287795388 7.269815277558286e-08 3.541636023064392 2.044764547118706 5.783467177971441 3.541635937651603 8.252543943929605e-08 -4.6254606264588026e-08 7.083271903190528" Properties=species:S:1:pos:R:3:forces:R:3 energy=-22.848712921142578 free_energy=-22.848712921142578 stress="0.00015495299885515124 -2.2886028627766564e-09 -1.3421309397187997e-08 -2.2886028627766564e-09 0.00015496712876483798 1.1577071745705325e-08 -1.3421309397187997e-08 1.1577071745705325e-08 0.0001549405133118853" pbc="T T T"
Se       2.04476466       1.44586693       3.54163600       0.00000037       0.00000127      -0.00000031
Se       6.13429333       4.33760038      10.62490773      -0.00000004      -0.00000043      -0.00000038
Rh      -0.00000009      -0.00000016       0.00000015       0.00000022      -0.00000176      -0.00000388
Br       2.00656973       1.41885901       7.08327192       0.00135277       0.00095599      -0.00000077
Br       6.17248825       4.36460834       7.08327200      -0.00135196      -0.00095614      -0.00000025
Br       5.13100859       1.41885902       5.27937625      -0.00067742       0.00095810       0.00117344
Br       3.04804943       4.36460800       8.88716761       0.00067492      -0.00095497      -0.00116977
Br       3.04804925       4.36460821       5.27937622       0.00067677      -0.00095841       0.00117386
Br       5.13100848       1.41885908       8.88716758      -0.00067561       0.00095637      -0.00117180
