9
Lattice="4.642652666167815 9.944227766842942e-08 2.6804367893020884 1.5475509342908307 4.377135358695145 2.6804368727641688 -1.2048976646320579e-08 9.369984692710737e-08 5.360873599473611" Properties=species:S:1:pos:R:3:forces:R:3 energy=-41.469017028808594 free_energy=-41.469017028808594 stress="-0.0004774059052579105 3.9708808685645636e-08 1.0446828291321708e-08 3.9708808685645636e-08 -0.00047749828081578016 -4.196612124474086e-08 1.0446828291321708e-08 -4.196612124474086e-08 -0.00047759260633029044" pbc="T T T"
Se       1.54755096       1.09428398       2.68043698       0.00000039      -0.00000077       0.00000099
Se       4.64265268       3.28285160       8.04131051       0.00000059       0.00000137      -0.00000058
Re      -0.00000002      -0.00000021       0.00000003      -0.00000193       0.00000056       0.00000099
F        1.56165222       1.10425522       5.36087365       0.00102887       0.00072761      -0.00000026
F        4.62855123       3.27288039       5.36087362      -0.00102659      -0.00072561       0.00000055
F        3.86182664       1.10425512       4.03286736      -0.00051592       0.00072806       0.00089227
F        2.32837705       3.27288050       6.68887974       0.00051546      -0.00073047      -0.00089464
F        2.32837718       3.27288052       4.03286740       0.00051420      -0.00072810       0.00089192
F        3.86182645       1.10425516       6.68887977      -0.00051480       0.00072740      -0.00089097
