9
Lattice="6.395145076397763 4.532866423213854e-08 3.692238699267739 2.131715025958646 6.029400703230389 3.692238772435726 -5.113722679959435e-08 5.3452645661795324e-08 7.384477487107738" Properties=species:S:1:pos:R:3:forces:R:3 energy=-21.697744369506836 free_energy=-21.697744369506836 stress="3.330584513605572e-05 1.5286586219076526e-08 -7.2346000301592994e-09 1.5286586219076526e-08 3.329269748064689e-05 1.5603479397441333e-08 -7.2346000301592994e-09 1.5603479397441333e-08 3.327199738123454e-05" pbc="T T T"
Se       2.13171487       1.50735018       3.69223883      -0.00000021      -0.00000039       0.00000033
Se       6.39514528       4.52205050      11.07671619       0.00000069       0.00000020       0.00000025
Rh      -0.00000023       0.00000053       0.00000011       0.00000062      -0.00000807      -0.00000244
I        2.14341564       1.51562414       7.38447754      -0.00774245      -0.00547582      -0.00000044
I        6.38344401       4.51377690       7.38447749       0.00774726       0.00547660      -0.00000051
I        5.32343728       1.51562374       5.54849095       0.00387050      -0.00547283      -0.00670302
I        3.20342312       4.51377661       9.22046316      -0.00387427       0.00547819       0.00671040
I        3.20342287       4.51377690       5.54849157      -0.00387240       0.00547533      -0.00670787
I        5.32343736       1.51562371       9.22046403       0.00387018      -0.00547321       0.00670326
