9
Lattice="6.306708150464365 -2.0095480487851345e-07 3.64117968950676 2.1022358867662883 5.946021408435601 3.6411796443461166 -5.5506082351513525e-08 -9.45589881857738e-08 7.282359475152889" Properties=species:S:1:pos:R:3:forces:R:3 energy=-26.991361618041992 free_energy=-26.991361618041992 stress="7.410017701658944e-07 -6.229099902554935e-09 -5.617012965863921e-10 -6.229099902554935e-09 7.277022859852877e-07 -1.062325782896778e-08 -5.617012965863921e-10 -1.062325782896778e-08 7.452962904608285e-07" pbc="T T T"
Se       2.10223578       1.48650523       3.64117961      -0.00000057      -0.00000007      -0.00000011
Se       6.30670780       4.45951543      10.92353877      -0.00000020      -0.00000004      -0.00000015
Re       0.00000021      -0.00000017       0.00000027      -0.00000163       0.00000091       0.00000019
Br       2.02295418       1.43044433       7.28235941       0.00029266       0.00020815       0.00000050
Br       6.38598997       4.51557692       7.28235939      -0.00029305      -0.00020659      -0.00000006
Br       5.29523091       1.43044453       5.39310959      -0.00014521       0.00020590       0.00025095
Br       3.11371291       4.51557684       9.17160954       0.00014681      -0.00020784      -0.00025463
Br       3.11371300       4.51557695       5.39310938       0.00014633      -0.00020650       0.00025417
Br       5.29523115       1.43044437       9.17160933      -0.00014523       0.00020602      -0.00025092
