9
Lattice="6.134413951298361 -6.59748302008428e-08 3.541705605099103 2.044804624819038 5.783581003369512 3.5417055417269476 3.7736651699622586e-08 -5.0930864607773553e-08 7.083411144836366" Properties=species:S:1:pos:R:3:forces:R:3 energy=-22.848712921142578 free_energy=-22.848712921142578 stress="0.00017307570669800043 1.6870799202095554e-09 2.9433033787995555e-09 1.6870799202095554e-09 0.00017309730174019933 -4.786550267255052e-09 2.9433033787995555e-09 -4.786550267255052e-09 0.00017308141104876995" pbc="T T T"
Se       2.04480464       1.44589509       3.54170547      -0.00000023       0.00000044      -0.00000063
Se       6.13441402       4.33768567      10.62511643       0.00000101      -0.00000014      -0.00000093
Rh       0.00000009      -0.00000019      -0.00000016       0.00000144       0.00000196       0.00000499
Br       2.00657972       1.41886609       7.08341116       0.00142455       0.00100761       0.00000092
Br       6.17263902       4.36471492       7.08341120      -0.00142684      -0.00100940       0.00000107
Br       5.13112405       1.41886605       5.27945466      -0.00071168       0.00100670       0.00123364
Br       3.04809430       4.36471516       8.88736801       0.00071392      -0.00101022      -0.00123668
Br       3.04809450       4.36471480       5.27945460       0.00071121      -0.00100650       0.00123327
Br       5.13112412       1.41886594       8.88736780      -0.00071334       0.00100953      -0.00123567
