9
Lattice="5.78612574712357 -3.339979757571174e-08 3.340621101600299 1.9287085815200475 5.4552114469520765 3.3406210485386376 2.263663949411011e-08 -4.8980474287353775e-08 6.681242163992787" Properties=species:S:1:pos:R:3:forces:R:3 energy=-25.030132293701172 free_energy=-25.030132293701172 stress="6.170977576402947e-05 1.0196001909434926e-07 1.8438770510442737e-09 1.0196001909434926e-07 6.194952584337443e-05 -5.749678066990782e-08 1.8438770510442737e-09 -5.749678066990782e-08 6.179408956086263e-05" pbc="T T T"
Se       1.92870932       1.36380393       3.34062006      -0.00000246       0.00000527      -0.00000711
Se       5.78612643       4.09140950      10.02186319       0.00000077      -0.00000011      -0.00000264
Rh      -0.00000005      -0.00000026      -0.00000008      -0.00000380      -0.00000063       0.00000544
Cl       1.87808385       1.32800548       6.68124252       0.00199550       0.00140682      -0.00000025
Cl       5.83674988       4.12720511       6.68124211      -0.00198689      -0.00140655      -0.00000123
Cl       4.84708366       1.32800566       4.96708968      -0.00099681       0.00140858       0.00172788
Cl       2.86775037       4.12720526       8.39539490       0.00099768      -0.00141099      -0.00172678
Cl       2.86775028       4.12720519       4.96708965       0.00099538      -0.00141099       0.00172958
Cl       4.84708358       1.32800563       8.39539503      -0.00099914       0.00140861      -0.00172487
