9
Lattice="6.514245958996949 -7.224557937766456e-08 3.761001707033553 2.1714152510300346 6.1416900219607475 3.7610017079373845 2.8780230694431658e-08 2.1457673647820063e-08 7.522003364218315" Properties=species:S:1:pos:R:3:forces:R:3 energy=-25.022754669189453 free_energy=-25.022754669189453 stress="0.00014457119686994702 1.4085317801004749e-08 2.6225639437882364e-09 1.4085317801004749e-08 0.00014455022756010294 -3.1166644820501688e-09 2.6225639437882364e-09 -3.1166644820501688e-09 0.000144536403240636" pbc="T T T"
Se       2.17141521       1.53542244       3.76100173       0.00000034      -0.00000030      -0.00000023
Se       6.51424593       4.60626745      11.28300497      -0.00000063      -0.00000007      -0.00000056
Re       0.00000014       0.00000016       0.00000020      -0.00000037      -0.00000022      -0.00000047
I        2.17526217       1.53814264       7.52200343      -0.00151318      -0.00106995      -0.00000004
I        6.51039877       4.60354723       7.52200343       0.00151442       0.00107076       0.00000024
I        5.42661485       1.53814263       5.64483412       0.00075579      -0.00106962      -0.00130969
I        3.25904659       4.60354730       9.39917246      -0.00075589       0.00106974       0.00131020
I        3.25904646       4.60354746       5.64483415      -0.00075608       0.00106899      -0.00130905
I        5.42661482       1.53814260       9.39917258       0.00075572      -0.00106928       0.00130963
