9
Lattice="5.880893431061083 -1.473712966598767e-08 3.3953352955691303 1.9602978211584605 5.544559424039073 3.3953352527890566 1.9856463351965368e-07 8.801175739495423e-08 6.790670247214305" Properties=species:S:1:pos:R:3:forces:R:3 energy=-26.538536071777344 free_energy=-26.538536071777344 stress="-2.4074759494396858e-05 2.360073025897691e-08 -3.169728302054864e-08 2.360073025897691e-08 -2.413416041235905e-05 3.6582328277745546e-09 -3.169728302054864e-08 3.6582328277745546e-09 -2.4065138859441504e-05" pbc="T T T"
Se       1.96029788       1.38613995       3.39533505       0.00000012       0.00000204      -0.00000033
Se       5.88089404       4.15841987      10.18600509       0.00000274       0.00000159       0.00000180
Ru      -0.00000023       0.00000004       0.00000069       0.00000056      -0.00000118      -0.00000646
Cl       1.87139240       1.32327398       6.79067071      -0.00010896      -0.00007963       0.00000070
Cl       5.96979900       4.22128556       6.79067051       0.00010818       0.00007781       0.00000028
Cl       4.94519776       1.32327378       5.01600797       0.00005352      -0.00007570      -0.00009304
Cl       2.89599391       4.22128509       8.56533258      -0.00005609       0.00007921       0.00009578
Cl       2.89599331       4.22128530       5.01600802      -0.00005761       0.00007534      -0.00009370
Cl       4.94519780       1.32327435       8.56533259       0.00005737      -0.00007904       0.00009501
