9
Lattice="6.418718444585153 -4.976908252069354e-08 3.7058489089200894 2.139572760655804 6.051625917230766 3.7058489215349417 -1.0813048783578312e-08 7.803982574272092e-09 7.411697836568919" Properties=species:S:1:pos:R:3:forces:R:3 energy=-22.49801254272461 free_energy=-22.49801254272461 stress="0.00024382618721574545 -9.764366204478847e-09 -1.602769583719521e-10 -9.764366204478847e-09 0.00024381527327932417 -7.505057908474555e-09 -1.602769583719521e-10 -7.505057908474555e-09 0.0002438458614051342" pbc="T T T"
Se       2.13957281       1.51290650       3.70584904      -0.00000034       0.00000130      -0.00000011
Se       6.41871847       4.53871938      11.11754668       0.00000051      -0.00000120       0.00000037
Ru      -0.00000001       0.00000029       0.00000028       0.00000068      -0.00000417      -0.00000735
I        2.15973410       1.52716273       7.41169792      -0.00746708      -0.00528073      -0.00000034
I        6.39855696       4.52446316       7.41169792       0.00746799       0.00528081       0.00000003
I        5.33885136       1.52716264       5.57623348       0.00373224      -0.00527732      -0.00646404
I        3.21944005       4.52446290       9.24716173      -0.00373556       0.00528270       0.00647002
I        3.21943984       4.52446314       5.57623372      -0.00373349       0.00528058      -0.00646693
I        5.33885120       1.52716278       9.24716189       0.00373511      -0.00528194       0.00646836
