9
Lattice="4.575990810948377 1.4353075599291802e-07 2.641949632645621 1.5253303267133578 4.314285523920698 2.641949769347483 1.5765876029662278e-07 2.7890650355709894e-07 5.283898992218243" Properties=species:S:1:pos:R:3:forces:R:3 energy=-33.07411575317383 free_energy=-33.07411575317383 stress="8.033884660108015e-05 -5.8976709738089994e-08 -7.870648133234681e-09 -5.8976709738089994e-08 8.034377242438495e-05 4.310629186932147e-09 -7.870648133234681e-09 4.310629186932147e-09 8.039173553697765e-05" pbc="T T T"
Se       1.52533055       1.07857223       2.64195034       0.00000107       0.00000700       0.00001007
Se       4.57599068       3.23571492       7.92585014      -0.00000143       0.00000478       0.00001265
Rh       0.00000004      -0.00000030      -0.00000029       0.00000373       0.00000165       0.00001058
F        1.57125587       1.11104568       5.28389887       0.00163375       0.00115340      -0.00000319
F        4.53006545       3.20324007       5.28389879      -0.00163738      -0.00116024      -0.00000445
F        3.79036267       1.11104584       4.00269688      -0.00081404       0.00114996       0.00140558
F        2.31095829       3.20324001       6.56510120       0.00081763      -0.00115741      -0.00141877
F        2.31095850       3.20323963       4.00269708       0.00081427      -0.00115376       0.00140797
F        3.79036301       1.11104581       6.56510088      -0.00081773       0.00115461      -0.00142038
