9
Lattice="6.212553115468757 -1.2466877812720525e-08 3.5868192911697667 2.0708510469165136 5.857251182176397 3.5868192562156036 3.787472578289086e-08 -1.6028455425336396e-08 7.173638516738554" Properties=species:S:1:pos:R:3:forces:R:3 energy=-24.058822631835938 free_energy=-24.058822631835938 stress="0.00020747444068547338 -2.203797366817639e-09 -1.3212434479825674e-09 -2.203797366817639e-09 0.00020748263341374695 -2.289430645063817e-09 -1.3212434479825674e-09 -2.289430645063817e-09 0.0002074795338558033" pbc="T T T"
Se       2.07085098       1.46431288       3.58681951      -0.00000033       0.00000029       0.00000137
Se       6.21255307       4.39293822      10.76045798      -0.00000050      -0.00000069      -0.00000023
Ru       0.00000011      -0.00000004       0.00000008       0.00000042      -0.00000034      -0.00000218
Br       2.02146221       1.42938961       7.17363854       0.00022988       0.00016249      -0.00000013
Br       6.26194201       4.42786157       7.17363851      -0.00022960      -0.00016238      -0.00000049
Br       5.20182202       1.42938932       5.33745688      -0.00011580       0.00016367       0.00019997
Br       3.08158231       4.42786165       9.00981995       0.00011467      -0.00016215      -0.00019862
Br       3.08158202       4.42786170       5.33745680       0.00011513      -0.00016287       0.00019912
Br       5.20182210       1.42938972       9.00982001      -0.00011394       0.00016200      -0.00019880
