9
Lattice="5.785987277375856 -1.2132875083420197e-07 3.3405411290546994 1.9286622904426391 5.455080866696961 3.3405411653576 -4.6765986519499884e-08 1.139322572535211e-08 6.681082339110467" Properties=species:S:1:pos:R:3:forces:R:3 energy=-25.030132293701172 free_energy=-25.030132293701172 stress="5.006897117709741e-05 8.625797676131697e-08 3.1237320285981696e-08 8.625797676131697e-08 5.008888911106624e-05 -5.2273758655019265e-09 3.1237320285981696e-08 -5.2273758655019265e-09 5.016024078940973e-05" pbc="T T T"
Se       1.92866230       1.36376998       3.34054113      -0.00000214      -0.00000485      -0.00000302
Se       5.78598753       4.09131089      10.02162325       0.00000120      -0.00000258      -0.00000334
Rh      -0.00000006      -0.00000007      -0.00000005      -0.00000174      -0.00000096       0.00000245
Cl       1.87809161       1.32801119       6.68108224       0.00180903       0.00127918      -0.00000023
Cl       5.83655800       4.12706948       6.68108215      -0.00180471      -0.00127453      -0.00000047
Cl       4.84694141       1.32801113       4.96701606      -0.00090358       0.00127876       0.00156978
Cl       2.86770784       4.12706948       8.39514879       0.00090414      -0.00127953      -0.00156707
Cl       2.86770786       4.12706969       4.96701603       0.00090207      -0.00127679       0.00156850
Cl       4.84694161       1.32801130       8.39514885      -0.00090474       0.00128117      -0.00156644
