9
Lattice="6.212490930918604 1.1908962733190227e-08 3.5867834352297354 2.070830317142109 5.857192529419651 3.5867834428368575 8.36249592248697e-08 6.844856083760221e-08 7.173566725616774" Properties=species:S:1:pos:R:3:forces:R:3 energy=-24.058828353881836 free_energy=-24.058828353881836 stress="0.00019831038662232459 -2.048550484801126e-08 -3.772667955814768e-09 -2.048550484801126e-08 0.0001983051624847576 5.908797451326109e-09 -3.772667955814768e-09 5.908797451326109e-09 0.00019833719125017524" pbc="T T T"
Se       2.07082990       1.46429760       3.58678346      -0.00000141      -0.00000011       0.00000030
Se       6.21249070       4.39289452      10.76035043      -0.00000132      -0.00000033       0.00000004
Ru      -0.00000012      -0.00000003       0.00000016       0.00000162       0.00000131      -0.00000054
Br       2.02145571       1.42938510       7.17356663       0.00025938       0.00018366       0.00000011
Br       6.26186587       4.42780787       7.17356672      -0.00026137      -0.00018477      -0.00000018
Br       5.20176328       1.42938503       5.33741550      -0.00012863       0.00018288       0.00022304
Br       3.08155844       4.42780779       9.00971810       0.00012980      -0.00018234      -0.00022392
Br       3.08155821       4.42780762       5.33741543       0.00013108      -0.00018358       0.00022519
Br       5.20176336       1.42938499       9.00971799      -0.00012913       0.00018324      -0.00022393
