9
Lattice="6.216722044629217 1.0690007893163279e-08 3.5892260862156795 2.072240657665439 5.861181990507509 3.5892261450296523 -1.0330436953033287e-07 -1.0150641332917214e-09 7.178452351359729" Properties=species:S:1:pos:R:3:forces:R:3 energy=-16.266380310058594 free_energy=-16.266380310058594 stress="-0.00019657157827168703 5.830106397652912e-10 3.2128575355727662e-09 5.830106397652912e-10 -0.00019657101074699312 -1.0268209393871075e-08 3.2128575355727662e-09 -1.0268209393871075e-08 -0.00019659442477859557" pbc="T T T"
Se       2.07224089       1.46529550       3.58922634       0.00000090       0.00000082       0.00000035
Se       6.21672191       4.39588629      10.76767808      -0.00000008      -0.00000042      -0.00000077
S        0.00000001       0.00000005       0.00000002      -0.00000016       0.00000116       0.00000057
Br       2.10507957       1.48851621       7.17845236      -0.00288476      -0.00203998       0.00000004
Br       6.18388285       4.37266605       7.17845228       0.00288507       0.00203946      -0.00000010
Br       5.16418227       1.48851605       5.41227833       0.00144232      -0.00204032      -0.00249784
Br       3.12478037       4.37266594       8.94462619      -0.00144276       0.00203992       0.00249846
Br       3.12478033       4.37266587       5.41227833      -0.00144246       0.00203943      -0.00249881
Br       5.16418220       1.48851604       8.94462637       0.00144198      -0.00204002       0.00249815
