9
Lattice="6.351590482227276 -3.242432216986192e-08 3.667092442953777 2.1171968153626235 5.988336670052878 3.667092410870206 6.501744643052007e-08 6.680049884987816e-09 7.334184773294059" Properties=species:S:1:pos:R:3:forces:R:3 energy=-18.929515838623047 free_energy=-18.929515838623047 stress="-1.6936362953856587e-05 -3.577628193696114e-09 -4.2353844875719915e-09 -3.577628193696114e-09 -1.6915795640670694e-05 1.177877018143647e-09 -4.2353844875719915e-09 1.177877018143647e-09 -1.6934258383116685e-05" pbc="T T T"
Se       2.11719631       1.49708448       3.66709175      -0.00000091       0.00000191      -0.00000034
Se       6.35159032       4.49125208      11.00127717      -0.00000055      -0.00000161      -0.00000088
Sb       0.00000060      -0.00000013       0.00000004      -0.00000234       0.00000176       0.00000218
Br       2.14176153       1.51445388       7.33418479      -0.00000532      -0.00000349       0.00000085
Br       6.32702626       4.47388279       7.33418465       0.00000513       0.00000300       0.00000016
Br       5.28070980       1.51445389       5.52191220       0.00000443      -0.00000419      -0.00000562
Br       3.18807722       4.47388298       9.14645777      -0.00000098       0.00000180       0.00000292
Br       3.18807752       4.47388263       5.52191230      -0.00000204       0.00000373      -0.00000396
Br       5.28070992       1.51445396       9.14645789       0.00000260      -0.00000290       0.00000476
