9
Lattice="5.991332675321025 2.4027271923793313e-07 3.4590977882902885 1.997111164868332 5.648682330523569 3.459097707640187 -4.145302512945379e-09 -1.0170697691061903e-07 6.918195583760409" Properties=species:S:1:pos:R:3:forces:R:3 energy=-22.40998077392578 free_energy=-22.40998077392578 stress="0.0002531087666284293 -1.280624672972408e-08 6.534504137789554e-08 -1.280624672972408e-08 0.00025310023920610547 1.3051615788128856e-08 6.534504137789554e-08 1.3051615788128856e-08 0.00025315300445072353" pbc="T T T"
Se       1.99711248       1.41216968       3.45909786       0.00000802      -0.00000159      -0.00000564
Se       5.99133304       4.23651171      10.37729359      -0.00000015      -0.00000172       0.00000002
Sn      -0.00000026       0.00000022       0.00000014       0.00000013      -0.00000018      -0.00000102
Cl       1.99361775       1.40970099       6.91819577       0.00179456       0.00127024       0.00000185
Cl       5.99482543       4.23898193       6.91819540      -0.00179491      -0.00126895       0.00000157
Cl       4.99452292       1.40970136       5.18562127      -0.00090192       0.00127453       0.00155378
Cl       2.99392047       4.23898147       8.65076973       0.00089547      -0.00126888      -0.00155296
Cl       2.99391945       4.23898186       5.18562200       0.00089510      -0.00127017       0.00155492
Cl       4.99452410       1.40970068       8.65076852      -0.00089620       0.00126676      -0.00155250
