9
Lattice="6.73825754177494 8.96484798485668e-08 3.8903347306274583 2.246086020823902 6.352889822843135 3.8903345763984007 1.297510955308676e-07 -9.71434484928524e-08 7.780669236519457" Properties=species:S:1:pos:R:3:forces:R:3 energy=-17.10637855529785 free_energy=-17.10637855529785 stress="0.0001349031226709485 1.5821134624616207e-08 1.5714832102275977e-08 1.5821134624616207e-08 0.00013488612603396177 -2.923137643051632e-08 1.5714832102275977e-08 -2.923137643051632e-08 0.0001348781370325014" pbc="T T T"
Se       2.24608585       1.58822247       3.89033479       0.00000100       0.00000093       0.00000021
Se       6.73825788       4.76466744      11.67100401      -0.00000062      -0.00000125       0.00000043
Sb       0.00000024      -0.00000033       0.00000032      -0.00000157       0.00000282      -0.00000178
I        2.42138177       1.71217525       7.78066919      -0.00459823      -0.00325152       0.00000011
I        6.56296194       4.64071458       7.78066912       0.00459841       0.00325119      -0.00000025
I        5.52756680       1.71217519       5.98731250       0.00229813      -0.00325026      -0.00398049
I        3.45677677       4.64071472       9.57402623      -0.00229812       0.00324966       0.00398019
I        3.45677684       4.64071458       5.98731226      -0.00229824       0.00324997      -0.00398025
I        5.52756668       1.71217541       9.57402578       0.00229914      -0.00325148       0.00398198
