9
Lattice="5.963719312777093 -8.193120554171587e-08 3.443155047101416 1.9879064467808452 5.622648224215801 3.443154897393397 1.4810258860764357e-07 -7.86297336423267e-08 6.886309837681573" Properties=species:S:1:pos:R:3:forces:R:3 energy=-22.250123977661133 free_energy=-22.250123977661133 stress="-0.0002595791011117399 4.6870397341081116e-08 5.6037059437130665e-08 4.6870397341081116e-08 -0.00025958154583349824 -5.0642562143821124e-08 5.6037059437130665e-08 -5.0642562143821124e-08 -0.0002595410624053329" pbc="T T T"
Se       1.98790627       1.40566183       3.44315310       0.00000066       0.00000124       0.00000011
Se       5.96371951       4.21698563      10.32946499      -0.00000114      -0.00000001       0.00000172
Sb      -0.00000016       0.00000013      -0.00000017      -0.00000336      -0.00000044       0.00000882
Cl       1.98153352       1.40115596       6.88631170       0.00370255       0.00261979       0.00000436
Cl       5.97009130       4.22149240       6.88631041      -0.00370111      -0.00261496      -0.00000172
Cl       4.97295197       1.40115649       5.15921297      -0.00185473       0.00261737       0.00321080
Cl       2.97867318       4.22149228       8.61340710       0.00185645      -0.00262408      -0.00321770
Cl       2.97867400       4.22149202       5.15921270       0.00185151      -0.00261807       0.00320457
Cl       4.97295402       1.40115551       8.61340638      -0.00185075       0.00261925      -0.00321065
