9
Lattice="6.351569648700514 -1.2155606669482121e-07 3.667080595323968 2.1171898328687333 5.988317127534133 3.6670804834807296 8.2354802577777e-08 -7.874574265033035e-08 7.33416104800517" Properties=species:S:1:pos:R:3:forces:R:3 energy=-18.929513931274414 free_energy=-18.929513931274414 stress="-1.8544600607128814e-05 -2.7667519386653794e-09 1.089284484834252e-08 -2.7667519386653794e-09 -1.8546703358879313e-05 -1.1911469144365583e-08 1.089284484834252e-08 -1.1911469144365583e-08 -1.853696994658094e-05" pbc="T T T"
Se       2.11718946       1.49707892       3.66707990       0.00000021      -0.00000031      -0.00000066
Se       6.35157094       4.49123777      11.00124139       0.00000275      -0.00000063      -0.00000098
Sb      -0.00000020      -0.00000003       0.00000011      -0.00000034       0.00000014       0.00000126
Br       2.14176817       1.51445902       7.33416114      -0.00002789      -0.00001909       0.00000006
Br       6.32699114       4.47385817       7.33416141       0.00002722       0.00001881      -0.00000040
Br       5.28068562       1.51445879       5.52190635       0.00001338      -0.00001857      -0.00002290
Br       3.18807402       4.47385808       9.14641567      -0.00001445       0.00001957       0.00002395
Br       3.18807385       4.47385845       5.52190663      -0.00001414       0.00001919      -0.00002348
Br       5.28068523       1.51445858       9.14641590       0.00001323      -0.00001904       0.00002311
