9
Lattice="6.301998377738609 1.131853361041274e-07 3.63846049437218 2.100666185879083 5.941581191403341 3.6384605753386032 5.1454572371982356e-08 1.3554705599922481e-07 7.276920899622449" Properties=species:S:1:pos:R:3:forces:R:3 energy=-19.202377319335938 free_energy=-19.202377319335938 stress="0.00012119104212615639 1.8978045801532062e-08 -2.7522983891969943e-09 1.8978045801532062e-08 0.00012118426093365997 9.356804220317372e-10 -2.7522983891969943e-09 9.356804220317372e-10 0.00012116854486521333" pbc="T T T"
Se       2.10066577       1.48539444       3.63846036      -0.00000060      -0.00000157      -0.00000042
Se       6.30199838       4.45618651      10.91538252       0.00000008       0.00000037       0.00000075
Sn       0.00000017       0.00000005      -0.00000002      -0.00000313       0.00000057      -0.00000065
Br       2.11713111       1.49703794       7.27692077      -0.00083668      -0.00059170       0.00000012
Br       6.28553359       4.44454361       7.27692091       0.00083914       0.00059355      -0.00000047
Br       5.24343301       1.49703792       5.47194968       0.00041894      -0.00059158      -0.00072488
Br       3.15923180       4.44454363       9.08189184      -0.00041878       0.00059143       0.00072454
Br       3.15923182       4.44454363       5.47194982      -0.00041811       0.00059207      -0.00072457
Br       5.24343286       1.49703805       9.08189199       0.00041911      -0.00059319       0.00072559
