9
Lattice="6.182732963190987 2.2131284250456577e-07 3.5696022282787387 2.060911153689441 5.8291365438058955 3.569602302231468 -1.659574287795103e-07 -2.677638004226751e-08 7.139204744004184" Properties=species:S:1:pos:R:3:forces:R:3 energy=-20.741737365722656 free_energy=-20.741737365722656 stress="0.0001594890491105616 -5.029947569568094e-10 -9.790327659686682e-09 -5.029947569568094e-10 0.0001594899222254753 -5.130317060064726e-09 -9.790327659686682e-09 -5.130317060064726e-09 0.00015949811495374888" pbc="T T T"
Se       2.06091042       1.45728308       3.56960267      -0.00000057      -0.00000225       0.00000044
Se       6.18273282       4.37185209      10.70880545      -0.00000061      -0.00000130      -0.00000284
Si       0.00000004       0.00000033      -0.00000053      -0.00000097       0.00000053       0.00000288
Br       1.96846212       1.39191323       7.13920496      -0.00042470      -0.00030015      -0.00000058
Br       6.27518184       4.43722383       7.13920503       0.00042777       0.00030236       0.00000028
Br       5.19850230       1.39191317       5.27434043       0.00021201      -0.00030038      -0.00036902
Br       3.04514214       4.43722384       9.00406939      -0.00021333       0.00030146       0.00036885
Br       3.04514202       4.43722419       5.27434044      -0.00021285       0.00030066      -0.00036878
Br       5.19850210       1.39191323       9.00406934       0.00021336      -0.00030098       0.00036857
