9
Lattice="6.737501409595102 -1.02851769180415e-07 3.8898983760617747 2.2458337405050695 6.352176986435531 3.8898983166935297 4.919095712174198e-08 -3.7927673375794736e-08 7.7797966669222935" Properties=species:S:1:pos:R:3:forces:R:3 energy=-17.106399536132812 free_energy=-17.106399536132812 stress="5.0967424613190815e-05 1.4309749829521934e-08 1.6157397642047044e-09 1.4309749829521934e-08 5.097223038319498e-05 4.179958601469025e-09 1.6157397642047044e-09 4.179958601469025e-09 5.0964310503331944e-05" pbc="T T T"
Se       2.24583389       1.58804432       3.88989864       0.00000114       0.00000110       0.00000075
Se       6.73750110       4.76413241      11.66969484      -0.00000135      -0.00000121       0.00000022
Sb       0.00000022      -0.00000025       0.00000100      -0.00000057       0.00000119      -0.00000615
I        2.42065799       1.71166358       7.77979655      -0.00117466      -0.00083059      -0.00000049
I        6.56267722       4.64051325       7.77979659       0.00117427       0.00083032       0.00000001
I        5.52717246       1.71166359       5.98624958       0.00058691      -0.00082986      -0.00101703
I        3.45616284       4.64051351       9.57334330      -0.00058787       0.00083217       0.00101918
I        3.45616275       4.64051341       5.98624949      -0.00058664       0.00082877      -0.00101605
I        5.52717233       1.71166355       9.57334344       0.00058874      -0.00083186       0.00101960
