9
Lattice="5.71509530804011 1.5357334551660807e-07 3.299611787289344 1.9050318379659748 5.388243535801233 3.2996119192215243 -8.978130904237478e-08 9.809828197826446e-08 6.599223730084486" Properties=species:S:1:pos:R:3:forces:R:3 energy=-18.954174041748047 free_energy=-18.954174041748047 stress="0.00015452636580448598 8.521469396782777e-08 5.551985893248457e-08 8.521469396782777e-08 0.00015446364704985172 4.528800090497498e-08 5.551985893248457e-08 4.528800090497498e-08 0.00015448125486727804" pbc="T T T"
Se       1.90503224       1.34706073       3.29961185      -0.00000493       0.00000420      -0.00000002
Se       5.71509506       4.04118311       9.89883524       0.00000682      -0.00000174      -0.00000154
S        0.00000002      -0.00000013       0.00000012      -0.00000118       0.00000197       0.00000361
Cl       1.87645188       1.32685174       6.59922377      -0.00007648      -0.00005825      -0.00000070
Cl       5.74367518       4.06139174       6.59922374       0.00007699       0.00005545      -0.00000069
Cl       4.77686926       1.32685201       4.92466637       0.00003593      -0.00005296      -0.00006264
Cl       2.84325780       4.06139221       8.27378103      -0.00003377       0.00004867       0.00006394
Cl       2.84325750       4.06139230       4.92466702      -0.00003677       0.00005198      -0.00006224
Cl       4.77686926       1.32685140       8.27378059       0.00003351      -0.00004930       0.00006047
