9
Lattice="4.458200662248477 -4.4770821717851625e-08 2.573943297342751 1.4860668709483231 4.2032317355145725 2.573943252755442 1.845359940126376e-08 -4.1559428685307186e-08 5.147886562722939" Properties=species:S:1:pos:R:3:forces:R:3 energy=-37.273536682128906 free_energy=-37.273536682128906 stress="0.00020429522555787116 2.3026446527296685e-08 6.921695216988155e-08 2.3026446527296685e-08 0.00020429778669495136 -1.7727042056492337e-09 6.921695216988155e-08 -1.7727042056492337e-09 0.0002043024724116549" pbc="T T T"
Se       1.48606675       1.05080776       2.57394350      -0.00000154      -0.00000011      -0.00000068
Se       4.45820060       3.15242364       7.72183011       0.00000003      -0.00000066       0.00000137
Si       0.00000012       0.00000003      -0.00000008      -0.00000121      -0.00000059      -0.00000154
F        1.44267820       1.02012745       5.14788656       0.00078162       0.00055168      -0.00000011
F        4.50158936       3.18310430       5.14788656      -0.00078106      -0.00055169      -0.00000270
F        3.73686162       1.02012736       3.82333895      -0.00039122       0.00055484       0.00067763
F        2.20740603       3.18310434       6.47243392       0.00039025      -0.00055151      -0.00067591
F        2.20740592       3.18310435       3.82333903       0.00039258      -0.00055227       0.00067680
F        3.73686164       1.02012737       6.47243394      -0.00038986       0.00055010      -0.00067490
