9
Lattice="4.640993373863612 -2.5504851622686773e-08 2.679478833058797 1.5469977740202028 4.375570526475937 2.6794788213180194 3.305083206946086e-09 -1.2042404644900491e-08 5.358957660393024" Properties=species:S:1:pos:R:3:forces:R:3 energy=-32.42710876464844 free_energy=-32.42710876464844 stress="0.0004992596223019063 1.4811539550407815e-08 1.1253745713091234e-09 1.4811539550407815e-08 0.0004991461173631251 -6.569534694023105e-09 1.1253745713091234e-09 -6.569534694023105e-09 0.0004992568865418434" pbc="T T T"
Se       1.54699803       1.09389244       2.67947909       0.00000088       0.00000145       0.00000136
Se       4.64099357       3.28167811       8.03843684       0.00000021      -0.00000078       0.00000306
Sb      -0.00000011       0.00000006      -0.00000032      -0.00000069       0.00000281      -0.00000445
F        1.61553281       1.14235434       5.35895769       0.00322642       0.00228115      -0.00000047
F        4.57245823       3.23321609       5.35895778      -0.00322715      -0.00228221      -0.00000124
F        3.83322691       1.14235421       4.07857133      -0.00161343       0.00228148       0.00279235
F        2.35476428       3.23321608       6.63934381       0.00161223      -0.00228206      -0.00279341
F        2.35476402       3.23321625       4.07857127       0.00161423      -0.00228242       0.00279494
F        3.83322683       1.14235449       6.63934377      -0.00161287       0.00228054      -0.00279241
