9
Lattice="5.964495964236064 1.468810525560057e-07 3.443603541601578 1.988165492643216 5.623381097624925 3.443603484876198 5.397848796792293e-09 -6.565723944761513e-08 6.88720707385376" Properties=species:S:1:pos:R:3:forces:R:3 energy=-22.250137329101562 free_energy=-22.250137329101562 stress="-0.0002427761792205274 -9.01904417816013e-09 8.248597538340618e-08 -9.01904417816013e-09 -0.00024263549130409956 1.4587117291853247e-08 8.248597538340618e-08 1.4587117291853247e-08 -0.0002428635925753042" pbc="T T T"
Se       1.98816601       1.40584603       3.44360327       0.00000343      -0.00000086      -0.00000395
Se       5.96449618       4.21753495      10.33081156       0.00000157      -0.00000257       0.00000185
Sb      -0.00000008      -0.00000000      -0.00000004      -0.00000059      -0.00000170      -0.00000056
Cl       1.98145859       1.40110275       6.88720698       0.00407377       0.00288430       0.00000047
Cl       5.97120267       4.22227779       6.88720700      -0.00407678      -0.00288403       0.00000040
Cl       4.97376629       1.40110331       5.15959711      -0.00203969       0.00288558       0.00353079
Cl       2.97889510       4.22227833       8.61481658       0.00203836      -0.00288434      -0.00353085
Cl       2.97889507       4.22227838       5.15959770       0.00203831      -0.00287995       0.00353132
Cl       4.97376607       1.40110315       8.61481637      -0.00203833       0.00288355      -0.00352928
