9
Lattice="6.4842005090603685 2.26502725628917e-08 3.743654853999078 2.161400165550998 6.113362859288699 3.743654898150216 -2.4444928553853875e-08 3.67886991127724e-08 7.48730975033801" Properties=species:S:1:pos:R:3:forces:R:3 energy=-15.47991943359375 free_energy=-15.47991943359375 stress="0.00011210804950678721 3.831209571814043e-09 -1.0400564853796368e-08 3.831209571814043e-09 0.00011210027878405526 -9.029963443651923e-09 -1.0400564853796368e-08 -9.029963443651923e-09 0.00011212768004043028" pbc="T T T"
Se       2.16140013       1.52834082       3.74365466      -0.00000032      -0.00000007       0.00000021
Se       6.48420061       4.58502217      11.23096469       0.00000003       0.00000009      -0.00000014
S       -0.00000000       0.00000016       0.00000013      -0.00000334      -0.00000092       0.00000213
I        2.33297102       1.64965978       7.48730966      -0.00771442      -0.00545487      -0.00000114
I        6.31262944       4.46370304       7.48730987       0.00771374       0.00545554       0.00000092
I        5.31771497       1.64965969       5.76406721       0.00385919      -0.00545576      -0.00668037
I        3.32788563       4.46370323       9.21055230      -0.00385797       0.00545593       0.00668019
I        3.32788580       4.46370307       5.76406724      -0.00385605       0.00545517      -0.00668275
I        5.31771503       1.64965972       9.21055230       0.00385924      -0.00545517       0.00668088
