9
Lattice="5.740815988247145 -1.8827314334249655e-08 3.3144619927490995 1.913605404097731 5.412493116931191 3.314461832651139 2.5094836331558404e-07 -1.8631817163930775e-08 6.62892355084284" Properties=species:S:1:pos:R:3:forces:R:3 energy=-24.774585723876953 free_energy=-24.774585723876953 stress="2.2007854568073526e-05 -1.6756077414470383e-08 6.278956732330698e-08 -1.6756077414470383e-08 2.2188789444044232e-05 7.947046753997711e-08 6.278956732330698e-08 7.947046753997711e-08 2.198099173256196e-05" pbc="T T T"
Se       1.91360511       1.35312398       3.31446197       0.00000365       0.00000337      -0.00000158
Se       5.74081585       4.05937021       9.94338568      -0.00000256       0.00000272      -0.00000192
Si       0.00000003      -0.00000008       0.00000016      -0.00000136      -0.00000162       0.00000185
Cl       1.78637327       1.26315612       6.62892372       0.00269213       0.00190327      -0.00000261
Cl       5.86804858       4.14933677       6.62892365      -0.00268969      -0.00190550       0.00000550
Cl       4.84762941       1.26315633       4.86150604      -0.00134608       0.00189912       0.00233340
Cl       2.80679226       4.14933584       8.39634104       0.00134489      -0.00189611      -0.00233084
Cl       2.80679194       4.14933672       4.86150641       0.00134335      -0.00190404       0.00232971
Cl       4.84763005       1.26315647       8.39634085      -0.00134441       0.00189877      -0.00233373
