9
Lattice="4.6400324262698405 -8.795767135793002e-08 2.678923988340369 1.546677416786149 4.37466443547133 2.6789239462685934 -1.4021036133010537e-08 -6.144156678653836e-08 5.357848000965896" Properties=species:S:1:pos:R:3:forces:R:3 energy=-32.4271354675293 free_energy=-32.4271354675293 stress="6.763773853890598e-05 3.372115386923724e-08 5.7530384900417175e-09 3.372115386923724e-08 6.74912880640477e-05 -4.021840283030542e-08 5.7530384900417175e-09 -4.021840283030542e-08 6.758668314432725e-05" pbc="T T T"
Se       1.54667757       1.09366622       2.67892409      -0.00000080      -0.00000023      -0.00000069
Se       4.64003253       3.28099821       8.03677207      -0.00000006      -0.00000053       0.00000011
Sb      -0.00000015       0.00000003       0.00000004       0.00000207      -0.00000314      -0.00000247
F        1.61536535       1.14223561       5.35784800       0.00292744       0.00207118      -0.00000105
F        4.57134453       3.23242855       5.35784798      -0.00292692      -0.00207009      -0.00000157
F        3.83234970       1.14223566       4.07787135      -0.00146693       0.00207504       0.00254070
F        2.35436017       3.23242844       6.63782442       0.00146382      -0.00207071      -0.00253590
F        2.35436004       3.23242867       4.07787149       0.00146602      -0.00207402       0.00253916
F        3.83234958       1.14223577       6.63782433      -0.00146463       0.00207267      -0.00253785
