9
Lattice="6.68672130085649 4.222579161398677e-08 3.8605802630170536 2.2289071429986693 6.304301250125258 3.860580257990099 1.5355181687492372e-09 -5.070950892412322e-09 7.721160523374513" Properties=species:S:1:pos:R:3:forces:R:3 energy=-16.831424713134766 free_energy=-16.831424713134766 stress="0.00012326063006184995 -1.0787227777697694e-09 -2.541659771537752e-09 -1.0787227777697694e-09 0.0001232803042512387 -8.116268546132233e-09 -2.541659771537752e-09 -8.116268546132233e-09 0.00012327816511970013" pbc="T T T"
Se       2.22890745       1.57607529       3.86057993       0.00000212      -0.00000043      -0.00000003
Se       6.68672101       4.72822607      11.58174089      -0.00000295       0.00000138       0.00000090
Sn       0.00000010       0.00000016       0.00000024      -0.00000076      -0.00000003       0.00000090
I        2.37569659       1.67987094       7.72116048       0.00065061       0.00045998       0.00000004
I        6.53993166       4.62443010       7.72116051      -0.00065000      -0.00046006      -0.00000085
I        5.49887279       1.67987125       5.91799401      -0.00032428       0.00045937       0.00056264
I        3.41675569       4.62443006       9.52432713       0.00032500      -0.00045982      -0.00056289
I        3.41675559       4.62443007       5.91799385       0.00032555      -0.00045957       0.00056240
I        5.49887290       1.67987123       9.52432711      -0.00032526       0.00045921      -0.00056317
