9
Lattice="4.617037836653623 -5.676383922216284e-09 2.665647930866322 1.5390126032441718 4.352984974605363 2.6656479371397332 -1.0446074586029886e-08 2.9683713041644384e-10 5.331295879825766" Properties=species:S:1:pos:R:3:forces:R:3 energy=-47.84458923339844 free_energy=-47.84458923339844 stress="1.289654119318584e-05 -2.515545105552519e-08 -4.404920872502771e-10 -2.515545105552519e-08 1.2868815247202292e-05 -1.9352995650478988e-08 -4.404920872502771e-10 -1.9352995650478988e-08 1.2873115338152274e-05" pbc="T T T"
Se       1.53901244       1.08824625       2.66564799       0.00000184       0.00000014      -0.00000028
Se       4.61703764       3.26473857       7.99694396      -0.00000007      -0.00000057      -0.00000037
Ta       0.00000003       0.00000007       0.00000010       0.00000197       0.00000128      -0.00000175
F        1.57182153       1.11144554       5.33129582       0.00035000       0.00024861       0.00000004
F        4.58422922       3.24153956       5.33129587      -0.00035280      -0.00024921       0.00000004
F        3.83112707       1.11144556       4.02688511      -0.00017628       0.00024930       0.00030476
F        2.32492338       3.24153939       6.63570661       0.00017586      -0.00024888      -0.00030375
F        2.32492333       3.24153941       4.02688504       0.00017524      -0.00024810       0.00030375
F        3.83112713       1.11144554       6.63570655      -0.00017598       0.00024748      -0.00030237
