9
Lattice="4.640772157966887 4.854236292218426e-08 2.679351125082026 1.5469240691986754 4.375362131565901 2.679351175697969 -5.093745973187893e-08 2.597339260666537e-08 5.358702338390319" Properties=species:S:1:pos:R:3:forces:R:3 energy=-30.254398345947266 free_energy=-30.254398345947266 stress="-0.00021924101747572422 -6.222882831252718e-08 7.781282818086765e-08 -6.222882831252718e-08 -0.00021918797574471682 6.462120616390621e-09 7.781282818086765e-08 6.462120616390621e-09 -0.00021912166266702116" pbc="T T T"
Se       1.54692434       1.09384017       2.67935107       0.00000107      -0.00000221      -0.00000108
Se       4.64077256       3.28152131       8.03805331       0.00000311      -0.00000309      -0.00000117
Te      -0.00000029       0.00000050       0.00000046      -0.00000103       0.00000244      -0.00000716
F        1.61364482       1.14101940       5.35870223      -0.00039577      -0.00027879      -0.00000067
F        4.57405148       3.23434300       5.35870236       0.00039402       0.00027816       0.00000019
F        3.83394957       1.14101931       4.07680863       0.00019627      -0.00027734      -0.00034037
F        2.35374635       3.23434288       6.64059597      -0.00020092       0.00028421       0.00034659
F        2.35374635       3.23434284       4.07680862      -0.00019804       0.00027930      -0.00034255
F        3.83394959       1.14101942       6.64059597       0.00020122      -0.00028288       0.00034598
