9
Lattice="6.325444053149763 -1.5762382222192576e-08 3.6519968936426634 2.1084812883832327 5.96368593448123 3.651996976444623 -5.850778348661518e-08 6.0040109166532e-08 7.303993888623744" Properties=species:S:1:pos:R:3:forces:R:3 energy=-25.627819061279297 free_energy=-25.627819061279297 stress="-8.163883467204869e-05 1.866012588891408e-08 7.435733695437818e-10 1.866012588891408e-08 -8.163730672094971e-05 4.975714062993575e-09 7.435733695437818e-10 4.975714062993575e-09 -8.170123328454792e-05" pbc="T T T"
Se       2.10848117       1.49092186       3.65199704      -0.00000013       0.00000067       0.00000029
Se       6.32544369       4.47276476      10.95599073      -0.00000049       0.00000053       0.00000018
Ti      -0.00000009      -0.00000020       0.00000024      -0.00000279      -0.00000087       0.00000082
Br       2.02916873       1.43483871       7.30399389       0.00227125       0.00160597      -0.00000070
Br       6.40475674       4.52884695       7.30399381      -0.00226824      -0.00160500      -0.00000065
Br       5.31085989       1.43483877       5.40930839      -0.00113653       0.00160716       0.00196669
Br       3.12306574       4.52884691       9.19867936       0.00113557      -0.00160595      -0.00196717
Br       3.12306554       4.52884726       5.40930844       0.00113679      -0.00160854       0.00196827
Br       5.31085974       1.43483889       9.19867917      -0.00113542       0.00160596      -0.00196727
