9
Lattice="6.1517890606716685 5.527541996937095e-08 3.5517370667928723 2.0505964592443906 5.799962219416803 3.5517369740016997 2.2330179139910622e-08 -9.785567921744968e-08 7.1034740949087265" Properties=species:S:1:pos:R:3:forces:R:3 energy=-20.17405891418457 free_energy=-20.17405891418457 stress="-0.0002247059892397374 2.4147201571622645e-08 -2.2930537468823786e-08 2.4147201571622645e-08 -0.00022471054398920387 -6.358479520685023e-09 -2.2930537468823786e-08 -6.358479520685023e-09 -0.00022469482792075723" pbc="T T T"
Se       2.05059651       1.44999087       3.55173674       0.00000012       0.00000070      -0.00000030
Se       6.15179088       4.34997141      10.65520863       0.00000387      -0.00000016      -0.00000388
Te      -0.00000021       0.00000055      -0.00000015      -0.00000426      -0.00000360       0.00000389
Cl       2.00945048       1.42089606       7.10347449       0.00516859       0.00365669       0.00000119
Cl       6.19293461       4.37906591       7.10347525      -0.00516689      -0.00365363       0.00000130
Cl       5.14706240       1.42089607       5.29197258      -0.00258355       0.00365397       0.00447533
Cl       3.05532130       4.37906617       8.91497655       0.00258498      -0.00365683      -0.00447723
Cl       3.05532170       4.37906622       5.29197272       0.00258295      -0.00365455       0.00447750
Cl       5.14706455       1.42089538       8.91497564      -0.00258553       0.00365737      -0.00447768
