9
Lattice="7.531715404771769 1.7395843178715071e-06 4.348439038014592 2.510573420704837 7.10096963906827 4.348439074356036 8.679669033449936e-07 6.58254529300576e-07 8.69687657266641" Properties=species:S:1:pos:R:3:forces:R:3 energy=-33.4163818359375 free_energy=-33.4163818359375 stress="3.927418583771214e-05 -7.86395659702066e-08 7.029174042827435e-08 -7.86395659702066e-08 3.941588875022717e-05 -6.001391739118844e-08 7.029174042827435e-08 -6.001391739118844e-08 3.944598574889824e-05" pbc="T T T"
Se       2.51056568       1.77524341       4.34843411      -0.00000224      -0.00000088      -0.00000205
Se       7.53172554       5.32572145      13.04531595       0.00000299      -0.00000400      -0.00000048
Ta      -0.00000041      -0.00000005       0.00000019       0.00000178       0.00000944       0.00001061
Cl       1.92273645       1.35958659       8.69687828      -0.00217569      -0.00153932      -0.00000007
Cl       8.11955361       5.74138622       8.69687618       0.00217044       0.00153649       0.00000179
Cl       6.57034295       1.35958485       6.01357949       0.00109202      -0.00154820      -0.00189233
Cl       3.47194681       5.74139039      11.38017584      -0.00108838       0.00154272       0.00188792
Cl       3.47194341       5.74138983       6.01358481      -0.00109911       0.00155610      -0.00190431
Cl       6.57034449       1.35958556      11.38017416       0.00109765      -0.00155237       0.00189871
