9
Lattice="6.820077645582085 1.8524289711974387e-07 3.937573454031373 2.2733592771500204 6.430030944558497 3.9375736492209295 -1.2255386228826845e-07 1.5239863964172923e-07 7.875147120332337" Properties=species:S:1:pos:R:3:forces:R:3 energy=-26.8491268157959 free_energy=-26.8491268157959 stress="-0.00017985308659262955 8.438838960955763e-09 -1.6609824626812042e-08 8.438838960955763e-09 -0.00017985179147217423 2.8599478341106988e-08 -1.6609824626812042e-08 2.8599478341106988e-08 -0.0001798777811927721" pbc="T T T"
Se       2.27335949       1.60750768       3.93757363       0.00000203      -0.00000030       0.00000180
Se       6.82007711       4.82252371      11.81272044      -0.00000267       0.00000031      -0.00000174
Ta      -0.00000019       0.00000020      -0.00000015       0.00000194      -0.00000090      -0.00000184
I        2.23040742       1.57713642       7.87514705       0.00338405       0.00239179      -0.00000031
I        6.86302962       4.85289506       7.87514722      -0.00338492      -0.00239313       0.00000075
I        5.70487401       1.57713616       5.86916289      -0.00169331       0.00239339       0.00293139
I        3.38856287       4.85289519       9.88113141       0.00169275      -0.00239186      -0.00292983
I        3.38856297       4.85289471       5.86916292       0.00169303      -0.00239347       0.00293193
I        5.70487389       1.57713600       9.88113149      -0.00169290       0.00239420      -0.00293227
