9
Lattice="6.686713991023233 -5.6420637542774503e-08 3.8605762160238335 2.228904552514402 6.30429447085362 3.8605763164240563 -3.245613409543283e-08 1.0001469234049268e-07 7.721152488263357" Properties=species:S:1:pos:R:3:forces:R:3 energy=-23.580638885498047 free_energy=-23.580638885498047 stress="8.411443559452891e-05 -6.370205696271114e-09 -2.4073540938474025e-09 -6.370205696271114e-09 8.411014277953655e-05 -2.5038562334600556e-09 -2.4073540938474025e-09 -2.5038562334600556e-09 8.411209273617715e-05" pbc="T T T"
Se       2.22890445       1.57607357       3.86057661      -0.00000116       0.00000118       0.00000156
Se       6.68671397       4.72822086      11.58172858       0.00000176      -0.00000091       0.00000001
Ti      -0.00000023       0.00000013       0.00000020       0.00000028      -0.00000183       0.00000038
I        2.16442973       1.53048302       7.72115246       0.00092711       0.00065615      -0.00000044
I        6.75118876       4.77381164       7.72115254      -0.00092635      -0.00065584      -0.00000099
I        5.60449901       1.53048299       5.73502754      -0.00046329       0.00065495       0.00080238
I        3.31111977       4.77381129       9.70727730       0.00046214      -0.00065379      -0.00080180
I        3.31111954       4.77381145       5.73502754       0.00046304      -0.00065563       0.00080302
I        5.60449903       1.53048314       9.70727737      -0.00046343       0.00065576      -0.00080417
