9
Lattice="6.736202118065204 1.671500346739579e-08 3.8891480877928357 2.2454007359712933 6.350952251846843 3.8891480632142104 1.897043732506919e-08 -1.668842488981451e-08 7.77829614272787" Properties=species:S:1:pos:R:3:forces:R:3 energy=-15.606884002685547 free_energy=-15.606884002685547 stress="8.587066258769482e-05 1.7554030451449876e-09 -8.766829928674724e-09 1.7554030451449876e-09 8.58726998558268e-05 -4.156006205846552e-09 -8.766829928674724e-09 -4.156006205846552e-09 8.58748535392806e-05" pbc="T T T"
Se       2.24540074       1.58773769       3.88914790       0.00000053       0.00000107       0.00000138
Se       6.73620224       4.76321452      11.66744428      -0.00000047      -0.00000137      -0.00000031
Te       0.00000008       0.00000009      -0.00000020      -0.00000036      -0.00000038      -0.00000015
I        2.40889071       1.70334280       7.77829610      -0.00021002      -0.00014849       0.00000027
I        6.57271212       4.64760936       7.77829634       0.00021034       0.00014935       0.00000002
I        5.53175668       1.70334292       5.97530862       0.00010552      -0.00014906      -0.00018208
I        3.44984594       4.64760957       9.58128373      -0.00010493       0.00014811       0.00018105
I        3.44984603       4.64760935       5.97530860      -0.00010525       0.00014941      -0.00018194
I        5.53175697       1.70334272       9.58128383       0.00010465      -0.00014863       0.00018170
