9
Lattice="5.912291997363195 -6.334649925714589e-08 3.413463356391078 1.9707639928426268 5.574162228865228 3.413463263821235 8.321535797642669e-08 -5.453227877615249e-08 6.826926568648908" Properties=species:S:1:pos:R:3:forces:R:3 energy=-28.872352600097656 free_energy=-28.872352600097656 stress="-0.0003578095929697156 1.3492257089353643e-08 -2.4145254684526662e-08 1.3492257089353643e-08 -0.0003579029580578208 3.6275601189572626e-08 -2.4145254684526662e-08 3.6275601189572626e-08 -0.0003578362229745835" pbc="T T T"
Se       1.97076352       1.39353964       3.41346208       0.00000237       0.00000239       0.00000203
Se       5.91229254       4.18062140      10.24039175      -0.00000158       0.00000014      -0.00000631
Ti      -0.00000006       0.00000010       0.00000044      -0.00000109       0.00000071      -0.00000626
Cl       1.91028763       1.35077719       6.82692635       0.00581646       0.00411174       0.00000327
Cl       5.97276832       4.22338545       6.82692614      -0.00581735      -0.00411314      -0.00000105
Cl       4.95714864       1.35077732       5.06782089      -0.00290784       0.00411335       0.00503662
Cl       2.92590798       4.22338456       8.58603223       0.00290197      -0.00410804      -0.00503311
Cl       2.92590771       4.22338496       5.06782083       0.00291051      -0.00411376       0.00503644
Cl       4.95714797       1.35077782       8.58603215      -0.00290366       0.00410634      -0.00503170
