9
Lattice="8.485452474274421 1.059834129716969e-06 4.899075352217463 2.8284849947689197 8.0001584747005 4.899075633751646 -5.083697246093072e-07 -1.4664313177553114e-08 9.798151584957635" Properties=species:S:1:pos:R:3:forces:R:3 energy=-29.735939025878906 free_energy=-29.735939025878906 stress="9.246869922208134e-06 2.7032778238123e-09 -1.3635392370758836e-08 2.7032778238123e-09 9.242437954526395e-06 3.251569014040001e-09 -1.3635392370758836e-08 3.251569014040001e-09 9.233960554411169e-06" pbc="T T T"
Se       2.82848226       2.00003867       4.89908059       0.00000035       0.00000008      -0.00000034
Se       8.48545525       6.00011834      14.69723099      -0.00000006      -0.00000006      -0.00000036
Ta       0.00000028       0.00000003      -0.00000078      -0.00000043       0.00000042      -0.00000232
Br       2.06117195       1.45747097       9.79814897      -0.00086187      -0.00061066       0.00000194
Br       9.25276371       6.54269100       9.79815046       0.00086188       0.00060804      -0.00000066
Br       7.45486535       1.45747242       6.68410107       0.00043166      -0.00060904      -0.00074546
Br       3.85907256       6.54268812      12.91219906      -0.00043204       0.00060950       0.00074737
Br       3.85907039       6.54268905       6.68410338      -0.00042900       0.00060926      -0.00074445
Br       7.45486645       1.45746911      12.91219604       0.00042944      -0.00060756       0.00074418
