9
Lattice="8.4854370268589 3.449721921752815e-07 4.899070393267398 2.8284792513096852 8.000145867711668 4.899070536830435 7.010219657397348e-07 6.715253786832945e-07 9.798139572329431" Properties=species:S:1:pos:R:3:forces:R:3 energy=-29.735939025878906 free_energy=-29.735939025878906 stress="1.1227806680835783e-05 1.04315081017603e-08 2.5809352433014965e-09 1.04315081017603e-08 1.1235567399126012e-05 -7.093368115107523e-09 2.5809352433014965e-09 -7.093368115107523e-09 1.1238878869335167e-05" pbc="T T T"
Se       2.82847641       2.00003726       4.89907265       0.00000008      -0.00000015      -0.00000017
Se       8.48544476       6.00011487      14.69720798      -0.00000050      -0.00000025       0.00000002
Ta      -0.00000003      -0.00000043      -0.00000012      -0.00000623      -0.00000021      -0.00000396
Br       2.06119063       1.45748143       9.79813873      -0.00108762      -0.00076952       0.00000024
Br       9.25272643       6.54266353       9.79814119       0.00108957       0.00077183      -0.00000083
Br       7.45484145       1.45748064       6.68411350       0.00054327      -0.00076745      -0.00094239
Br       3.85907329       6.54266463      12.91216657      -0.00054250       0.00076891       0.00094321
Br       3.85907183       6.54266439       6.68411541      -0.00054108       0.00076792      -0.00094229
Br       7.45484305       1.45748121      12.91216596       0.00054495      -0.00077110       0.00094627
