9
Lattice="4.6172057768141475 -6.3149061134861646e-09 2.665745072151708 1.5390685518986573 4.353143629181479 2.66574513176713 -6.750971389144505e-08 2.5277097611023307e-08 5.331490261233672" Properties=species:S:1:pos:R:3:forces:R:3 energy=-47.844581604003906 free_energy=-47.844581604003906 stress="0.00029060879023745656 -8.687534602813685e-08 -2.548395494628153e-09 -8.687534602813685e-08 0.00029065876151435077 -3.0168482823000886e-08 -2.548395494628153e-09 -3.0168482823000886e-08 0.0002907351590692997" pbc="T T T"
Se       1.53906845       1.08828574       2.66574504       0.00000068       0.00000123      -0.00000033
Se       4.61720572       3.26485780       7.99723522      -0.00000102       0.00000053      -0.00000100
Ta      -0.00000031      -0.00000014      -0.00000019       0.00001330       0.00000804       0.00000663
F        1.57178857       1.11142248       5.33149027       0.00100881       0.00071225       0.00000091
F        4.58448615       3.24172148       5.33149025      -0.00102347      -0.00072441       0.00000161
F        3.83131145       1.11142254       4.02695413      -0.00050464       0.00071394       0.00087464
F        2.32496269       3.24172132       6.63602639       0.00050846      -0.00071827      -0.00087702
F        2.32496283       3.24172100       4.02695436       0.00050405      -0.00071153       0.00087237
F        3.83131158       1.11142233       6.63602644      -0.00050634       0.00071844      -0.00087744
