9
Lattice="4.468461737750082 -2.096479178497735e-08 2.5798676467959036 1.4894872298041164 4.212906229926334 2.579867640468347 -1.575262305219843e-08 -1.8888434769937765e-08 5.159735320876154" Properties=species:S:1:pos:R:3:forces:R:3 energy=-42.92625427246094 free_energy=-42.92625427246094 stress="0.0007284588646143675 2.507394114559247e-08 9.709229864540703e-09 2.507394114559247e-08 0.0007284339517354965 3.308317531036664e-08 9.709229864540703e-09 3.308317531036664e-08 0.0007284364546649158" pbc="T T T"
Se       1.48948712       1.05322661       2.57986760       0.00000035      -0.00000159       0.00000081
Se       4.46846169       3.15967961       7.73960296      -0.00000014       0.00000236      -0.00000089
Ti      -0.00000007       0.00000003      -0.00000006       0.00000065      -0.00000273      -0.00000138
F        1.52307546       1.07697684       5.15973535       0.00511768       0.00361621       0.00000029
F        4.43487359       3.13592914       5.15973542      -0.00511283      -0.00361550      -0.00000027
F        3.70692410       1.07697692       3.89888966      -0.00256075       0.00361730       0.00443396
F        2.25102492       3.13592926       6.42058097       0.00255756      -0.00361647      -0.00442812
F        2.25102491       3.13592936       3.89888969       0.00255616      -0.00361587       0.00442743
F        3.70692409       1.07697696       6.42058087      -0.00255910       0.00361630      -0.00443140
