9
Lattice="6.282380603271947 1.1386716771126629e-08 3.6271339869200903 2.094126870893539 5.9230850993974125 3.6271340000824295 2.8480275297316657e-08 3.625912378372463e-08 7.254267924510879" Properties=species:S:1:pos:R:3:forces:R:3 energy=-25.398866653442383 free_energy=-25.398866653442383 stress="-0.00017441125237382948 3.150158889297927e-08 1.2973731422505352e-08 3.150158889297927e-08 -0.00017442653188481927 -1.0484717094527696e-08 1.2973731422505352e-08 -1.0484717094527696e-08 -0.0001744515757309273" pbc="T T T"
Se       2.09412740       1.48077051       3.62713348       0.00000099      -0.00000012       0.00000009
Se       6.28238112       4.44231387      10.88140192       0.00000041      -0.00000151      -0.00000077
V       -0.00000001       0.00000019      -0.00000028      -0.00000194      -0.00000020       0.00000085
Br       1.98969286       1.40692564       7.25426791       0.00319549       0.00225925       0.00000034
Br       6.38681427       4.51615962       7.25426809      -0.00319299      -0.00225653       0.00000014
Br       5.28753409       1.40692561       5.35025859      -0.00159882       0.00225917       0.00276721
Br       3.08897314       4.51615986       9.15827772       0.00159819      -0.00226055      -0.00276864
Br       3.08897310       4.51615986       5.35025850       0.00159790      -0.00225954       0.00276828
Br       5.28753406       1.40692541       9.15827768      -0.00159933       0.00225988      -0.00276765
