9
Lattice="6.503100376245199 4.925121191044188e-08 3.754566713262414 2.167700122517722 6.1311818691540285 3.754566798707705 -8.068427500877356e-08 4.75962650547626e-08 7.509133566274099" Properties=species:S:1:pos:R:3:forces:R:3 energy=-23.346649169921875 free_energy=-23.346649169921875 stress="0.00013896412565372884 -1.019012163538946e-08 -1.0206534284407098e-08 -1.019012163538946e-08 0.00013898644829168916 1.0164662889167175e-08 -1.0206534284407098e-08 1.0164662889167175e-08 0.00013900053454563022" pbc="T T T"
Se       2.16770005       1.53279536       3.75456706      -0.00000024      -0.00000038       0.00000152
Se       6.50310022       4.59838666      11.26370019       0.00000042       0.00000039       0.00000007
V        0.00000001       0.00000019      -0.00000006      -0.00000013      -0.00000027      -0.00000038
I        2.13449410       1.50931544       7.50913333      -0.00076920      -0.00054419       0.00000043
I        6.53630612       4.62186638       7.50913342       0.00077079       0.00054550      -0.00000001
I        5.43585311       1.50931565       5.60309321       0.00038535      -0.00054587      -0.00066768
I        3.23494721       4.62186654       9.41517396      -0.00038557       0.00054459       0.00066729
I        3.23494742       4.62186631       5.60309336      -0.00038555       0.00054491      -0.00066783
I        5.43585345       1.50931536       9.41517391       0.00038421      -0.00054467       0.00066669
