9
Lattice="6.6516033164746 -3.521143279381411e-08 3.840305010071342 2.217201010506645 6.271191993004326 3.840305117089981 -1.0214968063633904e-07 5.883982377939435e-08 7.68061019707111" Properties=species:S:1:pos:R:3:forces:R:3 energy=-25.949146270751953 free_energy=-25.949146270751953 stress="0.00019208852609153837 -2.4649670748999597e-08 -2.775778051855582e-09 -2.4649670748999597e-08 0.00019211319158785045 8.769985626599919e-09 -2.775778051855582e-09 8.769985626599919e-09 0.00019212924235034734" pbc="T T T"
Se       2.21720101       1.56779777       3.84030481      -0.00000175       0.00000047       0.00000034
Se       6.65160317       4.70339449      11.52091536       0.00000218      -0.00000004      -0.00000073
W        0.00000017       0.00000001       0.00000032       0.00000008      -0.00000002      -0.00000304
I        2.19636261       1.55306285       7.68061027      -0.00192092      -0.00135842      -0.00000076
I        6.67244180       4.71812910       7.68061011       0.00191970       0.00135787       0.00000002
I        5.55342185       1.55306298       5.74241108       0.00096096      -0.00135905      -0.00166488
I        3.31538225       4.71812876       9.61880916      -0.00096207       0.00136136       0.00166675
I        3.31538233       4.71812893       5.74241103      -0.00096068       0.00135879      -0.00166437
I        5.55342170       1.55306319       9.61880920       0.00096249      -0.00136097       0.00166671
