9
Lattice="6.82702449904257 2.771482493784781e-09 3.9415830193740495 2.275675011904755 6.436580292721967 3.941582714052579 -1.7308590679549165e-07 -4.963313672387546e-07 7.883166338541894" Properties=species:S:1:pos:R:3:forces:R:3 energy=-32.427101135253906 free_energy=-32.427101135253906 stress="-0.0001811616530176252 3.1412035639277747e-08 -3.7784273487773135e-09 3.1412035639277747e-08 -0.0001811703114071861 -1.6583070916453835e-08 -3.7784273487773135e-09 -1.6583070916453835e-08 -0.00018119947344530374" pbc="T T T"
Se       2.27567555       1.60914211       3.94158251      -0.00000160       0.00000201      -0.00000055
Se       6.82702150       4.82744129      11.82474697       0.00000112      -0.00000016       0.00000005
W        0.00000062      -0.00000047       0.00000045      -0.00000154       0.00000235       0.00000459
Cl       1.86523536       1.31892042       7.88316648       0.00510180       0.00360456       0.00000108
Cl       7.23746542       5.11765758       7.88316738      -0.00510177      -0.00360513      -0.00000037
Cl       5.89440763       1.31892052       5.55692425      -0.00255272       0.00360583       0.00442073
Cl       3.20829410       5.11766112      10.20940805       0.00255391      -0.00361232      -0.00442299
Cl       3.20829243       5.11765845       5.55692423       0.00255340      -0.00360562       0.00441922
Cl       5.89440478       1.31891817      10.20940841      -0.00255252       0.00360863      -0.00442158
