9
Lattice="4.632993296109237 -7.103027084805869e-08 2.6748599465461957 1.5443310801251169 4.368027603964816 2.674859862732233 5.135900534871621e-08 -6.633441331237726e-08 5.34971980413598" Properties=species:S:1:pos:R:3:forces:R:3 energy=-39.873714447021484 free_energy=-39.873714447021484 stress="0.0005034190835431218 -3.8344680319823965e-08 -7.0624373016414665e-09 -3.8344680319823965e-08 0.0005034915520809591 7.663556012005301e-09 -7.0624373016414665e-09 7.663556012005301e-09 0.0005034204805269837" pbc="T T T"
Se       1.54433083       1.09200694       2.67485984       0.00000182      -0.00000085       0.00000075
Se       4.63299324       3.27602071       8.02457968       0.00000063      -0.00000144      -0.00000060
W       -0.00000000       0.00000000      -0.00000006       0.00000478      -0.00000079      -0.00000471
F        1.59167903       1.12548667       5.34971982       0.00643182       0.00454940      -0.00000080
F        4.58564558       3.24254068       5.34971985      -0.00643699      -0.00454962      -0.00000030
F        3.83715378       1.12548674       4.05329435      -0.00321731       0.00455040       0.00557281
F        2.34017073       3.24254069       6.64614521       0.00321586      -0.00454661      -0.00556883
F        2.34017052       3.24254076       4.05329429       0.00321579      -0.00454888       0.00557127
F        3.83715396       1.12548664       6.64614542      -0.00321639       0.00454844      -0.00556959
