9
Lattice="6.660101621392352 1.1727805287010968e-08 3.845211077531982 2.2200338709016543 6.279203200525067 3.845211101699015 -4.199595777190524e-07 -2.6735779170724817e-07 7.690422882455244" Properties=species:S:1:pos:R:3:forces:R:3 energy=-28.380165100097656 free_energy=-28.380165100097656 stress="-6.395047239493579e-05 -1.8565847526019752e-08 -9.90597492922518e-10 -1.8565847526019752e-08 -6.388921610778198e-05 1.9662667050113214e-09 -9.90597492922518e-10 1.9662667050113214e-09 -6.38835335848853e-05" pbc="T T T"
Se       2.22003221       1.56980159       3.84521123      -0.00000325       0.00000368       0.00000006
Se       6.66010135       4.70940304      11.53563481       0.00000120      -0.00000098       0.00000094
W        0.00000016      -0.00000020      -0.00000016       0.00000364      -0.00000272      -0.00000193
Br       2.00859663       1.42029178       7.69042268       0.00087209       0.00061529       0.00000044
Br       6.87153898       4.85891064       7.69042256      -0.00087297      -0.00061756      -0.00000107
Br       5.65580365       1.42029240       5.58470659      -0.00043535       0.00061706       0.00075571
Br       3.22433212       4.85891028       9.79613796       0.00043383      -0.00061427      -0.00075218
Br       3.22433196       4.85891024       5.58470671       0.00043649      -0.00061551       0.00075321
Br       5.65580328       1.42029202       9.79613790      -0.00043575       0.00061510      -0.00075519
