9
Lattice="5.277768456301666 -9.968054271164713e-07 3.0471192039135158 1.759255276964321 4.975922738173546 3.0471190919174043 6.11580923920569e-07 2.9528634314105334e-07 6.09423734853788" Properties=species:S:1:pos:R:3:forces:R:3 energy=-37.829261779785156 free_energy=-37.829261779785156 stress="1.3016763659834396e-05 4.7024528271322197e-07 -1.6470119135192363e-07 4.7024528271322197e-07 1.450893068977166e-05 -2.395499620888586e-07 -1.6470119135192363e-07 -2.395499620888586e-07 1.391708883602405e-05" pbc="T T T"
Se       1.75926194       1.24396080       3.04712204       0.00003361      -0.00007563       0.00000782
Se       5.27775483       3.73194023       9.14136757      -0.00005923       0.00000943       0.00004370
Y       -0.00000067       0.00000105       0.00000160       0.00000140      -0.00003723      -0.00001048
F        1.78876364       1.26484349       6.09423479      -0.00052475      -0.00037843      -0.00001095
F        5.24825944       3.71108262       6.09423407       0.00051299       0.00039906      -0.00002089
F        4.38338866       1.26484670       4.59622634       0.00025196      -0.00033686      -0.00045158
F        2.65363923       3.71108482       7.59224159      -0.00024896       0.00040079       0.00044373
F        2.65364297       3.71108229       4.59622930      -0.00022841       0.00038608      -0.00045756
F        4.38338729       1.26484549       7.59224542       0.00026153      -0.00036742       0.00045630
