9
Lattice="6.929731970597755 -6.425969828910166e-08 4.000882730514327 2.309910589079708 6.533413923370552 4.000882742987907 4.4679827324332325e-08 4.687031812110427e-08 8.001765383640956" Properties=species:S:1:pos:R:3:forces:R:3 energy=-23.102325439453125 free_energy=-23.102325439453125 stress="-6.945522909518331e-05 -2.1435107022682587e-09 -8.594685851903705e-09 -2.1435107022682587e-09 -6.942549953237176e-05 -4.7147272752567915e-09 -8.594685851903705e-09 -4.7147272752567915e-09 -6.944032793398947e-05" pbc="T T T"
Se       2.30991079       1.63335321       4.00088246       0.00000058       0.00000015      -0.00000216
Se       6.92973154       4.90006072      12.00264825      -0.00000209      -0.00000066       0.00000381
Y        0.00000024      -0.00000020       0.00000038      -0.00000109       0.00000094      -0.00000131
I        2.46238579       1.74116949       8.00176560      -0.00448522      -0.00317204       0.00000037
I        6.77725681       4.79224430       8.00176537       0.00448523       0.00317068      -0.00000119
I        5.69853906       1.74116967       6.13337158       0.00224297      -0.00317110      -0.00388399
I        3.54110378       4.79224415       9.87015938      -0.00224146       0.00317176       0.00388385
I        3.54110359       4.79224462       6.13337125      -0.00224070       0.00317204      -0.00388333
I        5.69853889       1.74116968       9.87015914       0.00224181      -0.00317174       0.00388388
