9
Lattice="6.04253427002059 -5.194285148262503e-07 3.4886586820188854 2.014177741725556 5.69695625158282 3.4886584370366105 -1.394670288090327e-08 -3.0990253533816215e-07 6.977317388194128" Properties=species:S:1:pos:R:3:forces:R:3 energy=-30.488689422607422 free_energy=-30.488689422607422 stress="4.721288860309869e-05 1.507622116037055e-08 -8.339188894979088e-09 1.507622116037055e-08 4.718928539659828e-05 8.060335510151617e-09 -8.339188894979088e-09 8.060335510151617e-09 4.725623512058519e-05" pbc="T T T"
Se       2.01417823       1.42423859       3.48865953       0.00000001      -0.00000099       0.00000124
Se       6.04253297       4.27271631      10.46597692      -0.00000182       0.00000029       0.00000105
Zr       0.00000024       0.00000019      -0.00000074       0.00000176       0.00000031       0.00000513
Cl       2.01918786       1.42778049       6.97731730      -0.00035162      -0.00024892       0.00000150
Cl       6.03752423       4.26917546       6.97731619       0.00034948       0.00024886      -0.00000072
Cl       5.03294098       1.42778086       5.23732611       0.00017696      -0.00024942      -0.00030679
Cl       3.02377142       4.26917462       8.71730856      -0.00017343       0.00024679       0.00030100
Cl       3.02377074       4.26917476       5.23732591      -0.00017627       0.00024823      -0.00030337
Cl       5.03294127       1.42778039       8.71730820       0.00017497      -0.00024519       0.00030115
