9
Lattice="6.795573718652643 -1.0567259382958284e-07 3.9234263780231298 2.265191153250637 6.406928302951133 3.9234263549369017 -1.778656858073149e-08 -4.08517313617914e-08 7.846852786853481" Properties=species:S:1:pos:R:3:forces:R:3 energy=-25.12148666381836 free_energy=-25.12148666381836 stress="-0.00010904843657044694 -1.6557885729184818e-08 -2.0711109216531298e-10 -1.6557885729184818e-08 -0.00010905014642048627 -1.1248332931756977e-08 -2.0711109216531298e-10 -1.1248332931756977e-08 -0.00010901079076575115" pbc="T T T"
Se       2.26519145       1.60173230       3.92342590       0.00000016      -0.00000002       0.00000002
Se       6.79557347       4.80519583      11.77027974      -0.00000062       0.00000014       0.00000035
Zr       0.00000003       0.00000020       0.00000012       0.00000037      -0.00000117       0.00000018
I        2.31621097       1.63780845       7.84685287       0.00055207       0.00038990       0.00000023
I        6.74455365       4.76911965       7.84685275      -0.00055137      -0.00038957      -0.00000107
I        5.63746818       1.63780855       5.92932405      -0.00027478       0.00038962       0.00047581
I        3.42329695       4.76911927       9.76438124       0.00027410      -0.00038864      -0.00047487
I        3.42329675       4.76911964       5.92932418       0.00027578      -0.00038863       0.00047491
I        5.63746794       1.63780878       9.76438120      -0.00027571       0.00038841      -0.00047541
