9
Lattice="4.541362168869431 1.673146759863238e-08 2.6219565723162392 1.51378737196341 4.281637294682145 2.62195663022616 -4.7339765420994897e-08 3.7450618434440234e-08 5.243913226627352" Properties=species:S:1:pos:R:3:forces:R:3 energy=-44.52167892456055 free_energy=-44.52167892456055 stress="0.00027862124261446297 -5.0348774038866395e-08 -4.768136463439987e-08 -5.0348774038866395e-08 0.00027868017787113786 9.093525932257762e-08 -4.768136463439987e-08 9.093525932257762e-08 0.000278659223113209" pbc="T T T"
Se       1.51378750       1.07040911       2.62195646      -0.00000005       0.00000169       0.00000027
Se       4.54136239       3.21122799       7.86586974      -0.00000145       0.00000007      -0.00000063
Zr      -0.00000009       0.00000007       0.00000001       0.00000616       0.00000038       0.00000418
F        1.61509188       1.14204252       5.24391332      -0.00538111      -0.00380696      -0.00000035
F        4.44005756       3.13959502       5.24391331       0.00537756       0.00380149       0.00000041
F        3.73381605       1.14204268       4.02066759       0.00269169      -0.00380732      -0.00466283
F        2.32133332       3.13959483       6.46715888      -0.00269092       0.00380696       0.00466436
F        2.32133337       3.13959477       4.02066736      -0.00269171       0.00380723      -0.00466438
F        3.73381599       1.14204248       6.46715907       0.00268973      -0.00380394       0.00465900
