9
Lattice="6.76072876409575 1.0974013829569109e-07 3.9033084987423465 2.2535762676832616 6.37407624558953 3.9033086554571113 -1.0286284126376041e-07 1.1920061773072145e-07 7.806617175648272" Properties=species:S:1:pos:R:3:forces:R:3 energy=-22.388017654418945 free_energy=-22.388017654418945 stress="0.00010847921657841653 1.484496348069797e-08 6.6957213107343705e-09 1.484496348069797e-08 0.00010847446537809446 -3.857366870363421e-09 6.6957213107343705e-09 -3.857366870363421e-09 0.00010846243822015822" pbc="T T T"
Sn       2.25357619       1.59351959       3.90330833      -0.00000018       0.00000111      -0.00000081
Sn       6.76072833       4.78055714      11.70992571      -0.00000061      -0.00000069      -0.00000031
As       0.00000003       0.00000015      -0.00000011      -0.00000075      -0.00000120       0.00000114
I        2.30525639       1.63006251       7.80661728      -0.00337688      -0.00238820      -0.00000002
I        6.70904849       4.74401360       7.80661717       0.00337871       0.00238932       0.00000004
I        5.60810074       1.63006263       5.89971924       0.00168874      -0.00238810      -0.00292474
I        3.40620426       4.74401386       9.71351528      -0.00168881       0.00238718       0.00292530
I        3.40620448       4.74401368       5.89971923      -0.00168880       0.00238828      -0.00292577
I        5.60810077       1.63006274       9.71351519       0.00168854      -0.00238771       0.00292525
