9
Lattice="4.582973765964544 -2.276852730706687e-08 2.6459811250891416 1.5276578988098182 4.320869100833532 2.6459811280543795 9.114822325558105e-09 1.0076823260913408e-08 5.291962234390963" Properties=species:S:1:pos:R:3:forces:R:3 energy=-49.222251892089844 free_energy=-49.222251892089844 stress="0.0004367767251096666 1.7533015039816746e-08 6.982786260323337e-08 1.7533015039816746e-08 0.00043671776074916124 2.570134682855496e-08 6.982786260323337e-08 2.570134682855496e-08 0.00043667928548529744" pbc="T T T"
Sn       1.52765793       1.08021704       2.64598123      -0.00000083      -0.00000058       0.00000100
Sn       4.58297348       3.24065189       7.93794330      -0.00000068       0.00000013       0.00000051
As      -0.00000013      -0.00000009       0.00000006       0.00000058       0.00000157      -0.00000084
O        1.50384752       1.06338059       5.29196223      -0.00277758      -0.00196671       0.00000056
O        4.60678439       3.25748857       5.29196203       0.00277758       0.00196528      -0.00000164
O        3.83105012       1.06338059       3.94835139       0.00138950      -0.00196552      -0.00240684
O        2.27958148       3.25748851       6.63557296      -0.00139099       0.00196505       0.00240719
O        2.27958155       3.25748834       3.94835123      -0.00138873       0.00196493      -0.00240850
O        3.83105033       1.06338092       6.63557337       0.00138986      -0.00196409       0.00240827
