9
Lattice="5.613395171702009 -9.407614243692989e-09 3.240895231390341 1.8711317497494184 5.292359666530176 3.2408951712565175 1.2047401517459117e-07 1.153935730096172e-08 6.4817902541135926" Properties=species:S:1:pos:R:3:forces:R:3 energy=-36.143733978271484 free_energy=-36.143733978271484 stress="0.00014897645451128483 1.8888492547830538e-08 3.872331788556949e-09 1.8888492547830538e-08 0.00014899170491844416 1.5548895504480242e-08 3.872331788556949e-09 1.5548895504480242e-08 0.00014899682719260454" pbc="T T T"
Sn       1.87113166       1.32308978       3.24089497      -0.00000000      -0.00000123      -0.00000055
Sn       5.61339516       3.96926966       9.72268572      -0.00000100       0.00000043       0.00000048
As       0.00000004      -0.00000001      -0.00000006      -0.00000194      -0.00000044       0.00000673
S        1.92088601       1.35827088       6.48179025      -0.00022864      -0.00016046      -0.00000025
S        5.56364086       3.93408841       6.48179005       0.00023103       0.00016236      -0.00000011
S        4.65295236       1.35827155       4.90443116       0.00011596      -0.00016415      -0.00020015
S        2.83157462       3.93408841       8.05914963      -0.00011325       0.00015980       0.00019538
S        2.83157511       3.93408864       4.90443111      -0.00011525       0.00016308      -0.00019765
S        4.65295242       1.35827122       8.05914977       0.00011340      -0.00015914       0.00019670
