9
Lattice="5.850209376383942 6.143425725513437e-08 3.3776201149348815 1.950069739761445 5.515630821236378 3.3776203059581245 -1.1822613371094127e-07 1.5035620820822345e-07 6.755240434643448" Properties=species:S:1:pos:R:3:forces:R:3 energy=-29.435665130615234 free_energy=-29.435665130615234 stress="0.00024475777172483504 -4.1897930458389965e-08 -4.3859341047891576e-08 -4.1897930458389965e-08 0.00024481734726577997 1.6903834776371696e-08 -4.3859341047891576e-08 1.6903834776371696e-08 0.0002447551232762635" pbc="T T T"
Sn       1.95007119       1.37890812       3.37762112       0.00000636       0.00000119       0.00000464
Sn       5.85020879       4.13672444      10.13286047      -0.00000028       0.00000187      -0.00000302
As      -0.00000036       0.00000031       0.00000012       0.00000262      -0.00000950       0.00000303
Cl       1.95799184       1.38450893       6.75524014      -0.00402372      -0.00284862      -0.00000241
Cl       5.84228697       4.13112161       6.75524067       0.00402623       0.00284927      -0.00000017
Cl       4.87121254       1.38450961       5.07329107       0.00201035      -0.00284972      -0.00348933
Cl       2.92906609       4.13112068       8.43718906      -0.00201545       0.00285188       0.00349351
Cl       2.92906553       4.13112091       5.07329119      -0.00201532       0.00284841      -0.00349121
Cl       4.87121343       1.38450955       8.43718959       0.00200910      -0.00284483       0.00348489
