9
Lattice="6.2657288229983354 3.2364257935735425e-09 3.617520266059438 2.0885762681065216 5.907385729668087 3.6175202821287407 -1.3468300383705121e-08 1.0157309965808055e-08 7.235040555446542" Properties=species:S:1:pos:R:3:forces:R:3 energy=-25.612751007080078 free_energy=-25.612751007080078 stress="5.048405364505015e-05 1.3607993620823322e-09 4.9129953438864504e-09 1.3607993620823322e-09 5.046676960773766e-05 -4.108181794748589e-09 4.9129953438864504e-09 -4.108181794748589e-09 5.04786403325852e-05" pbc="T T T"
Sn       2.08857737       1.47684648       3.61752042       0.00000447      -0.00000047      -0.00000000
Sn       6.26572887       4.43053885      10.85255933       0.00000076      -0.00000399      -0.00000823
As      -0.00000007      -0.00000009      -0.00000013      -0.00000089       0.00000068       0.00000004
Br       2.11869169       1.49814169       7.23504058      -0.00018612      -0.00012941      -0.00000011
Br       6.23561290       4.40924435       7.23504123       0.00018480       0.00013179       0.00000353
Br       5.20638274       1.49814115       5.45236112       0.00009012      -0.00013013      -0.00016002
Br       3.14792221       4.40924444       9.01772020      -0.00009093       0.00013011       0.00016112
Br       3.14792168       4.40924441       5.45236136      -0.00009440       0.00013013      -0.00015947
Br       5.20638286       1.49814170       9.01772027       0.00009218      -0.00012871       0.00016307
