9
Lattice="5.692368852555648 1.316251382805452e-07 3.286490839232801 1.8974563850322088 5.366817122088366 3.2864908795033694 1.2454979899098957e-08 5.812849419243963e-08 6.572981656892452" Properties=species:S:1:pos:R:3:forces:R:3 energy=-34.05628967285156 free_energy=-34.05628967285156 stress="4.5826596760889515e-05 6.188858492350846e-08 2.2104966745928323e-08 6.188858492350846e-08 4.5787393901264295e-05 1.3543088428491501e-08 2.2104966745928323e-08 1.3543088428491501e-08 4.5761626097373664e-05" pbc="T T T"
Sn       1.89745702       1.34170473       3.28649042       0.00000061       0.00000002       0.00000035
Sn       5.69236867       4.02511373       9.85947307       0.00000139      -0.00000018      -0.00000028
As       0.00000036       0.00000044      -0.00000090      -0.00000262      -0.00000261       0.00000666
Se       2.14328692       1.51553242       6.57298171       0.00179043       0.00126645      -0.00000029
Se       5.44653857       3.85128407       6.57298090      -0.00179023      -0.00126588       0.00000110
Se       4.62072574       1.51553294       5.14263152      -0.00089641       0.00126700       0.00155088
Se       2.96909870       3.85128475       8.00333268       0.00089833      -0.00126876      -0.00155516
Se       2.96909948       3.85128452       5.14263164       0.00089523      -0.00126645       0.00155096
Se       4.62072552       1.51553177       8.00333257      -0.00089672       0.00127044      -0.00155419
