9
Lattice="5.037352147345853 2.0601797020826637e-08 2.9083164835531465 1.6791173830227983 4.7492610403752415 2.9083165162012263 4.6974647855566e-08 7.320166836124246e-08 5.816632885743833" Properties=species:S:1:pos:R:3:forces:R:3 energy=-41.0260124206543 free_energy=-41.0260124206543 stress="0.00015709223225712776 1.515749481484363e-08 2.678486044072059e-10 1.515749481484363e-08 0.00015708971477579325 1.4640020751244265e-08 2.678486044072059e-10 1.4640020751244265e-08 0.0001570870663272217" pbc="T T T"
Sn       1.67911752       1.18731526       2.90831656       0.00000019       0.00000003      -0.00000047
Sn       5.03735195       3.56194596       8.72494916      -0.00000040       0.00000056       0.00000008
As      -0.00000003       0.00000009       0.00000003      -0.00000078      -0.00000025       0.00000350
F        1.65809774       1.17245179       5.81663310       0.00089336       0.00063103      -0.00000047
F        5.05837216       3.57680908       5.81663312      -0.00089335      -0.00063147      -0.00000031
F        4.20830348       1.17245176       4.34427119      -0.00044657       0.00063129       0.00077306
F        2.50816630       3.57680906       7.28899489       0.00044762      -0.00063164      -0.00077433
F        2.50816600       3.57680928       4.34427093       0.00044737      -0.00063276       0.00077417
F        4.20830329       1.17245214       7.28899478      -0.00044740       0.00063316      -0.00077531
