9
Lattice="5.582527028771485 3.921238639185906e-07 3.2230734418500573 1.8608426871811705 5.263256693652411 3.2230734859144463 1.393869249651061e-07 1.5252909594639786e-07 6.446146642274864" Properties=species:S:1:pos:R:3:forces:R:3 energy=-30.39046287536621 free_energy=-30.39046287536621 stress="3.7169887946220115e-05 -3.9043143829076143e-08 6.005459685098913e-09 -3.9043143829076143e-08 3.716504943440668e-05 2.7551324777164155e-08 6.005459685098913e-09 2.7551324777164155e-08 3.731872857315466e-05" pbc="T T T"
Sn       1.86084259       1.31581478       3.22307307      -0.00000148       0.00000128      -0.00000117
Sn       5.58252726       3.94744286       9.66921964      -0.00000050       0.00000089       0.00000128
B       -0.00000023       0.00000110      -0.00001293      -0.00000103       0.00001161      -0.00014662
Cl       1.68665636       1.19264634       6.44614791      -0.00295021      -0.00208884       0.00000472
Cl       5.75671314       4.07061054       6.44614757       0.00294882       0.00208323       0.00000666
Cl       4.73919849       1.19264705       4.68376289       0.00145893      -0.00206481      -0.00252613
Cl       2.70416930       4.07061280       8.20853618      -0.00148819       0.00210654       0.00259109
Cl       2.70417172       4.07060929       4.68376350      -0.00145857       0.00205963      -0.00252370
Cl       4.73920090       1.19264405       8.20853653       0.00149220      -0.00210947       0.00259382
