9
Lattice="6.426293480790903 -5.7236262482400366e-08 3.710222370144342 2.1420977626963777 6.058767611430365 3.710222387934248 6.718629939001022e-10 2.226321347234796e-08 7.420444739124905" Properties=species:S:1:pos:R:3:forces:R:3 energy=-25.267032623291016 free_energy=-25.267032623291016 stress="0.00013730101636610925 -2.092311568446803e-08 -5.647311063228244e-09 -2.092311568446803e-08 0.00013730772479902953 1.884412181851758e-09 -5.647311063228244e-09 1.884412181851758e-09 0.00013732552179135382" pbc="T T T"
Sn       2.14209826       1.51469283       3.71022254       0.00000249       0.00000500       0.00000064
Sn       6.42629394       4.54407609      11.13066741       0.00000256       0.00000120       0.00000225
Bi       0.00000017      -0.00000004       0.00000026      -0.00000012      -0.00000080      -0.00000316
Br       2.27277284       1.60709294       7.42044476      -0.00145269      -0.00102696       0.00000007
Br       6.29561850       4.45167422       7.42044455       0.00145399       0.00102616      -0.00000161
Br       5.28990663       1.60709320       5.67850164       0.00072631      -0.00102902      -0.00126056
Br       3.27848405       4.45167404       9.16238774      -0.00073049       0.00102843       0.00126196
Br       3.27848391       4.45167411       5.67850137      -0.00072899       0.00102677      -0.00126030
Br       5.28990667       1.60709290       9.16238775       0.00072689      -0.00103080       0.00126073
