9
Lattice="6.07119674909157 2.1089168533979246e-07 3.50520701481243 2.0237324472631735 5.723979185890914 3.505207017002827 -6.677255264526382e-08 -4.453265145142267e-08 7.01041414527834" Properties=species:S:1:pos:R:3:forces:R:3 energy=-28.959299087524414 free_energy=-28.959299087524414 stress="0.00011450838064774871 -3.604454068550922e-09 6.842484356894829e-09 -3.604454068550922e-09 0.0001145019123214297 -7.57423190833606e-09 6.842484356894829e-09 -7.57423190833606e-09 0.00011449078738223761" pbc="T T T"
Sn       2.02373223       1.43099520       3.50520808       0.00000030       0.00000176       0.00000518
Sn       6.07119707       4.29298467      10.51562246       0.00000082      -0.00000018       0.00000545
Bi      -0.00000017      -0.00000027      -0.00000090       0.00000244       0.00000235       0.00000770
Cl       2.13250314       1.50790742       7.01041341      -0.00036083      -0.00025444      -0.00000308
Cl       5.96242634       4.21607144       7.01041346       0.00035853       0.00025226      -0.00000224
Cl       5.00494494       1.50790781       5.35200834       0.00018014      -0.00025490      -0.00031476
Cl       3.08998345       4.21607180       8.66881985      -0.00018005       0.00025219       0.00030803
Cl       3.08998415       4.21607206       5.35200876      -0.00018041       0.00025510      -0.00031426
Cl       5.00494536       1.50790726       8.66881933       0.00017912      -0.00025414       0.00030794
