9
Lattice="6.3597659381713845 1.8053809868732693e-07 3.6718125223646303 2.119922105530813 5.9960446982835505 3.6718125987005714 5.633410896302729e-09 9.74755091870739e-08 7.343625034971945" Properties=species:S:1:pos:R:3:forces:R:3 energy=-22.701976776123047 free_energy=-22.701976776123047 stress="-6.38549608993344e-05 -1.4798744452093615e-08 -2.9075259977418e-09 -1.4798744452093615e-08 -6.381684943335131e-05 5.15859044369904e-09 -2.9075259977418e-09 5.15859044369904e-09 -6.382531864801422e-05" pbc="T T T"
Sn       2.11992040       1.49901132       3.67181175      -0.00000565      -0.00000060      -0.00000146
Sn       6.35976553       4.49703421      11.01543802      -0.00000255       0.00000099       0.00000069
B       -0.00000001      -0.00000001       0.00000032      -0.00000137       0.00000091       0.00000033
I        2.03727941       1.44057413       7.34362506       0.00179108       0.00126476       0.00000031
I        6.44240880       4.55547042       7.34362515      -0.00178733      -0.00126492      -0.00000030
I        5.34112718       1.44057424       5.43614836      -0.00089170       0.00126503       0.00154900
I        3.13856215       4.55547080       9.25110213       0.00089477      -0.00126519      -0.00154867
I        3.13856201       4.55547078       5.43614807       0.00089581      -0.00126479       0.00154937
I        5.34112671       1.44057402       9.25110175      -0.00089302       0.00126380      -0.00154945
