9
Lattice="5.1986496334472 -5.066520250446239e-08 3.0014417707998673 1.7328831496269779 4.901333868447976 3.001441794623334 -5.701241801768517e-08 -1.113620135670083e-08 6.002883640348139" Properties=species:S:1:pos:R:3:forces:R:3 energy=-40.828208923339844 free_energy=-40.828208923339844 stress="-1.811733454815112e-05 -3.698334438695383e-08 5.948948000877863e-09 -3.698334438695383e-08 -1.8089076547767036e-05 -3.3169407220867697e-09 5.948948000877863e-09 -3.3169407220867697e-09 -1.805450301617384e-05" pbc="T T T"
Sn       1.73288326       1.22533335       3.00144216      -0.00000018       0.00000056       0.00000080
Sn       5.19864959       3.67600065       9.00432554       0.00000048       0.00000033       0.00000039
Bi       0.00000002       0.00000012      -0.00000010       0.00000483       0.00000044       0.00000293
F        1.81114200       1.28067073       6.00288333      -0.00131184      -0.00092813      -0.00000029
F        5.12039093       3.62066327       6.00288365       0.00130904       0.00092602      -0.00000067
F        4.29307840       1.28067061       4.56993690       0.00065586      -0.00092790      -0.00113690
F        2.63845403       3.62066315       7.43583026      -0.00065687       0.00092852       0.00113663
F        2.63845394       3.62066292       4.56993693      -0.00065702       0.00092906      -0.00113907
F        4.29307855       1.28067055       7.43583021       0.00065565      -0.00092855       0.00113606
