9
Lattice="5.909233015024002 1.6620787911210525e-07 3.411697019188108 1.9697444805822273 5.57127848719649 3.4116970442363326 -1.7525623954111266e-07 -9.324720286212581e-08 6.8233943419289576" Properties=species:S:1:pos:R:3:forces:R:3 energy=-26.53705406188965 free_energy=-26.53705406188965 stress="3.735825885087252e-05 -2.6791912688395314e-08 2.057984183068129e-08 -2.6791912688395314e-08 3.74019073206e-05 1.7839241195360955e-08 2.057984183068129e-08 1.7839241195360955e-08 3.740324609680101e-05" pbc="T T T"
Sn       1.96974453       1.39281877       3.41169683       0.00000117      -0.00000140       0.00000013
Sn       5.90923396       4.17845964      10.23509194       0.00000330       0.00000070       0.00000347
B        0.00000177      -0.00000003      -0.00000185       0.00001995       0.00000046      -0.00002672
Br       1.86377513       1.31788861       6.82339418      -0.00087056      -0.00061738       0.00000236
Br       6.01520114       4.25339035       6.82339349       0.00085565       0.00060809       0.00000351
Br       4.97734486       1.31788867       5.02577424       0.00042931      -0.00061036      -0.00074233
Br       2.90163059       4.25339084       8.62101544      -0.00043625       0.00061776       0.00075597
Br       2.90163171       4.25339007       5.02577410      -0.00043452       0.00061387      -0.00074689
Br       4.97734550       1.31788739       8.62101530       0.00043190      -0.00061207       0.00075036
