9
Lattice="5.707815569178007 -1.691280224826341e-07 3.295408581518726 1.9026051016464067 5.381379232238565 3.295408457892124 8.733144782461811e-08 -8.965835822057444e-08 6.590817011774927" Properties=species:S:1:pos:R:3:forces:R:3 energy=-32.20916748046875 free_energy=-32.20916748046875 stress="0.00010007467062678188 -1.3236265417049253e-08 -2.713072611015832e-08 -1.3236265417049253e-08 0.00010008510435000062 -1.7837763266470574e-08 -2.713072611015832e-08 -1.7837763266470574e-08 0.00010014671715907753" pbc="T T T"
Sn       1.90260458       1.34534483       3.29540844      -0.00000126      -0.00000048       0.00000097
Sn       5.70781585       4.03603358       9.88622607       0.00000070      -0.00000065      -0.00000121
Ga       0.00000004       0.00000051       0.00000005       0.00000024      -0.00000200      -0.00000304
Se       2.09866158       1.48397772       6.59081764      -0.00716642      -0.00506657       0.00000085
Se       5.51175947       3.89740129       6.59081732       0.00716770       0.00506819       0.00000015
Se       4.65848461       1.48397745       5.11290247       0.00358305      -0.00506548      -0.00620499
Se       2.95193627       3.89740108       8.06873051      -0.00358475       0.00506840       0.00620696
Se       2.95193607       3.89740147       5.11290288      -0.00358282       0.00506723      -0.00620587
Se       4.65848456       1.48397792       8.06873083       0.00358357      -0.00506870       0.00620624
