9
Lattice="4.540233418610414 5.017318142485843e-09 2.621304918047798 1.5134111532118064 4.280573140454896 2.6213049025552406 -9.615755834963445e-09 -2.577379819886201e-08 5.242609852750585" Properties=species:S:1:pos:R:3:forces:R:3 energy=-44.622623443603516 free_energy=-44.622623443603516 stress="0.0001198401878355071 1.5007698195290686e-08 2.7418066039786027e-08 1.5007698195290686e-08 0.00011987573816441 -1.1187502479970135e-08 2.7418066039786027e-08 -1.1187502479970135e-08 0.00011982019350398332" pbc="T T T"
Sn       1.51341098       1.07014336       2.62130512      -0.00000035       0.00000045       0.00000313
Sn       4.54023291       3.21042986       7.86391484      -0.00000235       0.00000060       0.00000243
Ga      -0.00000011       0.00000002       0.00000028      -0.00000223      -0.00000200      -0.00000534
O        1.58362229       1.11979021       5.24260965       0.00048703       0.00034606      -0.00000244
O        4.47002241       3.16078280       5.24260976      -0.00048649      -0.00034392       0.00000034
O        3.74842215       1.11978986       3.99276230      -0.00024375       0.00034451       0.00042278
O        2.30522230       3.16078306       6.49245718       0.00024363      -0.00034326      -0.00042266
O        2.30522311       3.16078288       3.99276179       0.00024861      -0.00034535       0.00042009
O        3.74842216       1.11979046       6.49245760      -0.00024343       0.00034285      -0.00041884
