9
Lattice="6.631054223486399 4.721342362569056e-08 3.828440993970904 2.210351474345714 6.2518177692577925 3.828440955859384 1.9597953716081405e-08 -3.281898528731404e-08 7.656881953997184" Properties=species:S:1:pos:R:3:forces:R:3 energy=-21.711246490478516 free_energy=-21.711246490478516 stress="-6.646067777182907e-05 5.161836735823044e-09 -3.442567897415927e-10 5.161836735823044e-09 -6.646382826147601e-05 7.875613050600805e-09 -3.442567897415927e-10 7.875613050600805e-09 -6.646686233580112e-05" pbc="T T T"
Sn       2.21035182       1.56295480       3.82844109       0.00000080       0.00000127       0.00000093
Sn       6.63105453       4.68886313      11.48532337       0.00000040      -0.00000097       0.00000105
Ga       0.00000014       0.00000014       0.00000023      -0.00000116      -0.00000053       0.00000062
I        2.24906981       1.59033284       7.65688198      -0.00351249      -0.00248320      -0.00000049
I        6.59233519       4.66148487       7.65688175       0.00351468       0.00248445       0.00000009
I        5.50651938       1.59033285       5.77619255       0.00175605      -0.00248427      -0.00304298
I        3.33488625       4.66148496       9.53757082      -0.00175682       0.00248323       0.00304203
I        3.33488659       4.66148481       5.77619272      -0.00175707       0.00248354      -0.00304329
I        5.50651917       1.59033273       9.53757111       0.00175563      -0.00248354       0.00304215
