9
Lattice="5.482118042066418 -3.919280553646725e-08 3.165102304227034 1.8273726423170504 5.1685903853187485 3.1651023066872868 1.596995615840654e-08 1.4305645353382884e-08 6.330204580793287" Properties=species:S:1:pos:R:3:forces:R:3 energy=-34.439414978027344 free_energy=-34.439414978027344 stress="0.00033040205016732216 -1.8274246116334325e-08 -6.32697361169221e-09 -1.8274246116334325e-08 0.00033042734139598906 3.164603512573194e-08 -6.32697361169221e-09 3.164603512573194e-08 0.0003304583369754255" pbc="T T T"
Sn       1.82737271       1.29214746       3.16510241      -0.00000181       0.00000164       0.00000063
Sn       5.48211789       3.87644280       9.49530686      -0.00000007       0.00000032       0.00000079
Ga      -0.00000011       0.00000025       0.00000023       0.00000234      -0.00000566      -0.00000183
S        1.90882637       1.34974429       6.33020484      -0.00671709      -0.00475214       0.00000001
S        5.40066410       3.81884633       6.33020463       0.00672057       0.00475183      -0.00000058
S        4.52770497       1.34974421       4.81819449       0.00335722      -0.00475073      -0.00581589
S        2.78178604       3.81884608       7.84221422      -0.00336108       0.00475469       0.00582355
S        2.78178587       3.81884606       4.81819460      -0.00335930       0.00475122      -0.00582223
S        4.52770497       1.34974400       7.84221450       0.00335920      -0.00475101       0.00581543
