9
Lattice="6.130178077370523 1.5905845050833207e-08 3.5392599403359046 2.0433927032749897 5.779587327665718 3.539259947572466 -3.767875672952696e-09 6.198655203236914e-09 7.0785198871979595" Properties=species:S:1:pos:R:3:forces:R:3 energy=-25.810901641845703 free_energy=-25.810901641845703 stress="0.00028701190603896976 -1.460227772032141e-10 1.8132069179443988e-09 -1.460227772032141e-10 0.00028701062547042966 1.6508827638261891e-09 1.8132069179443988e-09 1.6508827638261891e-09 0.00028700995608232915" pbc="T T T"
Sn       2.04339266       1.44489679       3.53925995      -0.00000039      -0.00000089       0.00000002
Sn       6.13017816       4.33469056      10.61777980       0.00000026       0.00000012       0.00000003
Ga       0.00000008       0.00000004      -0.00000003       0.00000062       0.00000028      -0.00000006
Br       2.06347164       1.45909483       7.07851988       0.00728275       0.00515010       0.00000002
Br       6.11009908       4.32049248       7.07851991      -0.00728326      -0.00514996      -0.00000003
Br       5.09844223       1.45909474       5.32627877      -0.00364190       0.00514992       0.00630753
Br       3.07512850       4.32049263       8.83076105       0.00364187      -0.00514972      -0.00630799
Br       3.07512850       4.32049261       5.32627874       0.00364185      -0.00514974       0.00630793
Br       5.09844226       1.45909473       8.83076103      -0.00364182       0.00514985      -0.00630751
