9
Lattice="6.282150626138549 1.0231260738752523e-08 3.6270013447999307 2.0940502125162217 5.922868438348138 3.627001354919864 3.755121349212975e-09 1.5049614868828384e-08 7.2540026830958" Properties=species:S:1:pos:R:3:forces:R:3 energy=-29.179187774658203 free_energy=-29.179187774658203 stress="5.018675801693462e-05 -1.3187718472806864e-08 -7.715188488077729e-09 -1.3187718472806864e-08 5.018007504986599e-05 1.2991208109269792e-09 -7.715188488077729e-09 1.2991208109269792e-09 5.0180195103166625e-05" pbc="T T T"
Sn       2.09405020       1.48071712       3.62700134       0.00000015       0.00000001       0.00000008
Sn       6.28215065       4.44215130      10.88100392       0.00000038       0.00000057       0.00000060
Ga      -0.00000002      -0.00000010      -0.00000010      -0.00000051       0.00000072      -0.00000089
Te       2.24832396       1.58980517       7.25400270       0.00729376       0.00515747      -0.00000005
Te       6.12787693       4.33306338       7.25400281      -0.00729411      -0.00515770      -0.00000042
Te       5.15798862       1.58980521       5.57410704      -0.00364631       0.00515714       0.00631608
Te       3.21821221       4.33306332       8.93389842       0.00364618      -0.00515691      -0.00631609
Te       3.21821218       4.33306327       5.57410699       0.00364693      -0.00515781       0.00631669
Te       5.15798867       1.58980519       8.93389838      -0.00364646       0.00515655      -0.00631599
