9
Lattice="6.2042859027002075 -1.7365395453470827e-09 3.582046112200913 2.0680953382209206 5.849456665796097 3.5820460447234956 4.0460813699458424e-08 -5.403249735726694e-08 7.164092154321628" Properties=species:S:1:pos:R:3:forces:R:3 energy=-29.83262825012207 free_energy=-29.83262825012207 stress="0.0002381396625423804 3.764638378811469e-08 5.476020970007767e-09 3.764638378811469e-08 0.00023809378035366535 -1.2639248536672198e-09 5.476020970007767e-09 -1.2639248536672198e-09 0.00023807799152564257" pbc="T T T"
Sn       2.06809553       1.46236400       3.58204606       0.00000072      -0.00000049      -0.00000031
Sn       6.20428612       4.38709274      10.74613867       0.00000079       0.00000070       0.00000137
Ir       0.00000012      -0.00000026       0.00000034      -0.00000297       0.00000262       0.00000080
Br       2.01938015       1.42791709       7.16409207      -0.00608261      -0.00430137       0.00000004
Br       6.25300138       4.42153964       7.16409192       0.00608248       0.00430053      -0.00000062
Br       5.19459593       1.42791697       5.33088040       0.00303969      -0.00429779      -0.00526462
Br       3.07778502       4.42153953       8.99730377      -0.00303860       0.00429721       0.00526293
Br       3.07778520       4.42153968       5.33088045      -0.00303924       0.00429774      -0.00526377
Br       5.19459567       1.42791708       8.99730355       0.00303971      -0.00429915       0.00526420
