9
Lattice="5.001748281202995 3.63074989249041e-08 2.8877607091515176 1.6672494296229465 4.715693604520397 2.8877607640155047 -1.4417899661474255e-08 5.699939831946969e-08 5.775521443275552" Properties=species:S:1:pos:R:3:forces:R:3 energy=-42.549537658691406 free_energy=-42.549537658691406 stress="-7.110030128387734e-05 -3.2707340835713694e-08 -3.648709556713925e-09 -3.2707340835713694e-08 -7.106739212758839e-05 5.590185647719181e-09 -3.648709556713925e-09 5.590185647719181e-09 -7.104812539182603e-05" pbc="T T T"
Sn       1.66724957       1.17892337       2.88776059      -0.00000104       0.00000029       0.00000038
Sn       5.00174810       3.53677041       8.66328239       0.00000003      -0.00000033      -0.00000014
Ir      -0.00000023       0.00000004      -0.00000019      -0.00000258       0.00000043      -0.00000312
F        1.67093863       1.18153217       5.77552129       0.00050163       0.00035461       0.00000031
F        4.99805900       3.53416115       5.77552135      -0.00049851      -0.00035185       0.00000019
F        4.16627891       1.18153264       4.33483681      -0.00024866       0.00035109       0.00042940
F        2.50271895       3.53416102       7.21620669       0.00024820      -0.00035134      -0.00043087
F        2.50271904       3.53416124       4.33483661       0.00024927      -0.00035296       0.00043253
F        4.16627889       1.18153275       7.21620627      -0.00024832       0.00035013      -0.00042880
