9
Lattice="5.835127079447031 1.2660552813835518e-07 3.3689122464833456 1.9450424596349263 5.50141083441466 3.36891228033719 3.7043157567051146e-08 6.765579638108018e-08 6.737824428806045" Properties=species:S:1:pos:R:3:forces:R:3 energy=-33.14582061767578 free_energy=-33.14582061767578 stress="0.00014585864846594632 -4.1979500764455224e-08 4.028333933092654e-08 -4.1979500764455224e-08 0.00014586126781068742 -1.2823421435825821e-08 4.028333933092654e-08 -1.2823421435825821e-08 0.00014584448945242912" pbc="T T T"
Sn       1.94504304       1.37535214       3.36891248       0.00000462      -0.00000232       0.00000139
Sn       5.83512622       4.12605877      10.10673707      -0.00000480       0.00000262       0.00000228
Ir       0.00000057       0.00000021       0.00000001      -0.00000763      -0.00000282       0.00000106
Cl       1.91038636       1.35084724       6.73782392      -0.00238311      -0.00168820       0.00000081
Cl       5.86978344       4.15056442       6.73782437       0.00238749       0.00168864      -0.00000129
Cl       4.87993395       1.35084713       5.02335508       0.00119390      -0.00168816      -0.00206800
Cl       2.90023557       4.15056390       8.45229392      -0.00119168       0.00168758       0.00206503
Cl       2.90023545       4.15056331       5.02335547      -0.00119226       0.00169128      -0.00206949
Cl       4.87993372       1.35084700       8.45229348       0.00119345      -0.00168864       0.00206827
