9
Lattice="6.548366117832453 -2.4030313805363282e-08 3.780700906601303 2.1827886944209434 6.173858667557705 3.780700887318588 -3.796832738060866e-08 -5.046399251068532e-08 7.561401878965616" Properties=species:S:1:pos:R:3:forces:R:3 energy=-26.95867919921875 free_energy=-26.95867919921875 stress="4.212218846078031e-05 -2.69265942876018e-08 6.230649773897312e-09 -2.69265942876018e-08 4.215160515741445e-05 -5.349387599551392e-09 6.230649773897312e-09 -5.349387599551392e-09 4.2165458580711856e-05" pbc="T T T"
Sn       2.18278873       1.54346456       3.78070112      -0.00000012      -0.00000045       0.00000083
Sn       6.54836631       4.63039379      11.34210237       0.00000093       0.00000043      -0.00000161
Ir      -0.00000028      -0.00000021       0.00000021       0.00000560       0.00000245      -0.00000288
I        2.17158834       1.53554512       7.56140189       0.00005451       0.00003872      -0.00000028
I        6.55956660       4.63831383       7.56140196      -0.00005913      -0.00004178       0.00000050
I        5.46257174       1.53554482       5.66135188      -0.00002840       0.00003874       0.00004800
I        3.26858303       4.63831377       9.46145167       0.00002681      -0.00003731      -0.00004556
I        3.26858292       4.63831359       5.66135198       0.00002643      -0.00003807       0.00004655
I        5.46257171       1.53554512       9.46145159      -0.00002657       0.00003719      -0.00004549
