9
Lattice="5.071395022536988 2.507565429640974e-09 2.927971268746139 1.6904649680205037 4.7813569629950265 2.9279713412427757 -3.270988157370517e-08 6.566051714996124e-08 5.855942594147361" Properties=species:S:1:pos:R:3:forces:R:3 energy=-45.47202682495117 free_energy=-45.47202682495117 stress="0.00037803692976012826 -3.045244767463373e-08 -1.9756464908482485e-08 -3.045244767463373e-08 0.0003780782571993768 2.551683131457594e-08 -1.9756464908482485e-08 2.551683131457594e-08 0.0003781309351325035" pbc="T T T"
Sn       1.69046509       1.19533932       2.92797138      -0.00000046      -0.00000069       0.00000043
Sn       5.07139501       3.58601781       8.78391357       0.00000028      -0.00000006      -0.00000032
Mo       0.00000003      -0.00000001       0.00000008       0.00000340      -0.00000135      -0.00000691
F        1.70212378       1.20358334       5.85594284      -0.00303572      -0.00214664      -0.00000015
F        5.05973620       3.57777371       5.85594283       0.00303449       0.00214566       0.00000043
F        4.22033307       1.20358337       4.40205360       0.00151809      -0.00214733      -0.00262938
F        2.54152695       3.57777348       7.30983134      -0.00152072       0.00215112       0.00263480
F        2.54152678       3.57777363       4.40205368      -0.00151833       0.00214705      -0.00262970
F        4.22033303       1.20358348       7.30983144       0.00151898      -0.00214768       0.00263088
