9
Lattice="6.702617485711405 -8.728213846308563e-08 3.869758059510769 2.234205764205188 6.319288364468646 3.8697580284635222 3.949669755765589e-08 -1.0096578661287639e-08 7.739516050611257" Properties=species:S:1:pos:R:3:forces:R:3 energy=-28.71216583251953 free_energy=-28.71216583251953 stress="-9.967879122996237e-06 -3.221737898684296e-08 1.0127466865128554e-08 -3.221737898684296e-08 -9.940365089278203e-06 -1.4511869927957832e-08 1.0127466865128554e-08 -1.4511869927957832e-08 -9.924366167979315e-06" pbc="T T T"
Sn       2.23420612       1.57982198       3.86975770       0.00000137      -0.00000029      -0.00000142
Sn       6.70261752       4.73946574      11.60927364       0.00000066      -0.00000161      -0.00000059
Mo      -0.00000011       0.00000010      -0.00000048       0.00000080      -0.00000070       0.00000776
I        2.25483375       1.59440818       7.73951620      -0.00094743      -0.00066879       0.00000013
I        6.68198934       4.72488017       7.73951633       0.00094670       0.00067005       0.00000054
I        5.57520056       1.59440872       5.82250169       0.00047559      -0.00067250      -0.00082457
I        3.36162268       4.72487986       9.65653073      -0.00047477       0.00067014       0.00082164
I        3.36162303       4.72487996       5.82250198      -0.00047751       0.00067487      -0.00082655
I        5.57520030       1.59440840       9.65653075       0.00047451      -0.00067107       0.00082310
