9
Lattice="4.582309002832843 4.4005801644771515e-08 2.6455973496364575 1.5274362965287647 4.320242624485975 2.6455974868805683 -9.273311049084993e-08 1.0251679431279213e-07 5.291194859891426" Properties=species:S:1:pos:R:3:forces:R:3 energy=-36.992862701416016 free_energy=-36.992862701416016 stress="-5.9088833950227126e-05 4.672643072467508e-08 -6.341701208611994e-08 4.672643072467508e-08 -5.907426748308353e-05 8.582193622430623e-09 -6.341701208611994e-08 8.582193622430623e-09 -5.9130401496076956e-05" pbc="T T T"
Sn       1.52743625       1.08006026       2.64559696       0.00000017      -0.00000249      -0.00000132
Sn       4.58230899       3.24018153       7.93679205      -0.00000075      -0.00000119      -0.00000177
N       -0.00000006       0.00000034      -0.00000011       0.00000136      -0.00000068       0.00000136
F        1.42652596       1.00870637       5.29119487       0.00055647       0.00039411       0.00000144
F        4.68321913       3.31153650       5.29119495      -0.00055647      -0.00039202       0.00000083
F        3.86904603       1.00870621       3.88100522      -0.00027841       0.00039458       0.00048292
F        2.24069932       3.31153660       6.70138472       0.00027883      -0.00039411      -0.00048196
F        2.24069925       3.31153665       3.88100534       0.00027919      -0.00039476       0.00048435
F        3.86904589       1.00870660       6.70138483      -0.00028026       0.00039613      -0.00048423
