9
Lattice="5.632167305508033 9.35518168372129e-08 3.2517331947283012 1.877389252356047 5.3100581756334995 3.251733086789404 3.242543733568354e-08 -1.0926936798219707e-07 6.503466333294079" Properties=species:S:1:pos:R:3:forces:R:3 energy=-26.322816848754883 free_energy=-26.322816848754883 stress="5.182748645893298e-05 2.0901341102330662e-08 -5.901031663313461e-09 2.0901341102330662e-08 5.184430847293697e-05 -3.750671162539021e-10 -5.901031663313461e-09 -3.750671162539021e-10 5.185688496567309e-05" pbc="T T T"
Sn       1.87738899       1.32751424       3.25173304      -0.00000122      -0.00000180      -0.00000042
Sn       5.63216728       3.98254296       9.75519862      -0.00000058      -0.00000227      -0.00000278
N        0.00000013      -0.00000047       0.00000326       0.00000109      -0.00000304       0.00003537
Cl       1.82487313       1.29038013       6.50346645      -0.00089643      -0.00063488      -0.00000051
Cl       5.68468330       4.01967810       6.50346666       0.00090007       0.00063793       0.00000002
Cl       4.71973160       1.29037965       4.83211863       0.00045062      -0.00063933      -0.00078358
Cl       2.78982618       4.01967799       8.17481273      -0.00044303       0.00062833       0.00076995
Cl       2.78982498       4.01967902       4.83211850      -0.00045358       0.00064195      -0.00078652
Cl       4.71973074       1.29038104       8.17481254       0.00044302      -0.00062687       0.00076826
