9
Lattice="6.619690684694081 -1.4802140209609108e-08 3.821880157011263 2.206563568492911 6.241104155966672 3.821880120839524 -3.685422059751413e-08 -7.036095543836703e-08 7.643760377855834" Properties=species:S:1:pos:R:3:forces:R:3 energy=-22.54326820373535 free_energy=-22.54326820373535 stress="0.00015964497288223356 -7.145360747529139e-09 -5.851676920798354e-09 -7.145360747529139e-09 0.0001596432557562366 4.7618500254031915e-09 -5.851676920798354e-09 4.7618500254031915e-09 0.00015964469639584422" pbc="T T T"
Sn       2.20656359       1.56027678       3.82188004       0.00000068       0.00000268       0.00000007
Sn       6.61969033       4.68082725      11.46564159      -0.00000160      -0.00000347       0.00000498
P        0.00000008      -0.00000016      -0.00000011       0.00000019       0.00000030       0.00000079
I        2.25484133       1.59441370       7.64376040      -0.00787498      -0.00556688       0.00000014
I        6.57141297       4.64669036       7.64376000       0.00787461       0.00556662      -0.00000250
I        5.49227014       1.59441388       5.77462977       0.00393829      -0.00556607      -0.00682076
I        3.33398407       4.64669040       9.51289072      -0.00393836       0.00556733       0.00681908
I        3.33398433       4.64669051       5.77462954      -0.00393596       0.00556754      -0.00682066
I        5.49227002       1.59441357       9.51289069       0.00393712      -0.00556802       0.00681881
