9
Lattice="5.883156162657176 -2.454766586465209e-07 3.3966418971354337 1.961051882483686 5.5466927190472965 3.3966417937280657 1.509564649627187e-07 -1.9905294061545665e-08 6.793283532806644" Properties=species:S:1:pos:R:3:forces:R:3 energy=-28.606494903564453 free_energy=-28.606494903564453 stress="-2.8940437459823443e-06 -4.588653013115618e-09 1.9106721538264537e-08 -4.588653013115618e-09 -2.9691670988540864e-06 -4.065216430149121e-08 1.9106721538264537e-08 -4.065216430149121e-08 -2.95097311209247e-06" pbc="T T T"
Sn       1.96105154       1.38667231       3.39664177      -0.00000171      -0.00000253      -0.00000076
Sn       5.88315572       4.16001838      10.18992504      -0.00000071      -0.00000250      -0.00000117
P       -0.00000042       0.00000039       0.00000029       0.00000283      -0.00000243      -0.00000153
Cl       1.95078263       1.37941234       6.79328327      -0.00039440      -0.00027633       0.00000003
Cl       5.89342595       4.16728106       6.79328400       0.00039347       0.00027740       0.00000069
Cl       4.90776490       1.37941178       5.08606975       0.00019698      -0.00027702      -0.00034195
Cl       2.93644379       4.16728087       8.50049778      -0.00019708       0.00028098       0.00034058
Cl       2.93644374       4.16728091       5.08606978      -0.00019895       0.00028345      -0.00034247
Cl       4.90776489       1.37941184       8.50049721       0.00019965      -0.00028101       0.00034644
