9
Lattice="5.306679105753747 6.567320969526565e-08 3.063812220310738 1.7688930254766773 5.003185225035102 3.063812344484743 -2.2861503511787147e-07 -9.573711177146913e-09 6.12762483659426" Properties=species:S:1:pos:R:3:forces:R:3 energy=-42.87548828125 free_energy=-42.87548828125 stress="-0.00012177602911833674 -8.325517342200328e-08 -3.614956156638982e-08 -8.325517342200328e-08 -0.00012175720621598884 -6.536308205795649e-08 -3.614956156638982e-08 -6.536308205795649e-08 -0.00012176070595160127" pbc="T T T"
Sn       1.76889361       1.25079666       3.06381290       0.00000014       0.00000023      -0.00000049
Sn       5.30667928       3.75238776       9.19143677      -0.00000003       0.00000026      -0.00000043
P       -0.00000002      -0.00000008       0.00000016      -0.00000362       0.00001275       0.00000985
F        1.34778795       0.95303060       6.12762445       0.00484688       0.00342724       0.00000254
F        5.72778360       4.05015503       6.12762475      -0.00485021      -0.00343137      -0.00000236
F        4.63278425       0.95303076       4.23103119      -0.00241794       0.00342377       0.00419074
F        2.44278729       4.05015490       8.02421810       0.00242144      -0.00342872      -0.00420113
F        2.44278718       4.05015516       4.23103167       0.00242279      -0.00342441       0.00419400
F        4.63278426       0.95303052       8.02421781      -0.00241954       0.00342023      -0.00419277
