9
Lattice="6.160380326709936 -1.8372162917714028e-08 3.5566971719762814 2.053460097655632 5.808062201497484 3.556697161456209 -1.1928579715143641e-08 -2.131915953016683e-08 7.113394364613466" Properties=species:S:1:pos:R:3:forces:R:3 energy=-25.687942504882812 free_energy=-25.687942504882812 stress="6.739319360349327e-05 -2.8482376457361624e-09 -3.4063663348349316e-12 -2.8482376457361624e-09 6.740579556208104e-05 -4.675134723797214e-10 -3.4063663348349316e-12 -4.675134723797214e-10 6.738888623658568e-05" pbc="T T T"
Sn       2.05346019       1.45201520       3.55669709       0.00000134      -0.00000043      -0.00000010
Sn       6.16037994       4.35604702      10.67009139      -0.00000235       0.00000168      -0.00000082
P       -0.00000002      -0.00000000       0.00000016      -0.00000043      -0.00000058       0.00000038
Br       2.09586851       1.48200283       7.11339424      -0.00092431      -0.00065519       0.00000042
Br       6.11797213       4.32605933       7.11339450       0.00092489       0.00065498      -0.00000002
Br       5.11244602       1.48200267       5.37177223       0.00046271      -0.00065500      -0.00080092
Br       3.10139440       4.32605931       8.85501646      -0.00046170       0.00065383       0.00080132
Br       3.10139438       4.32605948       5.37177237      -0.00046179       0.00065527      -0.00080083
Br       5.11244611       1.48200288       8.85501634       0.00046166      -0.00065462       0.00080053
