9
Lattice="5.795397614307437 -1.5110327835896523e-07 3.345974293597937 1.9317990650257735 5.46395300280898 3.3459742888899195 -1.337634858920713e-08 -1.5224633623055408e-08 6.691948610364373" Properties=species:S:1:pos:R:3:forces:R:3 energy=-32.42124938964844 free_energy=-32.42124938964844 stress="0.00011815585457952693 -3.3927307185877e-08 -2.622484984726725e-08 -3.3927307185877e-08 0.00011820301006082445 -5.698780114471447e-09 -2.622484984726725e-08 -5.698780114471447e-09 0.000118209034553729" pbc="T T T"
Sn       1.93179880       1.36598778       3.34597467       0.00000057      -0.00000369       0.00000211
Sn       5.79539816       4.09796435      10.03792212       0.00000242      -0.00000107      -0.00000335
Rh      -0.00000012      -0.00000016      -0.00000038      -0.00000136       0.00000671       0.00000744
Cl       1.90754462       1.34883773       6.69194883      -0.00253823      -0.00179243      -0.00000146
Cl       5.81965196       4.11511543       6.69194898       0.00253412       0.00179224       0.00000105
Cl       4.84162496       1.34883783       4.99795669       0.00127155      -0.00179809      -0.00220220
Cl       2.88557163       4.11511548       8.38594048      -0.00126788       0.00179359       0.00219609
Cl       2.88557128       4.11511498       4.99795670      -0.00127170       0.00179581      -0.00219747
Cl       4.84162538       1.34883791       8.38594058       0.00127055      -0.00179313       0.00219779
