9
Lattice="6.548804749632272 7.749388006059926e-08 3.7809542194489327 2.1829349917259875 6.174272415669878 3.7809542157770504 2.2862262245501463e-08 1.1668955327374913e-08 7.561908399299389" Properties=species:S:1:pos:R:3:forces:R:3 energy=-25.980331420898438 free_energy=-25.980331420898438 stress="-5.5310691095655784e-05 1.9834125453144225e-08 2.198886628335117e-09 1.9834125453144225e-08 -5.5333242926280946e-05 8.344625435086073e-09 2.198886628335117e-09 8.344625435086073e-09 -5.534054071176797e-05" pbc="T T T"
Sn       2.18293480       1.54356801       3.78095431      -0.00000100      -0.00000112       0.00000080
Sn       6.54880461       4.63070344      11.34286191       0.00000002      -0.00000358      -0.00000203
Rh      -0.00000018       0.00000001       0.00000040       0.00000142      -0.00000310      -0.00000207
I        2.17145593       1.53545169       7.56190836       0.00320904       0.00226980      -0.00000026
I        6.56028369       4.63882119       7.56190886      -0.00320755      -0.00226836       0.00000071
I        5.46307697       1.53545141       5.66149001      -0.00160605       0.00227250       0.00278219
I        3.26866335       4.63882116       9.46232646       0.00160391      -0.00226790      -0.00277791
I        3.26866287       4.63882119       5.66149023       0.00160507      -0.00227009       0.00277926
I        5.46307701       1.53545195       9.46232684      -0.00160482       0.00227190      -0.00278066
