9
Lattice="4.957826218790945 -6.640879793106522e-08 2.862402520585483 1.652608648241333 4.6742835498697115 2.8624025703729634 -5.8797063218305197e-08 1.9401177254154882e-08 5.724805143010411" Properties=species:S:1:pos:R:3:forces:R:3 energy=-42.5844841003418 free_energy=-42.5844841003418 stress="9.725227755552623e-06 -9.259689193186205e-08 -5.3292200513643806e-11 -9.259689193186205e-08 9.84070538834203e-06 -8.203492107838883e-09 -5.3292200513643806e-11 -8.203492107838883e-09 9.89269665296888e-06" pbc="T T T"
Sn       1.65260876       1.16857017       2.86240260      -0.00000071       0.00000033       0.00000036
Sn       4.95782562       3.50571298       8.58720848       0.00000051      -0.00000032      -0.00000043
Rh      -0.00000009       0.00000002      -0.00000010       0.00000171       0.00000520      -0.00000389
F        1.64671951       1.16440666       5.72480521       0.00072439       0.00051147      -0.00000021
F        4.96371534       3.50987685       5.72480542      -0.00072725      -0.00051355      -0.00000119
F        4.13446618       1.16440691       4.28850349      -0.00035979       0.00050820       0.00062349
F        2.47596864       3.50987692       7.16110616       0.00035924      -0.00050823      -0.00062260
F        2.47596891       3.50987665       4.28850345       0.00036103      -0.00050895       0.00062454
F        4.13446636       1.16440693       7.16110622      -0.00035903       0.00050579      -0.00062010
