9
Lattice="5.791166238697987 2.5843548702227548e-08 3.343531426311734 1.9303887884214666 5.4599638180355505 3.3435313954409436 4.927010293345757e-08 -2.9696563058296144e-09 6.687062767285151" Properties=species:S:1:pos:R:3:forces:R:3 energy=-33.880760192871094 free_energy=-33.880760192871094 stress="0.00015532014367636293 4.950946319581817e-08 -1.1950319844800106e-08 4.950946319581817e-08 0.000155262925545685 6.674617747393086e-09 -1.1950319844800106e-08 6.674617747393086e-09 0.00015528347284998745" pbc="T T T"
Sn       1.93038893       1.36499108       3.34353132      -0.00000056       0.00000095       0.00000017
Sn       5.79116641       4.09497317      10.03059466       0.00000054       0.00000164       0.00000161
Ru       0.00000027       0.00000016      -0.00000047      -0.00000862      -0.00000183       0.00000690
Cl       1.91634277       1.35505890       6.68706289      -0.00518008      -0.00366215      -0.00000021
Cl       5.80521190       4.10490470       6.68706267       0.00518729       0.00366677      -0.00000178
Cl       4.83299508       1.35505881       5.00313267       0.00259151      -0.00366420      -0.00448881
Cl       2.88855989       4.10490496       8.37099301      -0.00259010       0.00366044       0.00448386
Cl       2.88856005       4.10490494       5.00313275      -0.00258888       0.00366171      -0.00448704
Cl       4.83299502       1.35505864       8.37099292       0.00258895      -0.00366333       0.00448515
