9
Lattice="6.160207502929153 -3.7687139169213274e-08 3.5565974994342358 2.053402434557121 5.807899264998237 3.5565975529330123 -1.2276534896877796e-08 5.6841459894675106e-08 7.113195020132075" Properties=species:S:1:pos:R:3:forces:R:3 energy=-30.54644775390625 free_energy=-30.54644775390625 stress="0.00010660928819561377 -8.125940809122767e-09 -1.3446769919767121e-08 -8.125940809122767e-09 0.00010663542343536392 1.3291406197879496e-08 -1.3446769919767121e-08 1.3291406197879496e-08 0.00010662744170986116" pbc="T T T"
Sn       2.05340257       1.45197450       3.55659794       0.00000124       0.00000017       0.00000147
Sn       6.16020762       4.35592450      10.66979232       0.00000142      -0.00000079      -0.00000204
Ru      -0.00000014      -0.00000043      -0.00000009       0.00000472       0.00000810       0.00000258
Br       2.01998226       1.42834323       7.11319490      -0.00277985      -0.00196517      -0.00000052
Br       6.19362814       4.37955672       7.11319528       0.00276931       0.00196028       0.00000032
Br       5.15021618       1.42834302       5.30595333       0.00138903      -0.00196480      -0.00240595
Br       3.06339341       4.37955611       8.92043682      -0.00138688       0.00196271       0.00240193
Br       3.06339318       4.37955634       5.30595303      -0.00138696       0.00196167      -0.00240145
Br       5.15021647       1.42834319       8.92043675       0.00138798      -0.00196216       0.00240365
