9
Lattice="6.546259023100912 -6.321689608152493e-08 3.779484296179221 2.1820862767463587 6.171872105706942 3.7794843042953103 9.76343058592169e-10 1.0630603325884611e-08 7.558968590667329" Properties=species:S:1:pos:R:3:forces:R:3 energy=-26.888429641723633 free_energy=-26.888429641723633 stress="6.870512152090669e-05 -2.2295466806099284e-08 -7.937613233366392e-09 -2.2295466806099284e-08 6.872324593132362e-05 1.1680385547663263e-08 -7.937613233366392e-09 1.1680385547663263e-08 6.87349820509553e-05" pbc="T T T"
Sn       2.18208644       1.54296793       3.77948425       0.00000026      -0.00000048       0.00000048
Sn       6.54625879       4.62890487      11.33845297      -0.00000053       0.00000371       0.00000091
Ru       0.00000003       0.00000012      -0.00000004       0.00000219       0.00000081      -0.00000187
I        2.17553882       1.53833781       7.55896862       0.00309669       0.00218869      -0.00000023
I        6.55280678       4.63353396       7.55896861      -0.00309936      -0.00219172      -0.00000098
I        5.45848951       1.53833783       5.66355597      -0.00154786       0.00218817       0.00268117
I        3.26985568       4.63353390       9.45438131       0.00154691      -0.00218735      -0.00268044
I        3.26985575       4.63353394       5.66355585       0.00154935      -0.00218956       0.00268184
I        5.45848942       1.53833784       9.45438121      -0.00154768       0.00218765      -0.00268086
