9
Lattice="5.009506911636801 2.012490097370689e-08 2.892240054228401 1.6698355565372047 4.723008660740576 2.8922402268256175 -1.5694577771197404e-07 1.0041003493169871e-07 5.784480380294979" Properties=species:S:1:pos:R:3:forces:R:3 energy=-44.12881851196289 free_energy=-44.12881851196289 stress="0.0001998962979996577 3.8941671220982244e-08 2.267755982998665e-09 3.8941671220982244e-08 0.00019998205243609846 2.4984034840969116e-09 2.267755982998665e-09 2.4984034840969116e-09 0.0002000129607040435" pbc="T T T"
Sn       1.66983591       1.18075241       2.89224034      -0.00000021       0.00000014       0.00000058
Sn       5.00950662       3.54225639       8.67672047       0.00000025      -0.00000020       0.00000033
Ru      -0.00000014       0.00000003      -0.00000009       0.00000302       0.00000060      -0.00000142
F        1.65122893       1.16759552       5.78448030      -0.00077859      -0.00055061       0.00000017
F        5.02811315       3.55541335       5.78448026       0.00077701       0.00054970       0.00000039
F        4.18389243       1.16759548       4.32224616       0.00038833      -0.00054931      -0.00067262
F        2.49544967       3.55541349       7.24671454      -0.00038839       0.00054938       0.00067277
F        2.49544999       3.55541333       4.32224630      -0.00038893       0.00054920      -0.00067238
F        4.18389253       1.16759513       7.24671445       0.00038743      -0.00054882       0.00067218
