9
Lattice="5.812393604140847 -2.8406054793924098e-08 3.355787052937208 1.9374644819341829 5.479977049350068 3.3557870979669233 1.540899899056519e-08 6.604567302870164e-08 6.711574079185321" Properties=species:S:1:pos:R:3:forces:R:3 energy=-33.28030014038086 free_energy=-33.28030014038086 stress="-0.00013582108658738434 1.1288760148886468e-08 4.130696673598777e-09 1.1288760148886468e-08 -0.00013582482642959803 -2.624214845425854e-09 4.130696673598777e-09 -2.624214845425854e-09 -0.0001358274312224239" pbc="T T T"
Sn       1.93746451       1.36999434       3.35578711      -0.00000017      -0.00000020      -0.00000016
Sn       5.81239345       4.10998261      10.06736082      -0.00000016      -0.00000013      -0.00000019
Sb       0.00000013      -0.00000003      -0.00000035      -0.00000047      -0.00000026       0.00000407
Se       2.22238209       1.57146131       6.71157402      -0.00235707      -0.00166671      -0.00000025
Se       5.52747593       3.90851569       6.71157436       0.00235797       0.00166713      -0.00000008
Se       4.70120264       1.57146146       5.28042652       0.00117871      -0.00166711      -0.00204199
Se       3.04865562       3.90851587       8.14272219      -0.00117803       0.00166584       0.00204028
Se       3.04865540       3.90851565       5.28042636      -0.00117892       0.00166732      -0.00204197
Se       4.70120263       1.57146145       8.14272192       0.00117809      -0.00166585       0.00204022
