9
Lattice="6.031310382438133 -8.375536911197875e-08 3.4821786554697334 2.0104368042883247 5.686374180880606 3.482178501130796 1.987321497262908e-08 -1.7497333681452347e-07 6.96435727651801" Properties=species:S:1:pos:R:3:forces:R:3 energy=-29.086606979370117 free_energy=-29.086606979370117 stress="1.294456251343945e-05 2.4660629094341857e-08 2.3576255614443653e-08 2.4660629094341857e-08 1.2947970390086994e-05 -2.9295543768625976e-09 2.3576255614443653e-08 -2.9295543768625976e-09 1.2922096175316256e-05" pbc="T T T"
Sn       2.01043735       1.42159290       3.48217945       0.00000375      -0.00000232       0.00000408
Sn       6.03131174       4.26478034      10.44653612       0.00000480      -0.00000064       0.00000137
Sb      -0.00000019       0.00000102      -0.00000067      -0.00000002      -0.00001017       0.00000443
Cl       2.07034867       1.46395809       6.96435681      -0.00207181      -0.00146164      -0.00000251
Cl       5.97139737       4.22241537       6.96435688       0.00207283       0.00146703      -0.00000060
Cl       4.99613557       1.46395762       5.27515297       0.00103150      -0.00146148      -0.00179036
Cl       3.04561128       4.22241638       8.65356108      -0.00103595       0.00146514       0.00178878
Cl       3.04561157       4.22241609       5.27515359      -0.00103653       0.00146480      -0.00179274
Cl       4.99613543       1.46395797       8.65356153       0.00103147      -0.00146082       0.00178751
