9
Lattice="4.788012758288502 -8.150772226657793e-09 2.764360432382752 1.5960042607646325 4.51418179818684 2.7643604052130706 -2.4488009489506422e-08 -5.0591593271179795e-08 5.528720907180004" Properties=species:S:1:pos:R:3:forces:R:3 energy=-48.12805938720703 free_energy=-48.12805938720703 stress="0.0003460313018877059 -7.730837836561477e-08 -1.814018091295111e-08 -7.730837836561477e-08 0.0003459745494183153 -6.13032042906525e-08 -1.814018091295111e-08 -6.13032042906525e-08 0.0003460055449977517" pbc="T T T"
Sn       1.59600442       1.12854537       2.76435994       0.00000046      -0.00000128      -0.00000196
Sn       4.78801256       3.38563656       8.29308145      -0.00000149      -0.00000017      -0.00000161
Sb       0.00000004      -0.00000018       0.00000023      -0.00000421       0.00001154      -0.00000404
O        1.61624065       1.14285479       5.52872105      -0.00537860      -0.00380361      -0.00000019
O        4.76777622       3.37132713       5.52872119       0.00537705       0.00380349       0.00000168
O        3.97989237       1.14285503       4.16406591       0.00269186      -0.00380415      -0.00465953
O        2.40412461       3.37132679       6.89337575      -0.00268960       0.00380254       0.00465882
O        2.40412477       3.37132698       4.16406602      -0.00268644       0.00380290      -0.00465691
O        3.97989210       1.14285476       6.89337558       0.00269181      -0.00381005       0.00466359
