9
Lattice="5.2231703123444655 -2.580643138422475e-08 3.0155988768221023 1.7410567035589704 4.9244522874033665 3.0155989511131804 -7.378696514251847e-08 3.881234065619009e-08 6.031197881447025" Properties=species:S:1:pos:R:3:forces:R:3 energy=-41.13690948486328 free_energy=-41.13690948486328 stress="5.3288309572963044e-05 -1.1708850422564865e-07 1.3031718815170734e-08 -1.1708850422564865e-07 5.338355913409032e-05 -2.0420765522999318e-08 1.3031718815170734e-08 -2.0420765522999318e-08 5.3471037972485647e-05" pbc="T T T"
Sn       1.74105679       1.23111308       3.01559894       0.00000044       0.00000092      -0.00000004
Sn       5.22317056       3.69333927       9.04679693       0.00000024       0.00000032      -0.00000049
Sb      -0.00000031      -0.00000001       0.00000023       0.00001125       0.00000471      -0.00000116
F        1.73750579       1.22860229       6.03119793      -0.00065312      -0.00046206      -0.00000014
F        5.22672174       3.69585043       6.03119803       0.00064489       0.00045609       0.00000017
F        4.35441697       1.22860254       4.52032349       0.00032841      -0.00046569      -0.00056943
F        2.60980967       3.69584939       7.54207164      -0.00033058       0.00046626       0.00057104
F        2.60980976       3.69584959       4.52032366      -0.00033130       0.00046721      -0.00057232
F        4.35441699       1.22860267       7.54207173       0.00032981      -0.00046808       0.00057206
