9
Lattice="5.69600177850151 4.731122334099021e-08 3.288588246715818 1.8986673078388727 5.370242117435974 3.288588240250172 4.538408090788831e-08 2.4172656746939077e-08 6.577176414824074" Properties=species:S:1:pos:R:3:forces:R:3 energy=-35.397422790527344 free_energy=-35.397422790527344 stress="-7.401605671475409e-06 -7.737276597197251e-09 -1.1952303147211296e-08 -7.737276597197251e-09 -7.440076387865702e-06 -1.4803708259236714e-09 -1.1952303147211296e-08 -1.4803708259236714e-09 -7.400891718134517e-06" pbc="T T T"
Sn       1.89866736       1.34256030       3.28858837      -0.00000003      -0.00000231       0.00000160
Sn       5.69600165       4.02768171       9.86576443      -0.00000138       0.00000103      -0.00000107
Sb       0.00000010       0.00000007      -0.00000007      -0.00000192      -0.00000310      -0.00000124
S        1.98800897       1.40573454       6.57717604       0.00031582       0.00022319      -0.00000076
S        5.60666004       3.96450781       6.57717682      -0.00031289      -0.00022012       0.00000191
S        4.70199710       1.40573456       5.01025453      -0.00015767       0.00022286       0.00027257
S        2.89267247       3.96450787       8.14409847       0.00015944      -0.00022018      -0.00027034
S        2.89267165       3.96450737       5.01025452       0.00015679      -0.00022388       0.00027108
S        4.70199716       1.40573447       8.14409847      -0.00015819       0.00022236      -0.00027362
