9
Lattice="6.369008202528493 3.96766435992601e-08 3.6771486550958907 2.1230027466867196 6.004758441797569 3.6771486982186583 -3.213468931614153e-08 3.009178493881634e-08 7.354297365850661" Properties=species:S:1:pos:R:3:forces:R:3 energy=-25.530237197875977 free_energy=-25.530237197875977 stress="4.17037881561555e-05 -4.315825474776602e-09 4.756016469542601e-09 -4.315825474776602e-09 4.1687817429192364e-05 -9.49137990424731e-10 4.756016469542601e-09 -9.49137990424731e-10 4.169053863734007e-05" pbc="T T T"
Sn       2.12300260       1.50118922       3.67714908      -0.00000070      -0.00000142       0.00000188
Sn       6.36900792       4.50356818      11.03144594      -0.00000107      -0.00000431      -0.00000135
Sb       0.00000012       0.00000002      -0.00000009      -0.00000073      -0.00000004       0.00000200
Br       2.20975606       1.56253371       7.35429717      -0.00510368      -0.00360794      -0.00000035
Br       6.28225427       4.44222486       7.35429733       0.00510398       0.00361033       0.00000012
Br       5.26412998       1.56253431       5.59085385       0.00255257      -0.00360841      -0.00442117
Br       3.22788116       4.44222509       9.11774084      -0.00255095       0.00360900       0.00441901
Br       3.22788101       4.44222451       5.59085373      -0.00255234       0.00360955      -0.00442019
Br       5.26413055       1.56253417       9.11774101       0.00255295      -0.00360677       0.00441998
