9
Lattice="6.900405627210295 -6.115201158076578e-08 3.9839510510228755 2.300135158809141 6.5057647002808965 3.9839510382165813 2.6992247428135474e-08 3.4019528390455896e-09 7.9679020552938145" Properties=species:S:1:pos:R:3:forces:R:3 energy=-22.102100372314453 free_energy=-22.102100372314453 stress="0.0001842773926910013 -7.260325229907494e-09 1.890071432697482e-09 -7.260325229907494e-09 0.00018428255862090737 -7.936961088361727e-10 1.890071432697482e-09 -7.936961088361727e-10 0.00018428504699841142" pbc="T T T"
Sn       2.30013546       1.62644138       3.98395116       0.00000170       0.00000098      -0.00000019
Sn       6.90040560       4.87932335      11.95185343      -0.00000159       0.00000070       0.00000229
Sb       0.00000022      -0.00000026       0.00000030      -0.00000026       0.00000368      -0.00000077
I        2.41199348       1.70553691       7.96790204      -0.00719330      -0.00508651      -0.00000002
I        6.78854735       4.80022778       7.96790186       0.00719202       0.00508487      -0.00000090
I        5.69440877       1.70553705       6.07279868       0.00359702      -0.00508707      -0.00623072
I        3.50613187       4.80022758       9.86300536      -0.00359679       0.00508605       0.00622904
I        3.50613194       4.80022777       6.07279849      -0.00359561       0.00508481      -0.00622909
I        5.69440858       1.70553701       9.86300528       0.00359680      -0.00508747       0.00623037
