9
Lattice="6.455966526130623 8.958330871640051e-09 3.727353964029333 2.1519888698926204 6.086743520272386 3.7273539304221686 1.2584145275969155e-08 -3.226184428976975e-08 7.454707906262275" Properties=species:S:1:pos:R:3:forces:R:3 energy=-29.563560485839844 free_energy=-29.563560485839844 stress="7.583057595184073e-05 -2.64410882078181e-10 2.2609622507552274e-10 -2.64410882078181e-10 7.583607657579705e-05 -2.3712014574073237e-09 2.2609622507552274e-10 -2.3712014574073237e-09 7.582337275380269e-05" pbc="T T T"
Sn       2.15198891       1.52168554       3.72735406      -0.00000053      -0.00000103      -0.00000005
Sn       6.45596675       4.56505806      11.18206189       0.00000156       0.00000305       0.00000008
Sb      -0.00000006      -0.00000005      -0.00000023      -0.00000056      -0.00000098       0.00000021
Te       2.37156987       1.67695290       7.45470797       0.00022180       0.00015561       0.00000006
Te       6.23638567       4.40979056       7.45470801      -0.00022040      -0.00015539       0.00000000
Te       5.27018152       1.67695302       5.78119359      -0.00011113       0.00015537       0.00019303
Te       3.33777371       4.40979065       9.12822226       0.00011016      -0.00015599      -0.00019291
Te       3.33777370       4.40979055       5.78119350       0.00011019      -0.00015566       0.00019276
Te       5.27018163       1.67695274       9.12822214      -0.00011109       0.00015509      -0.00019307
