9
Lattice="5.096290864293217 9.586979616623953e-08 2.9423450031350242 1.6987637089487106 4.804829203091233 2.9423450081047715 1.1323645610045892e-08 1.4093694764986282e-08 5.884689986656913" Properties=species:S:1:pos:R:3:forces:R:3 energy=-37.5620002746582 free_energy=-37.5620002746582 stress="0.000332560739479959 -1.3321489689133159e-08 1.8460111217422082e-09 -1.3321489689133159e-08 0.00033256906317546964 7.904233378930314e-10 1.8460111217422082e-09 7.904233378930314e-10 0.00033255916787311435" pbc="T T T"
Sn       1.69876347       1.20120735       2.94234498      -0.00000072       0.00000003       0.00000038
Sn       5.09629100       3.60362209       8.82703484       0.00000039       0.00000115      -0.00000071
Tl       0.00000011       0.00000012      -0.00000009       0.00000132      -0.00000496       0.00000522
F        1.76379157       1.24718890       5.88468993      -0.00011280      -0.00008009       0.00000038
F        5.03126321       3.55764033       5.88469031       0.00011454       0.00008063       0.00000010
F        4.21439503       1.24718886       4.46983329       0.00005771      -0.00008155      -0.00009906
F        2.58065930       3.55764043       7.29954680      -0.00005732       0.00008051       0.00009951
F        2.58065944       3.55764039       4.46983346      -0.00005864       0.00008304      -0.00010163
F        4.21439544       1.24718883       7.29954673       0.00005554      -0.00007860       0.00009575
