9
Lattice="6.741392928980822 -1.0531897988592511e-07 3.8921451172970114 2.247130942512758 6.355846086235058 3.8921450038797327 8.752094034219054e-08 -7.702057638670438e-08 7.784290083003344" Properties=species:S:1:pos:R:3:forces:R:3 energy=-19.446680068969727 free_energy=-19.446680068969727 stress="-0.00020073501218575984 -1.6732553120846205e-08 -8.675056784035462e-10 -1.6732553120846205e-08 -0.00020071367907803506 3.4080229749378077e-09 -8.675056784035462e-10 3.4080229749378077e-09 -0.000200711190700531" pbc="T T T"
Sn       2.24713076       1.58896120       3.89214493       0.00000016      -0.00000180      -0.00000089
Sn       6.74139298       4.76688481      11.67643588      -0.00000024       0.00000224       0.00000171
Tl      -0.00000004       0.00000007      -0.00000008       0.00000113       0.00000071      -0.00000107
I        2.38233245       1.68456300       7.78429024      -0.00437538      -0.00309518       0.00000013
I        6.60619161       4.67128277       7.78428980       0.00437430       0.00309332      -0.00000083
I        5.55022679       1.68456345       5.95530534       0.00218789      -0.00309459      -0.00378940
I        3.43829714       4.67128246       9.61327463      -0.00218903       0.00309537       0.00379024
I        3.43829743       4.67128275       5.95530548      -0.00218740       0.00309520      -0.00378964
I        5.55022670       1.68456310       9.61327461       0.00218854      -0.00309532       0.00378978
