9
Lattice="6.841132977192694 8.196586513187692e-08 3.9497298314449716 2.2803776931409567 6.449882069074643 3.949729906272016 -7.31015676180023e-08 3.995350616022741e-08 7.899459789505321" Properties=species:S:1:pos:R:3:forces:R:3 energy=-30.99995994567871 free_energy=-30.99995994567871 stress="0.00019971051369793713 9.279437662712553e-09 -2.00465644084602e-09 9.279437662712553e-09 0.00019969564164057374 -6.59305887662498e-10 -2.00465644084602e-09 -6.59305887662498e-10 0.0001996814098674804" pbc="T T T"
Sn       2.28037748       1.61247061       3.94972980       0.00000066      -0.00000062       0.00000004
Sn       6.84113279       4.83741135      11.84918924      -0.00000219      -0.00000047      -0.00000215
Ta       0.00000014       0.00000012       0.00000031      -0.00000017       0.00000035      -0.00000264
I        2.25752920       1.59631405       7.89945983      -0.00565332      -0.00399753      -0.00000000
I        6.86398136       4.85356807       7.89945997       0.00565410       0.00399768       0.00000071
I        5.71236850       1.59631409       5.90480707       0.00282547      -0.00399561      -0.00489330
I        3.40914246       4.85356795       9.89411244      -0.00282556       0.00399704       0.00489540
I        3.40914216       4.85356817       5.90480702      -0.00282585       0.00399566      -0.00489345
I        5.71236827       1.59631436       9.89411240       0.00282683      -0.00399655       0.00489546
