9
Lattice="5.288506883050775 -1.8307021703819113e-07 3.053320944563965 1.762835578316241 4.986051357678205 3.0533207311182795 7.718601027706154e-08 -2.0683773829805326e-07 6.106641755437815" Properties=species:S:1:pos:R:3:forces:R:3 energy=-52.38895034790039 free_energy=-52.38895034790039 stress="-0.00026216250262223184 -4.978204515282414e-08 1.1839866864704618e-09 -4.978204515282414e-08 -0.0002622122410684824 -1.0092429114649804e-08 1.1839866864704618e-09 -1.0092429114649804e-08 -0.00026225531473755836" pbc="T T T"
Sn       1.76283557       1.24651258       3.05332094      -0.00000029      -0.00000018      -0.00000060
Sn       5.28850686       3.73953844       9.15996269       0.00000017      -0.00000019      -0.00000033
Ta      -0.00000025      -0.00000022      -0.00000039       0.00000456      -0.00000509       0.00000738
F        1.59849084       1.13030353       6.10664184       0.00583458       0.00412536      -0.00000018
F        5.45285114       3.85574753       6.10664181      -0.00583541      -0.00412643       0.00000009
F        4.48926162       1.13030334       4.43765470      -0.00291705       0.00412524       0.00505185
F        2.56208145       3.85574738       7.77562854       0.00291657      -0.00412476      -0.00505173
F        2.56208107       3.85574753       4.43765442       0.00291502      -0.00412297       0.00504911
F        4.48926155       1.13030370       7.77562890      -0.00291902       0.00412875      -0.00505543
