9
Lattice="5.987716379346149 9.935230360614213e-08 3.4570098538451646 1.9959054739817164 5.64527362781159 3.457009991492261 8.534276336044703e-08 2.2892893143287853e-07 6.914019559872393" Properties=species:S:1:pos:R:3:forces:R:3 energy=-39.54756164550781 free_energy=-39.54756164550781 stress="0.00010034039587480947 -1.474165589598897e-08 -6.718750711343091e-08 -1.474165589598897e-08 0.00010043745714938268 1.3789404285091678e-08 -6.718750711343091e-08 1.3789404285091678e-08 0.00010043219663202763" pbc="T T T"
Sn       1.99590548       1.41131875       3.45701095      -0.00000485       0.00000085       0.00000298
Sn       5.98771627       4.23395635      10.37102883      -0.00000041       0.00000076      -0.00000333
Ta      -0.00000015      -0.00000011       0.00000075      -0.00000049      -0.00000484      -0.00001619
Cl       1.95286225       1.38088266       6.91401957      -0.00040323      -0.00028825      -0.00000217
Cl       6.03075947       4.26439107       6.91402033       0.00040823       0.00028944      -0.00000008
Cl       5.01128556       1.38088166       5.14823874       0.00020060      -0.00028670      -0.00034982
Cl       2.97233698       4.26439121       8.67980014      -0.00020853       0.00029671       0.00036198
Cl       2.97233666       4.26439137       5.14823828      -0.00019899       0.00028408      -0.00034970
Cl       5.01128528       1.38088283       8.67980011       0.00020736      -0.00029218       0.00035620
