9
Lattice="6.293542661780061 -8.668157790648784e-08 3.633578379236617 2.097847454159021 5.933608771100603 3.633578410488778 -9.690145599091197e-08 -3.024374157442552e-08 7.267156926311531" Properties=species:S:1:pos:R:3:forces:R:3 energy=-35.40850830078125 free_energy=-35.40850830078125 stress="0.00028760518762283027 -4.1616200263661085e-08 -1.2800723148131965e-08 -4.1616200263661085e-08 0.00028764570015482605 2.6248773821180293e-08 -1.2800723148131965e-08 2.6248773821180293e-08 0.00028767899493686855" pbc="T T T"
Sn       2.09784742       1.48340219       3.63357788      -0.00000046      -0.00000012      -0.00000171
Sn       6.29354255       4.45020641      10.90073548       0.00000026      -0.00000003       0.00000170
Ta       0.00000017       0.00000020      -0.00000032      -0.00000260      -0.00000139       0.00000155
Br       2.07290026       1.46576195       7.26715696      -0.00681156      -0.00481588       0.00000136
Br       6.31848964       4.46784682       7.26715679       0.00681442       0.00481793      -0.00000094
Br       5.25709216       1.46576206       5.42876318       0.00341076      -0.00482222      -0.00590688
Br       3.13429752       4.46784655       9.10555077      -0.00341025       0.00482127       0.00590551
Br       3.13429781       4.46784675       5.42876303      -0.00340846       0.00482038      -0.00590369
Br       5.25709249       1.46576155       9.10555103       0.00340790      -0.00482005       0.00590307
