9
Lattice="6.0340378830417505 -1.2662719660615434e-07 3.483753183058839 2.011345888461676 5.68894524998557 3.4837531019415935 -7.644818419499316e-08 -1.5340488166128334e-07 6.967506498529824" Properties=species:S:1:pos:R:3:forces:R:3 energy=-26.44447135925293 free_energy=-26.44447135925293 stress="0.0002616593847051263 2.3093079448699427e-08 3.1339830286469805e-08 2.3093079448699427e-08 0.00026169588090851903 1.9183106658715587e-08 3.1339830286469805e-08 1.9183106658715587e-08 0.00026168584008701146" pbc="T T T"
Sn       2.01134717       1.42223764       3.48375431       0.00000651       0.00000568       0.00000474
Sn       6.03403726       4.26671004      10.45125781      -0.00000407       0.00000859      -0.00001012
Tl       0.00000017       0.00000003      -0.00000005       0.00000117       0.00000076      -0.00000432
Cl       2.10919179       1.49142245       6.96750637      -0.00595243      -0.00421229      -0.00000270
Cl       5.93619278       4.19752134       6.96750740       0.00595268       0.00420608       0.00000435
Cl       4.97944107       1.49142248       5.31036632       0.00297203      -0.00421175      -0.00515587
Cl       3.06594196       4.19752144       8.62464655      -0.00297599       0.00421038       0.00516142
Cl       3.06594101       4.19752165       5.31036620      -0.00297689       0.00420396      -0.00515591
Cl       4.97944162       1.49142282       8.62464617       0.00297692      -0.00421133       0.00515843
