9
Lattice="6.062235687581113 -2.2607112509414466e-07 3.5000333174012637 2.0207450266492204 5.715530348682539 3.50003329904603 -1.0727901503250843e-07 -9.833823224915647e-08 7.0000668206152366" Properties=species:S:1:pos:R:3:forces:R:3 energy=-33.53954315185547 free_energy=-33.53954315185547 stress="8.242812327807769e-05 3.285268501684868e-09 -3.4145872795932064e-09 3.285268501684868e-09 8.240727038355544e-05 7.207243690743326e-09 -3.4145872795932064e-09 7.207243690743326e-09 8.243558113463223e-05" pbc="T T T"
Sr       2.02074503       1.42888244       3.50003341       0.00000030       0.00000009      -0.00000012
Sr       6.06223534       4.28664770      10.50010023      -0.00000056       0.00000099       0.00000025
As      -0.00000007      -0.00000044      -0.00000029      -0.00000058       0.00000736       0.00000308
Cl       2.03289371       1.43747263       7.00006666      -0.00002581      -0.00001910      -0.00000039
Cl       6.05008724       4.27805740       7.00006663       0.00002319       0.00001532      -0.00000058
Cl       5.04578887       1.43747245       5.26057059       0.00001299      -0.00001812      -0.00002211
Cl       3.03719172       4.27805779       8.73956302      -0.00001100       0.00001568       0.00001976
Cl       3.03719154       4.27805753       5.26057058      -0.00001091       0.00001520      -0.00002021
Cl       5.04578897       1.43747257       8.73956293       0.00001234      -0.00001752       0.00002024
