9
Lattice="6.917817108975013 -2.452257298052024e-07 3.994003672703723 2.3059388620425616 6.522180457724254 3.9940035741178264 6.82347281244048e-08 -7.249330642232654e-08 7.988007227221391" Properties=species:S:1:pos:R:3:forces:R:3 energy=-25.82744789123535 free_energy=-25.82744789123535 stress="4.783800613950007e-05 -1.834967022773526e-08 1.1468437755013383e-08 -1.834967022773526e-08 4.784897464560345e-05 -1.4812902904282055e-08 1.1468437755013383e-08 -1.4812902904282055e-08 4.786149656865746e-05" pbc="T T T"
Sr       2.30593842       1.63054482       3.99400362      -0.00000056       0.00000178      -0.00000074
Sr       6.91781765       4.89163525      11.98201072       0.00000021      -0.00000114       0.00000104
As      -0.00000017      -0.00000019       0.00000023       0.00000094       0.00000088      -0.00000068
I        2.34515775       1.65827678       7.98800718      -0.00078063      -0.00055245       0.00000048
I        6.87859857       4.86390335       7.98800727       0.00077987       0.00055152      -0.00000016
I        5.74523818       1.65827693       6.02497017       0.00039128      -0.00055309      -0.00067723
I        3.47851787       4.86390330       9.95104433      -0.00039139       0.00055286       0.00067660
I        3.47851781       4.86390326       6.02497008      -0.00039160       0.00055364      -0.00067794
I        5.74523811       1.65827705       9.95104428       0.00039185      -0.00055401       0.00067858
