9
Lattice="6.371143833403843 -1.2996141349287472e-08 3.6783815957699426 2.1237146321189155 6.00677205983173 3.6783815382014904 3.075691802388092e-08 -4.875821835343579e-08 7.356763138267357" Properties=species:S:1:pos:R:3:forces:R:3 energy=-29.853614807128906 free_energy=-29.853614807128906 stress="8.477820665575564e-05 2.6248179185728304e-09 -7.470354113081612e-09 2.6248179185728304e-09 8.47767005325295e-05 8.084185765255825e-09 -7.470354113081612e-09 8.084185765255825e-09 8.479660755256191e-05" pbc="T T T"
Sr       2.12371472       1.50169277       3.67838133      -0.00000046      -0.00000042      -0.00000019
Sr       6.37114347       4.50507909      11.03514491       0.00000001      -0.00000017       0.00000007
As       0.00000022       0.00000006       0.00000078       0.00000003      -0.00000129      -0.00000739
Br       2.15523769       1.52398330       7.35676315      -0.00096968      -0.00068659       0.00000071
Br       6.33962043       4.48278862       7.35676304       0.00097105       0.00068638       0.00000019
Br       5.29352516       1.52398314       5.54487179       0.00048311      -0.00068408      -0.00083733
Br       3.20133366       4.48278880       9.16865392      -0.00048529       0.00068805       0.00084239
Br       3.20133362       4.48278882       5.54487206      -0.00048377       0.00068450      -0.00083858
Br       5.29352503       1.52398335       9.16865402       0.00048497      -0.00068635       0.00084001
