9
Lattice="5.139439529443594 -7.440401730411767e-08 2.9672567829980667 1.713146543685553 4.845509798386663 2.9672566028304916 1.3623182826738788e-07 -1.2432879281469134e-07 5.93451333003562" Properties=species:S:1:pos:R:3:forces:R:3 energy=-44.42515182495117 free_energy=-44.42515182495117 stress="5.022833283874206e-05 2.9242084309544225e-08 1.966792240182258e-08 2.9242084309544225e-08 5.0345290219411254e-05 3.0498430447778446e-08 1.966792240182258e-08 3.0498430447778446e-08 5.029787644161843e-05" pbc="T T T"
Sr       1.71314588       1.21137720       2.96725687      -0.00000229      -0.00000058      -0.00000016
Sr       5.13943994       3.63413237       8.90176998       0.00000018      -0.00000055      -0.00000057
As      -0.00000019      -0.00000015      -0.00000009       0.00000259      -0.00000047       0.00000182
F        1.76724337       1.24962990       5.93451340      -0.00024343      -0.00017059      -0.00000011
F        5.08534314       3.59587974       5.93451352       0.00024194       0.00016993       0.00000045
F        4.25581812       1.24962926       4.49773418       0.00012019      -0.00017059      -0.00020772
F        2.59676814       3.59588043       7.37129238      -0.00012043       0.00017107       0.00020754
F        2.59676864       3.59587998       4.49773415      -0.00012133       0.00017256      -0.00021046
F        4.25581818       1.24962932       7.37129249       0.00012258      -0.00017071       0.00020903
