9
Lattice="6.2711392778608435 1.546124252081437e-08 3.6206440259861443 2.0903797349327022 5.9124870400800695 3.6206440934170567 -3.413510284541564e-08 5.844852563987072e-08 7.24128811109602" Properties=species:S:1:pos:R:3:forces:R:3 energy=-33.410888671875 free_energy=-33.410888671875 stress="7.317785639315844e-05 -1.0854403598159479e-08 4.1996597865967544e-10 -1.0854403598159479e-08 7.318362622754648e-05 -1.619458345203384e-09 4.1996597865967544e-10 -1.619458345203384e-09 7.319285941775888e-05" pbc="T T T"
Sr       2.09037942       1.47812190       3.62064377      -0.00000109      -0.00000013      -0.00000036
Sr       6.27113942       4.43436500      10.86193212       0.00000109      -0.00000124      -0.00000086
Bi      -0.00000011       0.00000001      -0.00000033       0.00000082       0.00000009       0.00000101
Cl       2.18841095       1.54744059       7.24128814      -0.00000840      -0.00000499       0.00000029
Cl       6.17310799       4.36504659       7.24128807       0.00000793       0.00000548       0.00000072
Cl       5.17693374       1.54744043       5.51586382       0.00000522      -0.00000712      -0.00000829
Cl       3.18458531       4.36504687       8.96671275      -0.00000402       0.00000621       0.00000732
Cl       3.18458538       4.36504680       5.51586379      -0.00000550       0.00000744      -0.00000751
Cl       5.17693382       1.54744027       8.96671281       0.00000395      -0.00000575       0.00000778
