9
Lattice="6.5834604324291375 -1.4609871357147497e-08 3.8009629139419583 2.194486857328276 6.206946050466516 3.8009628095115957 1.06674698995474e-07 -5.247016170206337e-08 7.60192564311797" Properties=species:S:1:pos:R:3:forces:R:3 energy=-29.584468841552734 free_energy=-29.584468841552734 stress="0.0001413281715940684 -1.1208820538399777e-08 -1.0256894000804095e-08 -1.1208820538399777e-08 0.00014133128570392728 8.447431198987942e-09 -1.0256894000804095e-08 8.447431198987942e-09 0.00014135743549559265" pbc="T T T"
Sr       2.19448736       1.55173647       3.80096304       0.00000188      -0.00000074       0.00000130
Sr       6.58346023       4.65520979      11.40288820      -0.00000098       0.00000070      -0.00000179
Bi      -0.00000039      -0.00000012       0.00000022       0.00000384      -0.00000053      -0.00000459
Br       2.30992870       1.63336591       7.60192576      -0.00209491      -0.00148135      -0.00000024
Br       6.46801923       4.57358010       7.60192612       0.00209175       0.00147956       0.00000026
Br       5.42849603       1.63336587       5.80141939       0.00104605      -0.00147968      -0.00181240
Br       3.34945142       4.57357973       9.40243155      -0.00104783       0.00148320       0.00181641
Br       3.34945096       4.57357998       5.80141959      -0.00104756       0.00148124      -0.00181407
Br       5.42849604       1.63336615       9.40243161       0.00104783      -0.00148241       0.00181493
