9
Lattice="4.737371420913894 -3.138571850914975e-07 2.735122286460037 1.5791236671000968 4.46643538687018 2.7351220161974132 1.4731130490370658e-07 -2.2683791522597102e-07 5.470244317769371" Properties=species:S:1:pos:R:3:forces:R:3 energy=-47.105987548828125 free_energy=-47.105987548828125 stress="0.0003194012097083032 -1.0206782086186195e-08 2.6373610850782825e-08 -1.0206782086186195e-08 0.0003192308940924704 2.565505852203387e-08 2.6373610850782825e-08 2.565505852203387e-08 0.00031921599293127656" pbc="T T T"
Sr       1.57912383       1.11660839       2.73512227       0.00000018       0.00000029       0.00000010
Sr       4.73737142       3.34982631       8.20536622      -0.00000097      -0.00000033       0.00000059
B        0.00000041       0.00000002       0.00000055       0.00000288      -0.00000165       0.00000214
F        1.49328808       1.05591328       5.47024445       0.00276732       0.00195855      -0.00000000
F        4.82320687       3.41052180       5.47024441      -0.00276875      -0.00196087      -0.00000090
F        3.99072733       1.05591280       4.02834702      -0.00138324       0.00195944       0.00239766
F        2.32576787       3.41052167       6.91214105       0.00138324      -0.00195825      -0.00239778
F        2.32576789       3.41052163       4.02834701       0.00138277      -0.00195670       0.00239539
F        3.99072750       1.05591345       6.91214106      -0.00138372       0.00195920      -0.00239766
