9
Lattice="6.150361522858951 6.53821261420098e-07 3.5509128043474774 2.0501210518535657 5.798616640574111 3.550912929392182 -3.043840869609615e-08 1.316247205389017e-07 7.101825661415954" Properties=species:S:1:pos:R:3:forces:R:3 energy=-29.152263641357422 free_energy=-29.152263641357422 stress="-5.6900746130850166e-05 -1.725785203632313e-08 3.8275995706271715e-09 -1.725785203632313e-08 -5.682639675796963e-05 -1.9849947463512763e-08 3.8275995706271715e-09 -1.9849947463512763e-08 -5.660354872816242e-05" pbc="T T T"
Sr       2.05012016       1.44965439       3.55091313      -0.00000032       0.00000160      -0.00000314
Sr       6.15036216       4.34896357      10.65273743      -0.00000009       0.00000231      -0.00000267
B       -0.00000081      -0.00000405       0.00000669      -0.00001113      -0.00005337       0.00008707
Br       1.90401330       1.34634177       7.10182555       0.00436595       0.00308684      -0.00000603
Br       6.29647096       4.45227710       7.10182582      -0.00434527      -0.00306720      -0.00000725
Br       5.19835731       1.34633876       5.19983487      -0.00217478       0.00307748       0.00375125
Br       3.00212638       4.45227757       9.00381429       0.00218309      -0.00308025      -0.00377467
Br       3.00212468       4.45227953       5.19983406       0.00217004      -0.00306135       0.00374010
Br       5.19835598       1.34634095       9.00381361      -0.00218758       0.00309411      -0.00378448
