9
Lattice="5.729479394687565 -1.1361681234478486e-07 3.307916502412077 1.90982632263822 5.401805135828027 3.3079165632741105 3.4956110525418244e-08 9.925816927115042e-08 6.61583294427843" Properties=species:S:1:pos:R:3:forces:R:3 energy=-32.96751403808594 free_energy=-32.96751403808594 stress="-0.0001518081407994032 1.6911180011902616e-08 5.361806287851323e-08 1.6911180011902616e-08 -0.00015180754417087883 2.0162471692231065e-09 5.361806287851323e-08 2.0162471692231065e-09 -0.00015203269140329212" pbc="T T T"
Sr       1.90982646       1.35045115       3.30791637       0.00000230       0.00000166       0.00000014
Sr       5.72947932       4.05135398       9.92374928      -0.00000004       0.00000007       0.00000042
B       -0.00000067      -0.00000065       0.00000069      -0.00001115      -0.00000705       0.00001067
Cl       1.70864016       1.20819126       6.61583303       0.00256437       0.00181168      -0.00000133
Cl       5.93066635       4.19361461       6.61583300      -0.00256193      -0.00181103       0.00000142
Cl       4.87515938       1.20819118       4.78764213      -0.00127956       0.00181073       0.00222242
Cl       2.76414683       4.19361369       8.44402376       0.00128445      -0.00181097      -0.00222647
Cl       2.76414646       4.19361387       4.78764221       0.00128025      -0.00180757       0.00221968
Cl       4.87515879       1.20819146       8.44402362      -0.00127855       0.00181270      -0.00222689
