9
Lattice="5.342380302655715 7.336220881337879e-08 3.084424579443958 1.780793459898378 5.036844470962052 3.084424654765193 1.612497822944002e-07 2.0627012194995285e-07 6.168848879595085" Properties=species:S:1:pos:R:3:forces:R:3 energy=-43.79710388183594 free_energy=-43.79710388183594 stress="0.00016488633991684765 -1.1652162790198872e-08 -8.382949445717713e-09 -1.1652162790198872e-08 0.00016496061289217323 1.5289943533502992e-08 -8.382949445717713e-09 1.5289943533502992e-08 0.00016502429207321256" pbc="T T T"
Sr       1.78079354       1.25921062       3.08442472       0.00000133      -0.00000281       0.00000069
Sr       5.34238020       3.77763327       9.25327341      -0.00000089      -0.00000104      -0.00000043
Bi       0.00000006       0.00000012       0.00000012      -0.00000129      -0.00000350       0.00000111
F        1.85660103       1.31281533       6.16884897       0.00184041       0.00130004      -0.00000115
F        5.26657261       3.72402963       6.16884898      -0.00183892      -0.00129852       0.00000060
F        4.41407976       1.31281559       4.69228839      -0.00091828       0.00129730       0.00158906
F        2.70909433       3.72402922       7.64540973       0.00091890      -0.00129563      -0.00158986
F        2.70909455       3.72402922       4.69228874       0.00091834      -0.00129682       0.00159004
F        4.41407959       1.31281604       7.64540990      -0.00091983       0.00130102      -0.00159019
