9
Lattice="7.103326074467622 -2.4672095664452707e-07 4.101107360089538 2.3677751565315917 6.697080057959096 4.10110730641944 2.4462809517935015e-08 -4.843441095828253e-08 8.202214677808334" Properties=species:S:1:pos:R:3:forces:R:3 energy=-25.493057250976562 free_energy=-25.493057250976562 stress="0.0001966542040463537 -7.988921524315629e-09 7.242531907536431e-09 -7.988921524315629e-09 0.00019666587468236685 -1.598746024455977e-08 7.242531907536431e-09 -1.598746024455977e-08 0.00019665628497023135" pbc="T T T"
Sr       2.36777511       1.67427019       4.10110696      -0.00000199       0.00000072      -0.00000083
Sr       7.10332601       5.02281001      12.30332289       0.00000218       0.00000023       0.00000241
Bi      -0.00000006      -0.00000018       0.00000027       0.00000116       0.00000041      -0.00000177
I        2.48678104       1.75841954       8.20221459      -0.00754577      -0.00533557       0.00000015
I        6.98432045       4.93866016       8.20221436       0.00754474       0.00533401      -0.00000066
I        5.85993547       1.75841962       6.25472307       0.00377299      -0.00533506      -0.00653500
I        3.61116570       4.93866004      10.14970625      -0.00377388       0.00533585       0.00653524
I        3.61116604       4.93866017       6.25472294      -0.00377267       0.00533597      -0.00653550
I        5.85993525       1.75841954      10.14970604       0.00377326      -0.00533653       0.00653592
