9
Lattice="6.690864515553652 1.16109870482848e-07 3.862972324349797 2.2302882562171003 6.3082076993878555 3.862972367830249 -6.00050755280556e-08 1.0822700626543618e-08 7.725944752631315" Properties=species:S:1:pos:R:3:forces:R:3 energy=-25.33440399169922 free_energy=-25.33440399169922 stress="-2.4640015908516943e-05 -8.26229218375829e-09 3.9675307483832967e-10 -8.26229218375829e-09 -2.4625678634038195e-05 -1.1521128939762093e-08 3.9675307483832967e-10 -1.1521128939762093e-08 -2.4618266252218746e-05" pbc="T T T"
Sr       2.23028737       1.57705188       3.86297274      -0.00000071       0.00000054       0.00000158
Sr       6.69086496       4.73115633      11.58891657       0.00000022      -0.00000020      -0.00000093
B        0.00000063       0.00000013       0.00000007      -0.00000072      -0.00000043       0.00000038
I        2.17677557       1.53921324       7.72594447      -0.00039596      -0.00028054       0.00000066
I        6.74437675       4.76899432       7.72594456       0.00039779       0.00028113       0.00000020
I        5.60247672       1.53921269       5.74811508       0.00019839      -0.00028086      -0.00034235
I        3.31867571       4.76899506       9.70377458      -0.00019788       0.00027953       0.00034228
I        3.31867626       4.76899452       5.74811546      -0.00019912       0.00028159      -0.00034437
I        5.60247682       1.53921315       9.70377425       0.00019805      -0.00028078       0.00034259
