9
Lattice="5.945646509381183 5.67818630309898e-08 3.432720644283511 1.9818821485193998 5.605609455803036 3.4327207738562278 -1.1058581334955864e-07 8.049745709241922e-08 6.865441480107387" Properties=species:S:1:pos:R:3:forces:R:3 energy=-33.948726654052734 free_energy=-33.948726654052734 stress="0.0002496996894478798 1.3440311086299062e-08 -1.4352075083934324e-08 1.3440311086299062e-08 0.00024966822820715606 -3.249979130259817e-08 -1.4352075083934324e-08 -3.249979130259817e-08 0.0002497594687156379" pbc="T T T"
Sr       1.98188272       1.40140277       3.43272047      -0.00000046       0.00000005      -0.00000063
Sr       5.94564611       4.20420709      10.29816221       0.00000013       0.00000002       0.00000048
Ga      -0.00000042      -0.00000044       0.00000078       0.00000649       0.00000701      -0.00001546
Cl       1.95907832       1.38527708       6.86544201      -0.00774994      -0.00547954      -0.00000101
Cl       5.96845113       4.22033273       6.86544139       0.00774102       0.00547422      -0.00000104
Cl       4.96610734       1.38527676       5.12933210       0.00387054      -0.00547307      -0.00670740
Cl       2.96142104       4.22033172       8.60155011      -0.00387606       0.00548285       0.00671494
Cl       2.96142076       4.22033289       5.12933217      -0.00387019       0.00547064      -0.00670524
Cl       4.96610719       1.38527778       8.60155035       0.00387861      -0.00548217       0.00671548
