9
Lattice="4.9381325253334944 -7.088512843363676e-08 2.8510320755551164 1.6460441576253892 4.655715521368042 2.851031990086444 7.003958489701687e-08 -5.5151830586538276e-08 5.702064029798123" Properties=species:S:1:pos:R:3:forces:R:3 energy=-47.91106033325195 free_energy=-47.91106033325195 stress="0.00031590854632668197 -1.5558162758111393e-08 -2.4902235828960784e-09 -1.5558162758111393e-08 0.00031597967608831823 -1.4949333992930747e-09 -2.4902235828960784e-09 -1.4949333992930747e-09 0.0003159935004077852" pbc="T T T"
Sr       1.64604422       1.16392905       2.85103222       0.00000047       0.00000063      -0.00000022
Sr       4.93813251       3.49178675       8.55309557      -0.00000018       0.00000039      -0.00000024
Ir       0.00000008      -0.00000004       0.00000034      -0.00000776      -0.00000422      -0.00001198
F        1.68469128       1.19125623       5.70206400      -0.00075322      -0.00053310      -0.00000031
F        4.89948572       3.46445910       5.70206410       0.00075859       0.00053632       0.00000064
F        4.09578682       1.19125637       4.31001740       0.00037777      -0.00053391      -0.00065410
F        2.48839007       3.46445882       7.09411054      -0.00037959       0.00053826       0.00066000
F        2.48838988       3.46445885       4.31001746      -0.00037754       0.00053445      -0.00065464
F        4.09578666       1.19125642       7.09411067       0.00038156      -0.00053871       0.00066078
