9
Lattice="6.755856347484101 1.3379694160361521e-08 3.900495354319156 2.2519521355485996 6.369482363614385 3.900495342011068 -3.517086016871813e-08 -3.994377793362414e-08 7.8009907695559315" Properties=species:S:1:pos:R:3:forces:R:3 energy=-30.298973083496094 free_energy=-30.298973083496094 stress="2.6030000299215317e-05 5.363476773823095e-09 -6.448418687909907e-09 5.363476773823095e-09 2.602300992293749e-05 1.3612501348347905e-08 -6.448418687909907e-09 1.3612501348347905e-08 2.60119340964593e-05" pbc="T T T"
Sr       2.25195219       1.59237078       3.90049506       0.00000076      -0.00000066      -0.00000129
Sr       6.75585648       4.77711162      11.70148636       0.00000015       0.00000038       0.00000077
Ir       0.00000023      -0.00000015      -0.00000015      -0.00000216       0.00000054       0.00000069
I        2.19892633       1.55487552       7.80099081      -0.00741759      -0.00524472       0.00000045
I        6.80888227       4.81460682       7.80099072       0.00741746       0.00524516      -0.00000037
I        5.65639321       1.55487539       5.80482105       0.00370898      -0.00524409      -0.00642243
I        3.35141501       4.81460690       9.79716061      -0.00370763       0.00524344       0.00642146
I        3.35141510       4.81460690       5.80482102      -0.00370848       0.00524452      -0.00642210
I        5.65639295       1.55487558       9.79716034       0.00370859      -0.00524459       0.00642286
