9
Lattice="5.959776236667128 -1.8137324875740687e-07 3.4408784782275976 1.9865919148043922 5.61893101375439 3.440878466249273 -8.661706664866927e-08 -7.591787544748057e-08 6.8817571064802845" Properties=species:S:1:pos:R:3:forces:R:3 energy=-37.39751052856445 free_energy=-37.39751052856445 stress="5.544825762626715e-05 -3.7199100688667386e-08 -1.4802886916243096e-08 -3.7199100688667386e-08 5.543219231185503e-05 -7.547769520499514e-09 -1.4802886916243096e-08 -7.547769520499514e-09 5.5483615142293274e-05" pbc="T T T"
Sr       1.98659170       1.40473288       3.44087813       0.00000036       0.00000006      -0.00000084
Sr       5.95977610       4.21419820      10.32263473      -0.00000037      -0.00000011      -0.00000168
Ir       0.00000016      -0.00000040       0.00000149      -0.00000618       0.00001450      -0.00004399
Cl       1.93917696       1.37120493       6.88175710      -0.00055518      -0.00039265       0.00000287
Cl       6.00719124       4.24772585       6.88175709       0.00055392       0.00038984       0.00000227
Cl       4.99018765       1.37120507       5.12025513       0.00027744      -0.00039062      -0.00047431
Cl       2.95618054       4.24772552       8.64325870      -0.00028159       0.00039641       0.00049035
Cl       2.95618038       4.24772578       5.12025511      -0.00027277       0.00038412      -0.00046928
Cl       4.99018757       1.37120522       8.64325873       0.00028430      -0.00040156       0.00049451
