9
Lattice="6.301850307995514 3.921394913064598e-08 3.6383749984161438 2.10061675474613 5.941441558261081 3.6383750877154006 -4.966985363162157e-08 7.424692761201038e-08 7.276750082862968" Properties=species:S:1:pos:R:3:forces:R:3 energy=-36.144256591796875 free_energy=-36.144256591796875 stress="0.0003181739884894341 -1.6558200144345392e-08 -2.173420776685475e-09 -1.6558200144345392e-08 0.00031820754520595074 5.8563354166096815e-09 -2.173420776685475e-09 5.8563354166096815e-09 0.0003182085929438472" pbc="T T T"
Sr       2.10061666       1.48536049       3.63837513      -0.00000019      -0.00000014      -0.00000142
Sr       6.30185031       4.45608112      10.91512530      -0.00000016      -0.00000055       0.00000045
Mo       0.00000026      -0.00000011       0.00000059      -0.00000424       0.00000254      -0.00000520
Br       2.13054602       1.50652364       7.27675007      -0.00754295      -0.00533303       0.00000022
Br       6.27192084       4.43491787       7.27674999       0.00754549       0.00533492       0.00000046
Br       5.23657719       1.50652392       5.48348239       0.00377383      -0.00533680      -0.00653567
Br       3.16588996       4.43491771       9.07001753      -0.00377397       0.00533658       0.00653651
Br       3.16588992       4.43491804       5.48348214      -0.00377280       0.00533440      -0.00653297
Br       5.23657692       1.50652401       9.07001753       0.00377491      -0.00533797       0.00653765
