9
Lattice="5.131701973433268 1.8397204494178918e-07 2.96278946817814 1.710567397438012 4.838214992687048 2.962789642232299 1.7179887461096324e-08 2.2531996400673376e-07 5.925578906599803" Properties=species:S:1:pos:R:3:forces:R:3 energy=-49.3155632019043 free_energy=-49.3155632019043 stress="0.000520281377248466 -1.8155625891580485e-09 3.014328697759083e-08 -1.8155625891580485e-09 0.0005203137989155948 3.634128020735261e-08 3.014328697759083e-08 3.634128020735261e-08 0.0005203182226978242" pbc="T T T"
Sr       1.71056731       1.20955383       2.96278966       0.00000004      -0.00000057       0.00000003
Sr       5.13170202       3.62866165       8.88836774       0.00000092      -0.00000034       0.00000075
Mo      -0.00000006      -0.00000004       0.00000031       0.00000466       0.00000363      -0.00001017
F        1.72274780       1.21816702       5.92557888      -0.00250101      -0.00176802      -0.00000018
F        5.11952166       3.62004825       5.92557912       0.00249672       0.00176492       0.00000155
F        4.27032776       1.21816702       4.45473305       0.00124767      -0.00176689      -0.00216174
F        2.57194141       3.62004869       7.39642500      -0.00124964       0.00176927       0.00216699
F        2.57194148       3.62004838       4.45473351      -0.00124890       0.00176540      -0.00216162
F        4.27032802       1.21816679       7.39642506       0.00124928      -0.00176710       0.00216466
