9
Lattice="6.867068037460197 1.9970732640431323e-07 3.964703398150949 2.2890229313445865 6.47433351820231 3.9647032874637036 4.879281464590604e-08 -1.0106196107111507e-07 7.929406711790194" Properties=species:S:1:pos:R:3:forces:R:3 energy=-31.725435256958008 free_energy=-31.725435256958008 stress="6.78053402225487e-05 2.529155196384636e-08 -5.46952394486766e-09 2.529155196384636e-08 6.77805146551691e-05 9.652159960182871e-09 -5.46952394486766e-09 9.652159960182871e-09 6.77668722346425e-05" pbc="T T T"
Sr       2.28902272       1.61858382       3.96470323      -0.00000036       0.00000098      -0.00000068
Sr       6.86706836       4.85575009      11.89411057       0.00000079      -0.00000096       0.00000246
Mo       0.00000008       0.00000006      -0.00000170       0.00000133      -0.00000192       0.00002493
I        2.30001632       1.62635701       7.92940654      -0.00621175      -0.00439275       0.00000050
I        6.85607437       4.84797621       7.92940664       0.00621263       0.00439247      -0.00000016
I        5.71706018       1.62635740       5.95657572       0.00310818      -0.00439551      -0.00538329
I        3.43903044       4.84797717       9.90223837      -0.00310162       0.00438538       0.00537191
I        3.43903124       4.84797627       5.95657578      -0.00310835       0.00439600      -0.00538456
I        5.71706037       1.62635641       9.90223845       0.00309908      -0.00438366       0.00536889
