9
Lattice="4.651688006053023 -6.525460946982196e-08 2.6856533550753214 1.550562647510425 4.385653359189118 2.685653285189286 3.588290365421631e-08 -6.021952818391182e-08 5.371306647999643" Properties=species:S:1:pos:R:3:forces:R:3 energy=-43.60683059692383 free_energy=-43.60683059692383 stress="0.00016438878083135933 -3.325330411030336e-08 7.14438286308905e-08 -3.325330411030336e-08 0.00016440734907519072 -8.16851510876404e-08 7.14438286308905e-08 -8.16851510876404e-08 0.00016440285253338516" pbc="T T T"
Sr       1.55056258       1.09641341       2.68565349       0.00000047      -0.00000041      -0.00000032
Sr       4.65168795       3.28923981       8.05695983      -0.00000036       0.00000084      -0.00000068
N        0.00000014       0.00000012      -0.00000007      -0.00000345       0.00000185       0.00000269
F        1.48208178       1.04799004       5.37130689      -0.00076646      -0.00054413      -0.00000086
F        4.72016874       3.33766310       5.37130665       0.00077099       0.00054497       0.00000161
F        3.91064712       1.04799016       3.96917402       0.00038305      -0.00054532      -0.00066543
F        2.29160365       3.33766309       6.77343919      -0.00038314       0.00054210       0.00066495
F        2.29160367       3.33766308       3.96917415      -0.00038776       0.00054663      -0.00067139
F        3.91064708       1.04799003       6.77343920       0.00038683      -0.00054651       0.00066918
