9
Lattice="6.35379447034953 1.4271620907858937e-08 3.668365006226103 2.117931497006481 5.9904149232559085 3.66836501759779 -3.758147579159994e-08 -1.2646726406580633e-08 7.336730077545236" Properties=species:S:1:pos:R:3:forces:R:3 energy=-29.456340789794922 free_energy=-29.456340789794922 stress="8.531703497283161e-05 1.3361601824968261e-09 -9.966018010842959e-10 1.3361601824968261e-09 8.531525963917375e-05 3.9472108914750947e-10 -9.966018010842959e-10 3.9472108914750947e-10 8.532033098163083e-05" pbc="T T T"
Sr       2.11793165       1.49760379       3.66836482      -0.00000025      -0.00000007      -0.00000076
Sr       6.35379410       4.49281146      11.00509538       0.00000033       0.00000049       0.00000047
P       -0.00000001       0.00000002      -0.00000012      -0.00000025      -0.00000018       0.00000041
Br       2.18643497       1.54604285       7.33673002      -0.00091411      -0.00064705       0.00000026
Br       6.28529110       4.44437200       7.33672999       0.00091410       0.00064686      -0.00000031
Br       5.26057715       1.54604282       5.56187296       0.00045643      -0.00064506      -0.00079009
Br       3.21114877       4.44437201       9.11158720      -0.00045635       0.00064510       0.00079039
Br       3.21114892       4.44437202       5.56187294      -0.00045600       0.00064522      -0.00079033
Br       5.26057702       1.54604276       9.11158720       0.00045608      -0.00064529       0.00079003
