9
Lattice="5.0553130650433395 1.9891337323951487e-08 2.9186862899384116 1.6851043855179881 4.766194988906385 2.9186862695871527 5.267853868748019e-08 1.2324240770019433e-08 5.83737248863493" Properties=species:S:1:pos:R:3:forces:R:3 energy=-43.984310150146484 free_energy=-43.984310150146484 stress="0.0005728275864385068 9.802575640094346e-09 -1.2623410095002896e-09 9.802575640094346e-09 0.0005728847463615239 5.714686016067283e-11 -1.2623410095002896e-09 5.714686016067283e-11 0.000572843593545258" pbc="T T T"
Sr       1.68510434       1.19154876       2.91868617       0.00000108      -0.00000018      -0.00000096
Sr       5.05531314       3.57464651       8.75605906      -0.00000035       0.00000056       0.00000037
P        0.00000090      -0.00000127      -0.00000033      -0.00000066       0.00000273      -0.00000146
F        1.74799442       1.23601867       5.83737239      -0.00684533      -0.00484079      -0.00000040
F        4.99242326       3.53017608       5.83737241       0.00684559       0.00483811      -0.00000045
F        4.18131554       1.23601893       4.43249384       0.00342155      -0.00483945      -0.00592679
F        2.55910151       3.53017673       7.24225181      -0.00342295       0.00484106       0.00592947
F        2.55910143       3.53017685       4.43249361      -0.00342140       0.00483885      -0.00592649
F        4.18131552       1.23601867       7.24225135       0.00342233      -0.00484088       0.00592634
