9
Lattice="6.7454234484279025 -7.214023310065e-08 3.8944721599889696 2.248474346610629 6.359646385069461 3.8944722780874304 -9.77777433456887e-08 7.550121572126853e-08 7.788944489333944" Properties=species:S:1:pos:R:3:forces:R:3 energy=-29.507144927978516 free_energy=-29.507144927978516 stress="5.426758070825599e-05 4.534530528843561e-09 3.414244664767807e-09 4.534530528843561e-09 5.427742507890798e-05 -7.500829291018363e-09 3.414244664767807e-09 -7.500829291018363e-09 5.4292431741487235e-05" pbc="T T T"
Sr       2.24847385       1.58991167       3.89447218      -0.00000071       0.00000012      -0.00000031
Sr       6.74542381       4.76973518      11.68341685       0.00000017       0.00000160       0.00000103
Rh       0.00000024       0.00000026       0.00000062      -0.00000201      -0.00000530      -0.00000721
I        2.20569736       1.55966349       7.78894437      -0.00688480      -0.00486869      -0.00000001
I        6.78820004       4.79998227       7.78894446       0.00688937       0.00487076      -0.00000024
I        5.64257484       1.55966358       5.80466249       0.00344354      -0.00486913      -0.00596416
I        3.35132318       4.79998241       9.77322618      -0.00344625       0.00487301       0.00596873
I        3.35132305       4.79998277       5.80466249      -0.00344333       0.00487005      -0.00596476
I        5.64257444       1.55966390       9.77322607       0.00344404      -0.00487246       0.00596691
