9
Lattice="6.217032733875153 1.6634568625605758e-07 3.5894054150013446 2.0723443192468807 5.861474647147787 3.5894055573938806 -1.111032509592479e-07 9.583270319309113e-08 7.178811022439133" Properties=species:S:1:pos:R:3:forces:R:3 energy=-34.5568733215332 free_energy=-34.5568733215332 stress="-0.00031590089201927185 -1.1993650517183596e-08 -1.5761813187964435e-08 -1.1993650517183596e-08 -0.00031591858714818954 1.517834569142451e-08 -1.5761813187964435e-08 1.517834569142451e-08 -0.0003159006009809673" pbc="T T T"
Sr       2.07234457       1.46536906       3.58940527       0.00000021      -0.00000066      -0.00000105
Sr       6.21703213       4.39610598      10.76821709      -0.00000068       0.00000067       0.00000102
Ru       0.00000076      -0.00000051       0.00000259      -0.00001031       0.00000464      -0.00003400
Br       2.04355729       1.44501315       7.17881120       0.00370193       0.00261842      -0.00000188
Br       6.24581919       4.41646140       7.17881120      -0.00369608      -0.00261534      -0.00000119
Br       5.19525440       1.44501253       5.35917769      -0.00185436       0.00262384       0.00320926
Br       3.09412323       4.41646102       8.99844273       0.00184467      -0.00260937      -0.00319475
Br       3.09412255       4.41646286       5.35917761       0.00185751      -0.00262917       0.00321454
Br       5.19525358       1.44501417       8.99844263      -0.00184291       0.00260695      -0.00319191
