9
Lattice="4.913254636471286 1.804414699742745e-08 2.836668758820656 1.6377515585071587 4.632260668241928 2.836668765740928 -2.64384800785685e-08 -1.0219222694649085e-08 5.673337563434083" Properties=species:S:1:pos:R:3:forces:R:3 energy=-48.94321060180664 free_energy=-48.94321060180664 stress="0.0002782875089906156 -1.9994072175677502e-08 -4.468253678169276e-08 -1.9994072175677502e-08 0.00027828282327391207 1.3517949426500309e-08 -4.468253678169276e-08 1.3517949426500309e-08 0.0002783306990750134" pbc="T T T"
Sr       1.63775151       1.15806499       2.83666887      -0.00000005      -0.00000011      -0.00000006
Sr       4.91325455       3.47419569       8.51000628       0.00000020      -0.00000025       0.00000001
Ru       0.00000006      -0.00000032       0.00000010      -0.00000076       0.00000561       0.00000351
F        1.67983341       1.18782136       5.67333761      -0.00075448      -0.00053415      -0.00000031
F        4.87117273       3.44443923       5.67333761       0.00075352       0.00053331       0.00000069
F        4.07333787       1.18782194       4.29144753       0.00037980      -0.00053868      -0.00065917
F        2.47766848       3.44443893       7.05522751      -0.00037855       0.00053582       0.00065523
F        2.47766828       3.44443929       4.29144707      -0.00037727       0.00053284      -0.00065356
F        4.07333783       1.18782169       7.05522765       0.00037745      -0.00053421       0.00065389
