9
Lattice="5.919470063051969 5.322469703789271e-09 3.4176075568511903 1.9731566968174483 5.580929869361816 3.4176075497231575 -8.32521887543603e-09 -1.4616858234285428e-08 6.835215128122089" Properties=species:S:1:pos:R:3:forces:R:3 energy=-38.00376510620117 free_energy=-38.00376510620117 stress="-0.0003302069380879402 8.682267349513495e-09 2.037837276702703e-08 8.682267349513495e-09 -0.00033023356809280813 -7.4400294813870005e-09 2.037837276702703e-08 -7.4400294813870005e-09 -0.00033022445859387517" pbc="T T T"
Sr       1.97315666       1.39523241       3.41760759       0.00000149       0.00000044      -0.00000050
Sr       5.91947007       4.18569749      10.25282258      -0.00000147       0.00000060       0.00000083
Ru       0.00000012      -0.00000015      -0.00000017      -0.00000080       0.00000106       0.00000262
Cl       1.94746967       1.37706895       6.83521510       0.00610468       0.00431640       0.00000060
Cl       5.94515707       4.20386092       6.83521512      -0.00610371      -0.00431651      -0.00000076
Cl       4.94573520       1.37706900       5.10416572      -0.00305241       0.00431566       0.00528661
Cl       2.94689145       4.20386100       8.56626474       0.00305335      -0.00431823      -0.00528883
Cl       2.94689150       4.20386093       5.10416559       0.00305179      -0.00431587       0.00528655
Cl       4.94573526       1.37706887       8.56626467      -0.00305296       0.00431649      -0.00528709
