9
Lattice="6.206725316375783 -8.969722590674858e-08 3.5834545638790565 2.0689084067746766 5.851756678665141 3.5834544728596476 3.3225178555391985e-08 -8.798178252287367e-08 7.166909070210416" Properties=species:S:1:pos:R:3:forces:R:3 energy=-33.437591552734375 free_energy=-33.437591552734375 stress="-0.00014116197417024523 1.2028311680012393e-09 1.4767687517291961e-08 1.2028311680012393e-09 -0.0001411718112649396 -3.073323995295141e-08 1.4767687517291961e-08 -3.073323995295141e-08 -0.00014115900557953864" pbc="T T T"
Sr       2.06890809       1.46293889       3.58345461      -0.00000073       0.00000038       0.00000019
Sr       6.20672551       4.38881751      10.75036345       0.00000033      -0.00000032      -0.00000049
Rh      -0.00000014      -0.00000175      -0.00000008      -0.00000115       0.00002787       0.00000058
Br       2.03614601       1.43977237       7.16690904      -0.00211477      -0.00149453      -0.00000056
Br       6.23948894       4.41198468       7.16690899       0.00210022       0.00148675       0.00000009
Br       5.18865235       1.43977240       5.34680874       0.00105704      -0.00149444      -0.00183175
Br       3.08698091       4.41198465       8.98701051      -0.00104912       0.00148499       0.00181693
Br       3.08698127       4.41198438       5.34680780      -0.00105106       0.00148738      -0.00182026
Br       5.18865212       1.43977287       8.98700933       0.00105922      -0.00149812       0.00183532
