9
Lattice="5.923017252447193 -5.913526214689717e-08 3.419655452670989 1.9743390373708147 5.584274045750474 3.419655437125916 2.044305307513674e-08 -4.5834104260044795e-09 6.83931086993358" Properties=species:S:1:pos:R:3:forces:R:3 energy=-36.923763275146484 free_energy=-36.923763275146484 stress="6.435798422899097e-05 -4.2048213799716905e-09 -1.159610008016898e-08 -4.2048213799716905e-09 6.434377428377047e-05 -1.979225672243956e-08 -1.159610008016898e-08 -1.979225672243956e-08 6.433699309127405e-05" pbc="T T T"
Sr       1.97433878       1.39606844       3.41965537       0.00000007       0.00000023       0.00000066
Sr       5.92301761       4.18820538      10.25896603       0.00000027      -0.00000024       0.00000109
Rh      -0.00000051       0.00000086      -0.00000203       0.00000876      -0.00001489       0.00004252
Cl       1.93527039       1.36844267       6.83931081      -0.00581855      -0.00411282      -0.00000005
Cl       5.96208569       4.21583119       6.83931078       0.00581922       0.00411499      -0.00000180
Cl       4.95538162       1.36844304       5.09564935       0.00291364      -0.00412016      -0.00504687
Cl       2.94197413       4.21583165       8.58297338      -0.00290631       0.00410903       0.00503261
Cl       2.94197480       4.21583041       5.09564962      -0.00291961       0.00412823      -0.00505527
Cl       4.95538276       1.36844224       8.58297382       0.00290238      -0.00410442       0.00502713
