9
Lattice="5.224985629454899 1.3631284656177523e-07 3.016646810493521 1.7416619808187634 4.9261639920838265 3.016646852380059 6.324832354533191e-08 9.602361978190237e-08 6.033293511437738" Properties=species:S:1:pos:R:3:forces:R:3 energy=-43.97616958618164 free_energy=-43.97616958618164 stress="0.0001777752477210015 -1.350909073494222e-08 5.241588052484758e-09 -1.350909073494222e-08 0.0001777562138158828 2.0053210481041361e-10 5.241588052484758e-09 2.0053210481041361e-10 0.00017778536130208522" pbc="T T T"
Sr       1.74166166       1.23154105       3.01664658      -0.00000191       0.00000052      -0.00000017
Sr       5.22498617       3.69462280       9.04994023      -0.00000032      -0.00000053      -0.00000161
Sb      -0.00000079       0.00000038       0.00000005       0.00000715      -0.00000688      -0.00000124
F        1.82894956       1.29326287       6.03329345       0.00083017       0.00058800      -0.00000053
F        5.13769820       3.63290139       6.03329376      -0.00083145      -0.00058842       0.00000065
F        4.31051110       1.29326277       4.60056345      -0.00041575       0.00058967       0.00072309
F        2.65613670       3.63290117       7.46602367       0.00041333      -0.00058588      -0.00071712
F        2.65613664       3.63290119       4.60056383       0.00041343      -0.00058612       0.00071812
F        4.31051125       1.29326314       7.46602374      -0.00041502       0.00058961      -0.00072080
