9
Lattice="7.0553391445681575 8.229870603937198e-09 4.07340210661577 2.3517798005951187 6.651837502248311 4.073401971550624 6.715413797851807e-08 -1.1793516573335845e-07 8.146804096917268" Properties=species:S:1:pos:R:3:forces:R:3 energy=-25.51088523864746 free_energy=-25.51088523864746 stress="8.332620927831158e-05 -5.941104497253491e-09 1.1036156877253234e-08 -5.941104497253491e-09 8.332835568580776e-05 -1.514547598446825e-08 1.1036156877253234e-08 -1.514547598446825e-08 8.333223377121612e-05" pbc="T T T"
Sr       2.35177906       1.66295903       4.07340267      -0.00000096      -0.00000061       0.00000146
Sr       7.05534003       4.98887797      12.22020568       0.00000071      -0.00000033      -0.00000066
Sb       0.00000005       0.00000006       0.00000009      -0.00000019       0.00000012       0.00000205
I        2.45158557       1.73353269       8.14680424      -0.00214683      -0.00151915      -0.00000064
I        6.95553325       4.91830475       8.14680413       0.00214720       0.00151931      -0.00000023
I        5.82954667       1.73353266       6.19653746       0.00107353      -0.00151795      -0.00186005
I        3.57757264       4.91830464      10.09707051      -0.00107305       0.00151798       0.00185864
I        3.57757232       4.91830496       6.19653741      -0.00107484       0.00151803      -0.00185886
I        5.82954645       1.73353281      10.09707049       0.00107442      -0.00151740       0.00185829
