9
Lattice="6.263479323261532 9.642427553733012e-08 3.6162214877647756 2.0878265269426395 5.905264911151607 3.616221496518957 1.8448067186747444e-07 1.4116917337202069e-07 7.232442655999596" Properties=species:S:1:pos:R:3:forces:R:3 energy=-33.10573196411133 free_energy=-33.10573196411133 stress="6.288762961048633e-05 -9.875255280178408e-09 -3.515021385069872e-09 -9.875255280178408e-09 6.288613076321781e-05 5.741685349391901e-09 -3.515021385069872e-09 5.741685349391901e-09 6.287174619501457e-05" pbc="T T T"
Sr       2.08782575       1.47631625       3.61622018      -0.00000170       0.00000089      -0.00000197
Sr       6.26347960       4.42895030      10.84866361       0.00000020       0.00000197      -0.00000089
Sb       0.00000010      -0.00000006       0.00000247       0.00000181      -0.00000145      -0.00002250
Cl       2.18036032       1.54174649       7.23244345       0.00478083       0.00337847       0.00000230
Cl       6.17094602       4.36351788       7.23244328      -0.00478050      -0.00337963       0.00000181
Cl       5.17330030       1.54174670       5.50446842      -0.00239123       0.00338170       0.00414529
Cl       3.17800655       4.36351701       8.96041685       0.00238700      -0.00337614      -0.00413296
Cl       3.17800583       4.36351824       5.50446773       0.00239144      -0.00338255       0.00414422
Cl       5.17329973       1.54174777       8.96041659      -0.00238785       0.00337668      -0.00413534
