9
Lattice="5.136428206478003 1.7638320112969209e-07 2.9655179547133246 1.7121428824363703 4.842670871119844 2.965517988231939 -1.0604485904709146e-07 -3.393327116849361e-08 5.931036093101716" Properties=species:S:1:pos:R:3:forces:R:3 energy=-51.523075103759766 free_energy=-51.523075103759766 stress="2.96167672786396e-05 -6.211142711265438e-09 4.7638963884821806e-09 -6.211142711265438e-09 2.9576229280792177e-05 -1.233264779187948e-08 4.7638963884821806e-09 -1.233264779187948e-08 2.9670476578758098e-05" pbc="T T T"
Sr       1.71214276       1.21066719       2.96551773      -0.00000071      -0.00000060       0.00000001
Sr       5.13642781       3.63200268       8.89655390       0.00000046      -0.00000014      -0.00000010
Ta       0.00000012       0.00000013      -0.00000015      -0.00000284      -0.00000525       0.00000179
F        1.72501147       1.21976758       5.93103611       0.00117826       0.00083351       0.00000018
F        5.12355913       3.62290370       5.93103607      -0.00117624      -0.00083065      -0.00000002
F        4.27392271       1.21976716       4.45942132      -0.00058943       0.00083435       0.00102067
F        2.57464867       3.62290438       7.40265066       0.00059086      -0.00083303      -0.00102115
F        2.57464841       3.62290413       4.45942160       0.00058931      -0.00083196       0.00102067
F        4.27392272       1.21976739       7.40265085      -0.00058979       0.00083458      -0.00102091
