9
Lattice="6.356077261417037 -2.739989899713741e-07 3.669683164872389 2.118692205618587 5.9925665152785665 3.669683089571551 -5.8765414298598574e-09 -9.637962144592144e-08 7.339366339923261" Properties=species:S:1:pos:R:3:forces:R:3 energy=-37.03398513793945 free_energy=-37.03398513793945 stress="5.13007071276661e-05 3.682619764688866e-09 5.026950855580026e-09 3.682619764688866e-09 5.134812090545893e-05 1.4423885197345498e-08 5.026950855580026e-09 1.4423885197345498e-08 5.1307095418451354e-05" pbc="T T T"
Sr       2.11869225       1.49814121       3.66968295      -0.00000059      -0.00000022      -0.00000029
Sr       6.35607744       4.49442505      11.00904922       0.00000153       0.00000017       0.00000019
Ta      -0.00000115      -0.00000029       0.00000309       0.00000373      -0.00000056      -0.00001198
Br       2.14589649       1.51737793       7.33936549      -0.00102103      -0.00072324       0.00000044
Br       6.32887263       4.47518824       7.33936561       0.00101900       0.00072098      -0.00000022
Br       5.28312909       1.51737823       5.52808399       0.00050804      -0.00071812      -0.00087976
Br       3.19164086       4.47518813       9.15064814      -0.00051308       0.00072545       0.00088704
Br       3.19164084       4.47518833       5.52808379      -0.00050914       0.00071931      -0.00088120
Br       5.28312927       1.51737776       9.15064808       0.00051141      -0.00072396       0.00088537
