9
Lattice="6.9537260752081576 1.2365812100698805e-07 4.014735568225226 2.3179087850057383 6.5560357372336435 4.014735608610263 -4.9866668275482814e-08 1.420028645246241e-08 8.029471222822092" Properties=species:S:1:pos:R:3:forces:R:3 energy=-23.638946533203125 free_energy=-23.638946533203125 stress="-7.714993262197822e-05 1.6665223867562418e-08 -3.256500402670781e-09 1.6665223867562418e-08 -7.717738481005654e-05 6.611511338405762e-09 -3.256500402670781e-09 6.611511338405762e-09 -7.718288543401286e-05" pbc="T T T"
Sr       2.31790861       1.63900881       4.01473572       0.00000083       0.00000162      -0.00000205
Sr       6.95372619       4.91702707      12.04420679      -0.00000119      -0.00000142       0.00000214
Tl       0.00000016      -0.00000000       0.00000019      -0.00000085      -0.00000024      -0.00000048
I        2.44509703       1.72894447       8.02947146      -0.00241660      -0.00170608       0.00000038
I        6.82653777       4.82709140       8.02947117       0.00241819       0.00170727      -0.00000092
I        5.73117779       1.72894444       6.13225145       0.00120688      -0.00170734      -0.00209102
I        3.54045730       4.82709116       9.92669080      -0.00120750       0.00170735       0.00209139
I        3.54045676       4.82709132       6.13225143      -0.00120631       0.00170776      -0.00209105
I        5.73117761       1.72894483       9.92669059       0.00120660      -0.00170899       0.00209159
