9
Lattice="6.142718122187775 -3.9899461094496356e-08 3.546500053340722 2.0475727277887863 5.791410008854387 3.5464999528637184 1.034444996290484e-07 -4.991239937351451e-08 7.092999927510355" Properties=species:S:1:pos:R:3:forces:R:3 energy=-31.55561065673828 free_energy=-31.55561065673828 stress="6.113567360443994e-05 -1.961591422627862e-08 -2.1157111618208546e-09 -1.961591422627862e-08 6.114469579188153e-05 -4.084502069900964e-09 -2.1157111618208546e-09 -4.084502069900964e-09 6.115619180491194e-05" pbc="T T T"
Sr       2.04757231       1.44785249       3.54650004      -0.00000071       0.00000062       0.00000004
Sr       6.14271833       4.34355743      10.63949978       0.00000020       0.00000028      -0.00000036
Tl      -0.00000013      -0.00000007      -0.00000025       0.00000508       0.00000017       0.00000253
Cl       2.13635569       1.51063152       7.09300002      -0.00061461      -0.00043437       0.00000041
Cl       6.05393578       4.28077882       7.09300011       0.00060917       0.00042932      -0.00000034
Cl       5.07454028       1.51063118       5.39663813       0.00030716      -0.00043324      -0.00053039
Cl       3.11575069       4.28077856       8.78936182      -0.00030641       0.00043440       0.00053164
Cl       3.11575041       4.28077833       5.39663823      -0.00030728       0.00043575      -0.00053321
Cl       5.07454048       1.51063138       8.78936191       0.00030740      -0.00043295       0.00052974
