9
Lattice="6.061973733774738 2.4200962140527825e-07 3.4998826659145976 2.0206580420143365 5.715284730113298 3.4998828346386075 -2.4209204624815723e-07 3.54588205250252e-08 6.999765751144953" Properties=species:S:1:pos:R:3:forces:R:3 energy=-41.00776672363281 free_energy=-41.00776672363281 stress="4.066793917445466e-05 3.023837891191761e-08 3.1123441601721424e-09 3.023837891191761e-08 4.069019269081764e-05 2.3181117025927733e-09 3.1123441601721424e-09 2.3181117025927733e-09 4.073938907822594e-05" pbc="T T T"
Sr       2.02065745       1.42882206       3.49988309       0.00000027       0.00000092      -0.00000069
Sr       6.06197476       4.28646220      10.49964904       0.00000073      -0.00000122       0.00000134
Ta      -0.00000016       0.00000072       0.00000002      -0.00000022      -0.00000283      -0.00000549
Cl       2.03123016       1.43629599       6.99976683      -0.00017726      -0.00012362      -0.00000212
Cl       6.05140277       4.27898828       6.99976490       0.00017512       0.00012338       0.00000121
Cl       5.04635968       1.43629709       5.25897987       0.00008625      -0.00012237      -0.00015211
Cl       3.03627169       4.27898845       8.74055080      -0.00008768       0.00012618       0.00015533
Cl       3.03627217       4.27898879       5.25898013      -0.00008768       0.00012356      -0.00015330
Cl       5.04635764       1.43629634       8.74055066       0.00009030      -0.00012404       0.00015509
