9
Lattice="5.2069803997891295 -7.010983995749577e-09 3.006251398300102 1.7356601025197913 4.909188196600903 3.0062514401001015 1.924619037458124e-08 6.480344361921231e-08 6.0125027632647114" Properties=species:S:1:pos:R:3:forces:R:3 energy=-41.92121124267578 free_energy=-41.92121124267578 stress="0.00026882856036536396 -1.788134618152526e-08 -2.942322219201543e-10 -1.788134618152526e-08 0.00026889648870564997 -2.1548487438849406e-08 -2.942322219201543e-10 -2.1548487438849406e-08 0.00026889852597378194" pbc="T T T"
Sr       1.73566034       1.22729698       3.00625117      -0.00000104      -0.00000017      -0.00000181
Sr       5.20698051       3.68189129       9.01875383       0.00000022       0.00000061      -0.00000155
Tl      -0.00000023      -0.00000010      -0.00000054      -0.00000192       0.00000057       0.00000183
F        1.83603703       1.29827421       6.01250314      -0.00249423      -0.00176351       0.00000028
F        5.10660327       3.61091391       6.01250311       0.00249508       0.00176503       0.00000048
F        4.28896222       1.29827421       4.59630664       0.00124954      -0.00176586      -0.00216341
F        2.65367902       3.61091355       7.42869948      -0.00124745       0.00176425       0.00216119
F        2.65367851       3.61091423       4.59630641      -0.00124864       0.00176562      -0.00216135
F        4.28896148       1.29827479       7.42869923       0.00124860      -0.00176662       0.00216436
