9
Lattice="7.010371142387015 1.4189603089734328e-07 4.047439549080582 2.3367904628593883 6.609441327290327 4.047439638657376 -1.2481485854991811e-08 1.0088298417361339e-07 8.094879119779716" Properties=species:S:1:pos:R:3:forces:R:3 energy=-32.55727767944336 free_energy=-32.55727767944336 stress="4.8891230107983574e-05 9.647990850680799e-09 -7.014714142883349e-09 9.647990850680799e-09 4.890223135589622e-05 1.3767851747559234e-08 -7.014714142883349e-09 1.3767851747559234e-08 4.889556657872163e-05" pbc="T T T"
Sr       2.33679040       1.65236041       4.04743910      -0.00000070      -0.00000076      -0.00000118
Sr       7.01037122       4.95708128      12.14231895       0.00000004      -0.00000006       0.00000038
Ta      -0.00000001       0.00000033      -0.00000018       0.00000068      -0.00000570       0.00000127
I        2.33816952       1.65333581       8.09487921      -0.00020608      -0.00014657       0.00000022
I        7.00899185       4.95610567       8.09487909       0.00020990       0.00014874       0.00000018
I        5.84128643       1.65333588       6.07235389       0.00010325      -0.00014699      -0.00017872
I        3.50587535       4.95610559      10.11740442      -0.00010495       0.00014868       0.00018203
I        3.50587516       4.95610585       6.07235407      -0.00010385       0.00014678      -0.00018039
I        5.84128646       1.65333544      10.11740476       0.00010157      -0.00014433       0.00017607
