9
Lattice="5.631811337355772 3.2612285478337607e-08 3.2515277104253375 1.8772705066148314 5.3097224937087395 3.251527658321053 2.6530834612058204e-08 -4.505431293393252e-08 6.503055374897907" Properties=species:S:1:pos:R:3:forces:R:3 energy=-41.24372100830078 free_energy=-41.24372100830078 stress="0.0003454318502917886 2.69555027188062e-08 3.1411627077204685e-08 2.69555027188062e-08 0.0003454295510891825 -4.5008803795099084e-08 3.1411627077204685e-08 -4.5008803795099084e-08 0.0003454441321082413" pbc="T T T"
Ta       1.87727098       1.32743004       3.25152821       0.00000468      -0.00000807       0.00000564
Ta       5.63181125       3.98229246       9.75458381      -0.00000428       0.00000774       0.00000391
As       0.00000002      -0.00000005      -0.00000018       0.00000035      -0.00000251       0.00000230
Se       1.96326603       1.38823828       6.50305573      -0.00173357      -0.00123101      -0.00000008
Se       5.54581606       3.92148407       6.50305530       0.00173503       0.00122973      -0.00000239
Se       4.65017821       1.38823859       4.95176516       0.00086510      -0.00122508      -0.00150153
Se       2.85890335       3.92148461       8.05434479      -0.00086221       0.00122884       0.00149810
Se       2.85890333       3.92148363       4.95176532      -0.00086989       0.00122809      -0.00150669
Se       4.65017830       1.38823836       8.05434489       0.00086510      -0.00122765       0.00150022
