9
Lattice="5.894075558914352 1.7700192388938073e-07 3.4029463560998816 1.964692001020281 5.556988462180734 3.4029463887147355 -8.455143700875002e-08 -1.9842003035968252e-08 6.805892858647173" Properties=species:S:1:pos:R:3:forces:R:3 energy=-34.17315673828125 free_energy=-34.17315673828125 stress="0.00016652960039209574 -3.866603481839093e-09 -3.9111407446057456e-09 -3.866603481839093e-09 0.00016671893536113203 -6.368207294826789e-09 -3.9111407446057456e-09 -6.368207294826789e-09 0.00016658668755553663" pbc="T T T"
Ta       1.96468697       1.38925758       3.40294348      -0.00003877       0.00009050      -0.00001851
Ta       5.89407090       4.16773349      10.20882877      -0.00003763      -0.00007192      -0.00008571
As       0.00000090      -0.00000029       0.00000132       0.00000519      -0.00000020       0.00000734
Cl       1.95433544       1.38192607       6.80589246      -0.00120825      -0.00083825       0.00000649
Cl       5.90443432       4.17505974       6.80589878       0.00122571       0.00082162       0.00003944
Cl       4.91691028       1.38192540       5.09545242       0.00062120      -0.00084326      -0.00103182
Cl       2.94186115       4.17506125       8.51633702      -0.00058246       0.00082904       0.00106716
Cl       2.94186167       4.17506344       5.09545104      -0.00059998       0.00083596      -0.00104323
Cl       4.91690820       1.38192796       8.51633722       0.00061497      -0.00082353       0.00105926
