9
Lattice="5.368293652496143 1.1308980641348725e-07 3.09938609453497 1.7894313634601902 5.061275585684016 3.0993860263971986 1.6964337320561035e-07 3.650460405061557e-08 6.198771895239037" Properties=species:S:1:pos:R:3:forces:R:3 energy=-45.70161056518555 free_energy=-45.70161056518555 stress="5.660619353875518e-05 4.6225019367795994e-09 -8.369512016770386e-08 4.6225019367795994e-09 5.6595290516270325e-05 -1.3117604780177317e-08 -8.369512016770386e-08 -1.3117604780177317e-08 5.64188594580628e-05" pbc="T T T"
Ta       1.78942994       1.26531886       3.09938376      -0.00002494      -0.00000481      -0.00003639
Ta       5.36829560       3.79595877       9.29815925       0.00003019       0.00002853       0.00002637
As       0.00000028       0.00000008      -0.00000023      -0.00000219       0.00000200       0.00000043
S        1.89085574       1.33703786       6.19877108      -0.00384587      -0.00271052      -0.00000264
S        5.26686986       3.72423725       6.19876976       0.00384933       0.00270212      -0.00002170
S        4.42286661       1.33703438       4.73691818       0.00193071      -0.00273961      -0.00330025
S        2.73485882       3.72423833       7.66062847      -0.00192800       0.00271195       0.00331575
S        2.73485975       3.72424017       4.73691615      -0.00191015       0.00272721      -0.00331283
S        4.42286407       1.33703710       7.66062980       0.00190100      -0.00271696       0.00333160
