9
Lattice="6.663792187358368 -8.137558221485603e-08 3.8473423325676652 2.2212639956741644 6.282683485538719 3.8473423153459163 5.2104914528219184e-08 1.5751487753544064e-08 7.694684574886978" Properties=species:S:1:pos:R:3:forces:R:3 energy=-28.703664779663086 free_energy=-28.703664779663086 stress="0.00012021789734717458 -1.0028617936086448e-08 -8.98169272289806e-09 -1.0028617936086448e-08 0.0001202158018713817 2.3795017067840263e-09 -8.98169272289806e-09 2.3795017067840263e-09 0.00012021869770251215" pbc="T T T"
Ta       2.22126340       1.57067072       3.84734182      -0.00000253      -0.00000029      -0.00000204
Ta       6.66379263       4.71201264      11.54202754       0.00000149       0.00000109       0.00000179
As      -0.00000008      -0.00000004      -0.00000006       0.00000044       0.00000094      -0.00000022
I        2.30443723       1.62948335       7.69468460      -0.00274210      -0.00193824       0.00000038
I        6.58061924       4.65319999       7.69468443       0.00274161       0.00193804      -0.00000043
I        5.51157366       1.62948329       5.84304407       0.00137357      -0.00194035      -0.00237572
I        3.37348272       4.65320037       9.54632546      -0.00137234       0.00193957       0.00237462
I        3.37348282       4.65320034       5.84304353      -0.00137049       0.00193976      -0.00237426
I        5.51157328       1.62948306       9.54632556       0.00137041      -0.00194047       0.00237592
