9
Lattice="6.396937088982356 6.87385474983434e-08 3.6932733905450545 2.132312445756146 6.031090087910835 3.6932733594465583 1.2616738819028262e-08 -2.9166314878843275e-08 7.3865467592372696" Properties=species:S:1:pos:R:3:forces:R:3 energy=-29.506179809570312 free_energy=-29.506179809570312 stress="8.809859718894586e-05 -3.9982248623005034e-09 -1.8031697246456702e-09 -3.9982248623005034e-09 8.812603482510895e-05 7.863831363863483e-09 -1.8031697246456702e-09 7.863831363863483e-09 8.809968130663037e-05" pbc="T T T"
Ta       2.13231229       1.50777235       3.69327320      -0.00000072       0.00000007      -0.00000050
Ta       6.39693691       4.52331702      11.07982217      -0.00000124      -0.00000379       0.00001065
Be       0.00000019       0.00000032      -0.00000022       0.00000035      -0.00000068      -0.00000083
I        2.10919612       1.49142714       7.38654695       0.00119281       0.00084407      -0.00000045
I        6.42005339       4.53966317       7.38654600      -0.00119270      -0.00084378      -0.00000463
I        5.34233894       1.49142719       5.51989041      -0.00059609       0.00084596       0.00103234
I        3.18691055       4.53966316       9.25320259       0.00059495      -0.00084218      -0.00103409
I        3.18691089       4.53966320       5.51989047       0.00059798      -0.00084339       0.00103217
I        5.34233890       1.49142691       9.25320250      -0.00059536       0.00084378      -0.00103458
