9
Lattice="6.416306851935313 2.6146752282815757e-08 3.7044565994686875 2.138768968056623 6.049352163199574 3.704456612008581 -2.040072892016114e-08 9.326825288621407e-10 7.408913234272493" Properties=species:S:1:pos:R:3:forces:R:3 energy=-29.327348709106445 free_energy=-29.327348709106445 stress="-4.970731424691621e-06 2.5433428696430838e-09 6.988129630514095e-09 2.5433428696430838e-09 -4.961086233379319e-06 -3.5596166014784103e-09 6.988129630514095e-09 -3.5596166014784103e-09 -4.956291832058923e-06" pbc="T T T"
Ta       2.13876880       1.51233796       3.70445639      -0.00000059       0.00000158      -0.00000240
Ta       6.41630735       4.53701499      11.11337003       0.00000297       0.00000397       0.00000005
B        0.00000025      -0.00000006      -0.00000073      -0.00000085      -0.00000018       0.00000093
I        2.14161529       1.51435134       7.40891349       0.00036012       0.00025394       0.00000021
I        6.41346030       4.53500075       7.40891330      -0.00036084      -0.00025466      -0.00000142
I        5.34549903       1.51435050       5.55915060      -0.00018218       0.00025400       0.00031175
I        3.20957649       4.53500085       9.25867614       0.00018069      -0.00025471      -0.00031123
I        3.20957638       4.53500138       5.55915062       0.00018062      -0.00025530       0.00031238
I        5.34549926       1.51435100       9.25867588      -0.00018002       0.00025146      -0.00031041
