9
Lattice="5.813962375718922 1.5900121379253044e-07 3.3566927677466714 1.937987587959097 5.4814565705513285 3.356692803291281 -6.204554878097774e-08 -3.3979389580040307e-10 6.713385642959403" Properties=species:S:1:pos:R:3:forces:R:3 energy=-34.82537078857422 free_energy=-34.82537078857422 stress="-8.36301114759408e-06 1.7328510182323953e-08 2.771003204671274e-09 1.7328510182323953e-08 -8.310539669764694e-06 1.0732989608186472e-08 2.771003204671274e-09 1.0732989608186472e-08 -8.362267180928029e-06" pbc="T T T"
Ta       1.93798743       1.37036433       3.35669266      -0.00000179       0.00000057      -0.00000066
Ta       5.81396227       4.11109203      10.07007833       0.00000125      -0.00000202      -0.00000119
Be      -0.00000016       0.00000027       0.00000020       0.00000061      -0.00000341       0.00000098
Br       1.87962610       1.32909638       6.71338557      -0.00224498      -0.00158598       0.00000003
Br       5.87232420       4.15236013       6.71338561       0.00224550       0.00158934       0.00000104
Br       4.87414941       1.32909667       4.98449667       0.00112142      -0.00158674      -0.00194492
Br       2.87780042       4.15236029       8.44227439      -0.00112166       0.00158726       0.00194485
Br       2.87780055       4.15236030       4.98449691      -0.00112215       0.00158732      -0.00194454
Br       4.87414944       1.32909650       8.44227448       0.00112180      -0.00158674       0.00194424
