9
Lattice="3.9246087681511765 -5.75012469399529e-07 2.265872599346753 1.3082023410782952 3.7001460063235343 2.265872667782069 1.4128134623242173e-06 1.0828253617386543e-06 4.531742751629151" Properties=species:S:1:pos:R:3:forces:R:3 energy=-45.1497802734375 free_energy=-45.1497802734375 stress="-6.780415424145758e-05 8.868851182342041e-06 -7.861800440878142e-06 8.868851182342041e-06 -4.226513738103677e-06 -5.639494702336378e-06 -7.861800440878142e-06 -5.639494702336378e-06 -4.359006925369613e-05" pbc="T T T"
Ta       1.30834402       0.92475735       2.26578019       0.00316346      -0.00636825      -0.00210755
Ta       3.92447089       2.77539713       6.79771226      -0.00314324       0.00644061       0.00215664
Be      -0.00000025      -0.00000046      -0.00000038       0.00000718      -0.00000564       0.00000961
F        1.47964436       1.04622440       4.53175345       0.00093687      -0.00023079       0.00022135
F        3.75316853       2.65391968       4.53173277      -0.00093162       0.00020683      -0.00023184
F        3.18478391       1.04623523       3.54726853      -0.00050873       0.00007522       0.00053489
F        2.04802678       2.65390896       5.51621877       0.00050819      -0.00010192      -0.00053322
F        2.04803673       2.65391306       3.54726647       0.00073975       0.00006950       0.00049531
F        3.18477479       1.04623036       5.51622004      -0.00077236      -0.00008547      -0.00054443
