9
Lattice="4.451219661699021 -0.2712669801864102 1.9089922964799328 1.2150399323728858 3.572453021355972 1.9244251899905795 -0.04729446806535152 -0.005887106688154948 3.880797427135218" Properties=species:S:1:pos:R:3:forces:R:3 energy=-51.824989318847656 free_energy=-51.824989318847656 stress="2.840534580172971e-05 -3.8204834709176794e-05 -0.0002863447298295796 -3.8204834709176794e-05 0.0009577512973919511 7.5937008659821e-05 -0.0002863447298295796 7.5937008659821e-05 0.00043588021071627736" pbc="T T T"
Ta       1.34503306       0.60490810       1.97889903      -0.00267479      -0.00212982      -0.00829756
Ta       4.13405453       2.63082598       5.97529148       0.00734687       0.00653970      -0.00148273
B       -0.09749228       0.23854725      -0.63692662      -0.00503370      -0.00610390       0.00296276
F        1.30979043       1.13058696       3.61923656       0.00325832      -0.00311589      -0.00280309
F        4.30442080       2.17732733       4.26354734      -0.00260103       0.00608563       0.00493252
F        3.74369732       0.67835412       2.62652387      -0.00487651      -0.00038868      -0.00108528
F        2.07683935       2.48195322       5.16944002       0.00301659       0.00193048       0.00885120
F        2.66835182       2.52862973       3.32865510      -0.00072622      -0.00175917      -0.00591889
F        2.99120958       0.71004307       4.53214655       0.00229105      -0.00105989       0.00283974
