9
Lattice="4.779140383825926 -1.7631660034560255e-06 2.7592289941298698 1.5930441053078308 4.505811001650168 2.7592307728979404 -4.532766305354608e-07 1.8580216432000415e-06 5.518458773353238" Properties=species:S:1:pos:R:3:forces:R:3 energy=-47.75912857055664 free_energy=-47.75912857055664 stress="-4.347757203504443e-05 7.056149115669541e-06 4.181477834208636e-06 7.056149115669541e-06 -2.9144419386284426e-05 3.058465154026635e-06 4.181477834208636e-06 3.058465154026635e-06 -2.350405884499196e-05" pbc="T T T"
Ta       1.59343438       1.12634658       2.75912804       0.00448654      -0.00125490      -0.00137241
Ta       4.77913043       3.37933487       8.27742181       0.00023543      -0.00037662      -0.00319264
Cu       0.00001772      -0.00000712      -0.00001720       0.00013263      -0.00006352      -0.00015496
F        1.63238007       1.15429138       5.51851212      -0.00021590       0.00031018       0.00075260
F        4.73970232       3.35162816       5.51858737      -0.00103486       0.00107224       0.00141347
F        3.96282252       1.15425703       4.17290069      -0.00135572      -0.00022073      -0.00006293
F        2.40926081       3.35150948       6.86404187       0.00007400      -0.00031830       0.00052908
F        2.40917648       3.35155092       4.17298600      -0.00078457       0.00019275       0.00079393
F        3.96281027       1.15433472       6.86411015      -0.00153771       0.00065906       0.00129437
