9
Lattice="6.440117412641193 -2.1884090906417122e-08 3.7182034292297272 2.146705826037228 6.071800867276137 3.7182033556936838 5.393648200210194e-08 -5.192397461875479e-08 7.436406765038729" Properties=species:S:1:pos:R:3:forces:R:3 energy=-29.684371948242188 free_energy=-29.684371948242188 stress="5.8804620493901893e-05 -1.958521816947112e-10 -6.252837136955236e-10 -1.958521816947112e-10 5.879671516595408e-05 8.667583983879013e-09 -6.252837136955236e-10 8.667583983879013e-09 5.8791720221051946e-05" pbc="T T T"
Ta       2.14670616       1.51795123       3.71820368       0.00000153       0.00000358       0.00000148
Ta       6.44011715       4.55385085      11.15460989       0.00000004       0.00000174      -0.00000102
C        0.00000002       0.00000009      -0.00000011       0.00000050       0.00000105       0.00000026
I        2.18480558       1.54489062       7.43640654      -0.00046974      -0.00033105      -0.00000074
I        6.40201769       4.52690969       7.43640684       0.00046925       0.00032936       0.00000022
I        5.34771463       1.54489027       5.61030034       0.00023366      -0.00033198      -0.00040586
I        3.23910878       4.52691005       9.26251335      -0.00023427       0.00033004       0.00040645
I        3.23910865       4.52690986       5.61030019      -0.00023535       0.00032835      -0.00040608
I        5.34771457       1.54489051       9.26251343       0.00023429      -0.00033106       0.00040531
