9
Lattice="6.40117421522339 -8.584788395948285e-09 3.695719671068759 2.133724726857623 6.035084940362179 3.6957196770553633 1.0653892839827692e-08 1.486550016597599e-08 7.391439323684455" Properties=species:S:1:pos:R:3:forces:R:3 energy=-29.33377456665039 free_energy=-29.33377456665039 stress="0.0002049375034403056 -4.677554343857082e-09 -4.2007370915086995e-09 -4.677554343857082e-09 0.00020494445925578475 2.5382462798262395e-09 -4.2007370915086995e-09 2.5382462798262395e-09 0.00020495954959187657" pbc="T T T"
Ta       2.13372508       1.50877130       3.69571947       0.00000038      -0.00000066       0.00000004
Ta       6.40117417       4.52631376      11.08715871       0.00000097       0.00000103       0.00000008
Cu       0.00000009       0.00000004       0.00000001       0.00000023      -0.00000127      -0.00000058
I        2.17406091       1.53729332       7.39143950       0.00137892       0.00097552       0.00000011
I        6.36083805       4.49779168       7.39143935      -0.00137923      -0.00097488      -0.00000073
I        5.31414353       1.53729319       5.57851178      -0.00069053       0.00097595       0.00119426
I        3.22075525       4.49779166       9.20436715       0.00068881      -0.00097487      -0.00119321
I        3.22075513       4.49779159       5.57851168       0.00069027      -0.00097569       0.00119408
I        5.31414356       1.53729325       9.20436704      -0.00068976       0.00097487      -0.00119404
