9
Lattice="4.961471748371628 -0.5846606192843464 1.132116540299667 2.700633094516773 1.0271342709391291 1.8368042739509627 1.7901034026258562 -0.5284054580373799 2.4927128865344303" Properties=species:S:1:pos:R:3:forces:R:3 energy=-224544864.0 free_energy=-224544864.0 stress="21758242.0 26488464.0 -16416948.0 26488464.0 21236360.0 -8958013.0 -16416948.0 -8958013.0 46800512.0" pbc="T T T"
Ta       8.14823443      -1.54301778       1.29144647 57573296.00000000 54704988.00000000 36518640.00000000
Ta      13.56618879      -1.68715364       6.56601167 -94114288.00000000 236710848.00000000 292569664.00000000
C        5.80529682      -1.43739674       0.24578394 -82432072.00000000 -180030496.00000000 -16505472.00000000
F        8.03086221      -0.92890207       2.64603589 -1495270.00000000 2477169.25000000 80891528.00000000
F       10.88847013      -2.38550655       2.15875851 21230494.00000000 22393712.00000000 205061184.00000000
F       10.64128718      -2.07202654       2.91455881 166927600.00000000 -300676416.00000000 -527632832.00000000
F        7.58874493      -1.63273651       3.53403493 198074880.00000000 -171728064.00000000 53471128.00000000
F        7.95927105      -1.40366019       2.91045307 239438592.00000000 136897728.00000000 197716544.00000000
F       13.37821775      -1.93864880       4.62285856 -505203264.00000000 199250656.00000000 -322090656.00000000
