9
Lattice="5.784523877044237 4.383816502175403e-07 3.339696818099804 1.9281750230915493 5.45370195592125 3.3396968456394487 3.561363487270679e-07 2.855554928740324e-07 6.679393019353354" Properties=species:S:1:pos:R:3:forces:R:3 energy=-33.39202880859375 free_energy=-33.39202880859375 stress="0.00041646306635811925 -5.934159830189856e-08 -2.6518796403252054e-07 -5.934159830189856e-08 0.00041654278174974024 -1.7436927635117172e-07 -2.6518796403252054e-07 -1.7436927635117172e-07 0.00041631367639638484" pbc="T T T"
Ta       1.92817199       1.36342525       3.33969298      -0.00003251      -0.00000796      -0.00005161
Ta       5.78452773       4.09028124      10.01910905       0.00003933       0.00004277       0.00019576
C        0.00000011      -0.00000011       0.00000013       0.00000026       0.00000152      -0.00000244
Cl       1.98302898       1.40221357       6.67939355       0.00319051       0.00225427       0.00001239
Cl       5.72967036       4.05148851       6.67938598      -0.00318918      -0.00226392      -0.00007423
Cl       4.79301102       1.40221346       5.05705003      -0.00157512       0.00226235       0.00275473
Cl       2.91968607       4.05148884       8.30173298       0.00155747      -0.00225933      -0.00279145
Cl       2.91969198       4.05148977       5.05704869       0.00161863      -0.00224774       0.00274982
Cl       4.79300878       1.40221015       8.30173337      -0.00160927       0.00221807      -0.00279293
