9
Lattice="5.885393102209035 -6.605911526697003e-08 3.3979333409172066 1.96179766861063 5.548801718349628 3.3979332886864952 3.3412281190543286e-08 -4.034324212155971e-08 6.795866623962641" Properties=species:S:1:pos:R:3:forces:R:3 energy=-33.509212493896484 free_energy=-33.509212493896484 stress="3.851910150842741e-05 1.1475335348620774e-08 5.167572592057468e-09 1.1475335348620774e-08 3.848511914839037e-05 -1.201108634774073e-08 5.167572592057468e-09 -1.201108634774073e-08 3.850799839710817e-05" pbc="T T T"
Ta       1.96179756       1.38720038       3.39793355       0.00000003       0.00000097       0.00000085
Ta       5.88539299       4.16160143      10.19379974       0.00000024       0.00000132       0.00000166
Cu       0.00000010       0.00000001      -0.00000004      -0.00000089      -0.00000108       0.00000070
Br       1.99448161       1.41031142       6.79586683       0.00199679       0.00141189       0.00000111
Br       5.85270934       4.13849011       6.79586665      -0.00199644      -0.00141185      -0.00000144
Br       4.88815223       1.41031122       5.12520520      -0.00099907       0.00141017       0.00173004
Br       2.95903850       4.13849048       8.46652806       0.00099955      -0.00141152      -0.00173151
Br       2.95903855       4.13848996       5.12520487       0.00099788      -0.00141116       0.00172789
Br       4.88815231       1.41031147       8.46652816      -0.00099831       0.00141115      -0.00172931
