9
Lattice="5.981240644634244 -8.831104479885969e-08 3.4532706968696214 1.9937467566502405 5.639167544543837 3.4532707689819326 -2.2789667398982232e-07 -7.282811941103943e-08 6.90654178846784" Properties=species:S:1:pos:R:3:forces:R:3 energy=-32.67542266845703 free_energy=-32.67542266845703 stress="-1.9028519091079943e-05 -1.5484706850088514e-08 6.001694696777804e-10 -1.5484706850088514e-08 -1.9046936358790845e-05 2.5055122421235865e-08 6.001694696777804e-10 2.5055122421235865e-08 -1.903946031234227e-05" pbc="T T T"
Ta       1.99374742       1.40979257       3.45327085       0.00000250       0.00000099       0.00000273
Ta       5.98124050       4.22937492      10.35981207      -0.00000016      -0.00000269      -0.00000062
C       -0.00000040      -0.00000107       0.00000154       0.00000138       0.00000019      -0.00000222
Br       2.04608722       1.44680267       6.90654109      -0.00111422      -0.00078581      -0.00000078
Br       5.92889986       4.19236506       6.90654137       0.00111061       0.00078583       0.00000129
Br       4.95819651       1.44680292       5.22523438       0.00055671      -0.00078770      -0.00096623
Br       3.01679043       4.19236537       8.58784844      -0.00055549       0.00078666       0.00096567
Br       3.01679061       4.19236506       5.22523469      -0.00055625       0.00078676      -0.00096487
Br       4.95819655       1.44680211       8.58784863       0.00055497      -0.00078431       0.00096494
