9
Lattice="5.892157112249586 2.5200942748798524e-07 3.401838461755845 1.9640525298390175 5.555179074514648 3.4018385977349994 -2.761743053091264e-08 1.4701131362978558e-07 6.8036769713464205" Properties=species:S:1:pos:R:3:forces:R:3 energy=-34.60981369018555 free_energy=-34.60981369018555 stress="0.0002079431724268943 -1.2047346231724987e-08 -1.6333025598669337e-07 -1.2047346231724987e-08 0.00020788219990208745 -7.264023338393599e-08 -1.6333025598669337e-07 -7.264023338393599e-08 0.0002079797413898632" pbc="T T T"
Ta       1.96405822       1.38878923       3.40184835       0.00004042      -0.00004079       0.00007830
Ta       5.89215912       4.16638588      10.20549363       0.00000911       0.00000902      -0.00016175
Ga      -0.00000038       0.00000019       0.00000008      -0.00000097       0.00000098       0.00000642
Cl       1.95945123       1.38554171       6.80367560       0.00000627       0.00000716      -0.00001713
Cl       5.89675632       4.16964036       6.80368421      -0.00002130       0.00001265       0.00005249
Cl       4.91242767       1.38553858       5.09877476      -0.00003168      -0.00001662       0.00001239
Cl       2.94378113       4.16963961       8.50858077       0.00002312       0.00001222      -0.00000051
Cl       2.94377388       4.16963702       5.09877571      -0.00002470      -0.00000778       0.00001992
Cl       4.91243122       1.38554526       8.50858301      -0.00000032       0.00002325       0.00000982
