9
Lattice="4.211274140537196 4.198581284086545e-09 2.431380258077013 1.403758064018884 3.970427359322213 2.4313802351885165 3.0465808913095564e-09 -2.587832259143888e-08 4.862760510877199" Properties=species:S:1:pos:R:3:forces:R:3 energy=-65.74111938476562 free_energy=-65.74111938476562 stress="0.00016831865650601685 -5.500455202422927e-08 7.6660590764277e-08 -5.500455202422927e-08 0.00016811382374726236 4.165486799934115e-08 7.6660590764277e-08 4.165486799934115e-08 0.0001679681590758264" pbc="T T T"
Ta       1.40375785       0.99260674       2.43137966      -0.00000249      -0.00000036      -0.00000994
Ta       4.21127441       2.97782021       7.29414069       0.00000561      -0.00000693      -0.00000092
Ga       0.00000006      -0.00000006      -0.00000007       0.00000021       0.00000248       0.00000107
O        1.47638616       1.04396287       4.86276050       0.00013810       0.00010023       0.00000000
O        4.13864605       2.92646455       4.86276079      -0.00014043      -0.00010052       0.00000504
O        3.47308150       1.04396256       3.70996858      -0.00006500       0.00009701       0.00012892
O        2.14195092       2.92646492       6.01555241       0.00006545      -0.00009528      -0.00012815
O        2.14195128       2.92646465       3.70996806       0.00007573      -0.00010011       0.00011837
O        3.47308058       1.04396290       6.01555334      -0.00007820       0.00010255      -0.00011408
