9
Lattice="4.006995530667584 -5.701967871346969e-07 2.3134387880424994 1.3356647824823242 3.7778316086795263 2.3134385400476143 -2.1440357926042106e-06 -1.819792547272201e-06 4.626881289663267" Properties=species:S:1:pos:R:3:forces:R:3 energy=-37.77922821044922 free_energy=-37.77922821044922 stress="-0.0004116322670597583 -1.7602958450879669e-06 1.7158214177470654e-05 -1.7602958450879669e-06 -0.00041397300083190203 1.2414185221132357e-05 1.7158214177470654e-05 1.2414185221132357e-05 -0.0004177848168183118" pbc="T T T"
Ta       1.33565659       0.94445901       2.31346943      -0.00020395       0.00002601       0.00080667
Ta       4.00699945       2.83337201       6.94029763       0.00018671       0.00000203      -0.00062013
Ga       0.00000511       0.00000184       0.00000702       0.00016166       0.00007977       0.00030241
F        1.52671992       1.07955375       4.62686945      -0.00278217      -0.00192869      -0.00032017
F        3.81593841       2.69827461       4.62688100       0.00278246       0.00193360       0.00007225
F        3.24362878       1.07955251       3.63561805       0.00123096      -0.00201854      -0.00243726
F        2.09902446       2.69827854       5.61813762      -0.00137237       0.00207129       0.00230959
F        2.09902117       2.69827112       3.63561752      -0.00153205       0.00179616      -0.00242037
F        3.24363869       1.07955343       5.61813693       0.00152928      -0.00196084       0.00230661
