9
Lattice="6.101004362541238 1.5148876030454306e-07 3.5224166075980725 2.0336682712080236 5.752081986318206 3.522416594545371 7.71985372679328e-08 3.8601382607591244e-08 7.04483308148435" Properties=species:S:1:pos:R:3:forces:R:3 energy=-37.94921112060547 free_energy=-37.94921112060547 stress="6.923139153514057e-05 3.0362514280568575e-08 -1.2926069103968985e-09 3.0362514280568575e-08 6.922218017280102e-05 2.898435713660774e-09 -1.2926069103968985e-09 2.898435713660774e-09 6.919336738064885e-05" pbc="T T T"
Ta       2.03366783       1.43802096       3.52241615      -0.00000096       0.00000332      -0.00000125
Ta       6.10100454       4.31406125      10.56725058      -0.00000021      -0.00000264       0.00000371
Ga      -0.00000012      -0.00000006      -0.00000055       0.00000201       0.00000033       0.00000960
Te       2.14073377       1.51372767       7.04483327      -0.00540861      -0.00382023       0.00000195
Te       5.99393930       4.23835465       7.04483322       0.00540453       0.00381855       0.00000051
Te       5.03063745       1.51372770       5.37634618       0.00270469      -0.00382309      -0.00468405
Te       3.10403483       4.23835455       8.71332005      -0.00270130       0.00381739       0.00467689
Te       3.10403552       4.23835467       5.37634602      -0.00270162       0.00382531      -0.00468349
Te       5.03063776       1.51372736       8.71332017       0.00270158      -0.00381884       0.00467601
