9
Lattice="5.636389040046847 -1.3150069136484284e-08 3.254170708076082 1.8787963543780433 5.314038502664293 3.2541706732726556 2.490140175286067e-08 -2.501736639301818e-08 6.508341373021672" Properties=species:S:1:pos:R:3:forces:R:3 energy=-41.066368103027344 free_energy=-41.066368103027344 stress="0.00019101471116300672 -3.2123526949590087e-08 -7.75591058044256e-09 -3.2123526949590087e-08 0.00019103861995972693 1.680332317732791e-08 -7.75591058044256e-09 1.680332317732791e-08 0.00019100424833595753" pbc="T T T"
Ta       1.87879623       1.32850950       3.25417075      -0.00000279      -0.00000314      -0.00000253
Ta       5.63638976       3.98552889       9.76251186       0.00000876       0.00000267      -0.00000027
Ga       0.00000001       0.00000013       0.00000024       0.00000300      -0.00000421      -0.00000298
Se       1.97354685       1.39550875       6.50834117      -0.00099045      -0.00069776      -0.00000231
Se       5.54163852       3.91852966       6.50834160       0.00099072       0.00069633       0.00000113
Se       4.64961558       1.39550817       4.96331280       0.00049354      -0.00069755      -0.00084940
Se       2.86556964       3.91853031       8.05336976      -0.00049977       0.00070357       0.00085652
Se       2.86556996       3.91852996       4.96331252      -0.00049312       0.00069922      -0.00085753
Se       4.64961511       1.39550851       8.05337033       0.00048976      -0.00069946       0.00085744
