9
Lattice="6.057373068118138 3.574688975391624e-08 3.4972260150058543 2.019124397538003 5.710946217983983 3.4972260015025713 2.955627181801754e-08 4.361368950306884e-09 6.9944519788187405" Properties=species:S:1:pos:R:3:forces:R:3 energy=-32.86885070800781 free_energy=-32.86885070800781 stress="0.00033191192778758705 -3.0775664239257594e-09 -3.742978371690242e-09 -3.0775664239257594e-09 0.00033196285949088633 5.221983290226717e-09 -3.742978371690242e-09 5.221983290226717e-09 0.00033193043782375753" pbc="T T T"
Ta       2.01912397       1.42773640       3.49722621      -0.00000178      -0.00000183       0.00000106
Ta       6.05737341       4.28320934      10.49167777       0.00000094       0.00000006       0.00000088
Ga       0.00000001       0.00000020      -0.00000011      -0.00000205       0.00000059      -0.00000296
Br       2.04722239       1.44760525       6.99445189       0.00514931       0.00364242      -0.00000120
Br       6.02927510       4.26334120       6.99445221      -0.00514901      -0.00364113      -0.00000068
Br       5.03376178       1.44760485       5.27017286      -0.00257409       0.00364232       0.00445955
Br       3.04273579       4.26334146       8.71873121       0.00257412      -0.00364001      -0.00446044
Br       3.04273589       4.26334137       5.27017276       0.00257591      -0.00364290       0.00446181
Br       5.03376165       1.44760500       8.71873116      -0.00257342       0.00364048      -0.00445803
