9
Lattice="5.388400197819289 -4.287094263899789e-08 3.1109943000500424 1.79613334452812 5.080232420766204 3.110994324863165 -7.599114286294889e-08 -2.3344095297217374e-08 6.221988731720606" Properties=species:S:1:pos:R:3:forces:R:3 energy=-45.426727294921875 free_energy=-45.426727294921875 stress="8.574928506277502e-05 -3.9983902411222516e-08 2.490168249380531e-08 -3.9983902411222516e-08 8.579756104154512e-05 2.890204875427571e-08 2.490168249380531e-08 2.890204875427571e-08 8.57398918014951e-05" pbc="T T T"
Ta       1.79613293       1.27005615       3.11099719      -0.00000578      -0.00002888       0.00004135
Ta       5.38840104       3.81017742       9.33297860       0.00001491       0.00004188      -0.00006466
Ga      -0.00000021      -0.00000003      -0.00000017      -0.00000089      -0.00000082      -0.00000245
S        1.89056446       1.33682995       6.22198836      -0.00096065      -0.00069323      -0.00001089
S        5.29396888       3.74340262       6.22199051       0.00095814       0.00069642       0.00002562
S        4.44311814       1.33682980       4.74827211       0.00047746      -0.00070015      -0.00082582
S        2.74141570       3.74340195       7.69570583      -0.00047931       0.00069377       0.00083804
S        2.74141452       3.74340110       4.74827156      -0.00049832       0.00067988      -0.00083524
S        4.44311844       1.33683056       7.69570548       0.00049484      -0.00068909       0.00083405
