9
Lattice="5.925032056226072 4.5787637798864354e-08 3.4208190983055973 1.9750107584678613 5.586173664019949 3.420819046534282 1.9259846415760716e-07 7.278105025008943e-08 6.841637863020849" Properties=species:S:1:pos:R:3:forces:R:3 energy=-38.14418029785156 free_energy=-38.14418029785156 stress="-5.627123391604982e-05 1.7287195674953182e-08 -1.254758643653986e-07 1.7287195674953182e-08 -5.6049721024464816e-05 -8.757819358606866e-08 -1.254758643653986e-07 -8.757819358606866e-08 -5.6077678891597316e-05" pbc="T T T"
Ta       1.97500725       1.39655306       3.42082697      -0.00002670       0.00007374       0.00006910
Ta       5.92503323       4.18962296      10.26243937       0.00000869      -0.00005837      -0.00013173
Ir       0.00000036      -0.00000024       0.00000089      -0.00001170       0.00000931      -0.00000198
Cl       1.92468684       1.36095895       6.84163758       0.00357211       0.00253203      -0.00000900
Cl       5.97535717       4.22521352       6.84164241      -0.00356166      -0.00253856       0.00003465
Cl       4.96268846       1.36095837       5.08764789      -0.00178445       0.00251738       0.00309557
Cl       2.93735561       4.22521435       8.59563106       0.00179949      -0.00253303      -0.00308010
Cl       2.93734984       4.22521095       5.08764705       0.00175994      -0.00255469       0.00310020
Cl       4.96269324       1.36096333       8.59563090      -0.00175551       0.00255232      -0.00307658
