9
Lattice="4.142092055987033 1.7999290487429547e-06 2.3914408135421255 1.3806989877000833 3.905206181315359 2.391440919690542 -1.6376179010513791e-06 -1.0279658558413583e-06 4.782884463521289" Properties=species:S:1:pos:R:3:forces:R:3 energy=-40.51898193359375 free_energy=-40.51898193359375 stress="7.041980279609561e-05 -3.9477301470469683e-05 2.147165287169628e-05 -3.9477301470469683e-05 1.5915193216642365e-05 1.464052820665529e-05 2.147165287169628e-05 1.464052820665529e-05 -4.2719773773569614e-05" pbc="T T T"
Ta       1.38064673       0.97630425       2.39145156      -0.00308385       0.00016930       0.00128768
Ta       4.14214841       2.92890993       7.17429378       0.00404822       0.00030935      -0.00145253
Ir      -0.00001854      -0.00000532      -0.00002081       0.00278011       0.00066993       0.00332234
F        1.57037705       1.11043662       4.78288117      -0.00204492      -0.00089192       0.00012123
F        3.95243330       2.79478614       4.78288977      -0.00128317      -0.00171876       0.00083587
F        3.35690519       1.11041790       3.75144024       0.00121570      -0.00130200      -0.00001788
F        2.16587101       2.79479221       5.81433825       0.00031316      -0.00042868      -0.00110269
F        2.16587266       2.79477478       3.75144670      -0.00187802       0.00171757      -0.00096750
F        3.35692159       1.11041134       5.81434447      -0.00006688       0.00147724      -0.00202644
