9
Lattice="6.0497718227662824 -5.3606337690206136e-08 3.4928373749792367 2.0165906220167007 5.703779388422667 3.4928372624505344 -3.172491682644347e-08 -1.6025187535039317e-07 6.985674804907646" Properties=species:S:1:pos:R:3:forces:R:3 energy=-37.11436080932617 free_energy=-37.11436080932617 stress="-1.4627712516812608e-06 -5.158486970913145e-09 4.465768643768797e-09 -5.158486970913145e-09 -1.4875290617055725e-06 1.3802736731349796e-08 4.465768643768797e-09 1.3802736731349796e-08 -1.4539236872224137e-06" pbc="T T T"
Ta       2.01658996       1.42594425       3.49283574      -0.00000288      -0.00000213      -0.00000632
Ta       6.04977170       4.27783465      10.47851359       0.00000016       0.00000015       0.00000628
Ir       0.00000011       0.00000003      -0.00000002       0.00000198       0.00000279       0.00000436
Br       1.99662331       1.41182553       6.98567481       0.00154668       0.00109305       0.00000159
Br       6.06973925       4.29195357       6.98567451      -0.00154936      -0.00109486      -0.00000262
Br       5.05146043       1.41182581       5.22196376      -0.00077171       0.00109572       0.00133981
Br       3.01490222       4.29195332       8.74938587       0.00077355      -0.00109487      -0.00134164
Br       3.01490243       4.29195392       5.22196385       0.00077570      -0.00109321       0.00134070
Br       5.05146015       1.41182559       8.74938567      -0.00077409       0.00109341      -0.00134215
