9
Lattice="6.486291077747251 3.3419653950444675e-08 3.7448619192278834 2.162097052603699 6.115333957193251 3.7448619275770443 -1.1840101077854796e-08 1.8533861075759925e-09 7.489723858963418" Properties=species:S:1:pos:R:3:forces:R:3 energy=-33.99440383911133 free_energy=-33.99440383911133 stress="0.00021498660498764366 8.72786554140248e-09 4.104857342923651e-09 8.72786554140248e-09 0.00021498563000932336 -8.302942333671126e-09 4.104857342923651e-09 -8.302942333671126e-09 0.00021499405556824058" pbc="T T T"
Ta       2.16209681       1.52883335       3.74486225      -0.00000175      -0.00000017       0.00000168
Ta       6.48629103       4.58650041      11.23458514      -0.00000092      -0.00000035      -0.00000442
Ir       0.00000012       0.00000002      -0.00000015       0.00000051       0.00000052       0.00000055
I        2.16306945       1.52952097       7.48972377       0.00265848       0.00187978      -0.00000078
I        6.48531875       4.58581300       7.48972407      -0.00265779      -0.00187996       0.00000137
I        5.40475639       1.52952091       5.61813519      -0.00132814       0.00187958       0.00230330
I        3.24363186       4.58581304       9.36131275       0.00132905      -0.00187919      -0.00230226
I        3.24363165       4.58581296       5.61813490       0.00132892      -0.00187993       0.00230308
I        5.40475644       1.52952129       9.36131288      -0.00132840       0.00187966      -0.00230252
