9
Lattice="5.807712304529442 -2.7152151328746833e-08 3.3530841910580764 1.9359040252665018 5.475564192885519 3.353084278776059 -6.79445575922536e-08 5.938806905765763e-08 6.706168499799576" Properties=species:S:1:pos:R:3:forces:R:3 energy=-41.0870475769043 free_energy=-41.0870475769043 stress="0.0002849595621228218 7.531516521552817e-10 6.222513349030123e-08 7.531516521552817e-10 0.00028497574385255575 7.892005982057526e-08 6.222513349030123e-08 7.892005982057526e-08 0.0002849257143680006" pbc="T T T"
Ta       1.93590626       1.36889925       3.35307245       0.00002339       0.00007742      -0.00011287
Ta       5.80771023       4.10666969      10.05925458      -0.00001867      -0.00003251       0.00003235
Mo      -0.00000003      -0.00000027       0.00000095       0.00000399       0.00000609       0.00000659
Cl       1.95999322       1.38592484       6.70617095       0.00442666       0.00313666       0.00003920
Cl       5.78362417       4.08963756       6.70616772      -0.00442896      -0.00315700      -0.00000533
Cl       4.82771660       1.38592578       5.05048879      -0.00220154       0.00314706       0.00383739
Cl       2.91589978       4.08963548       8.36185234       0.00220763      -0.00317866      -0.00381421
Cl       2.91590161       4.08964028       5.05048938       0.00222721      -0.00313777       0.00383846
Cl       4.82771327       1.38592424       8.36185075      -0.00223958       0.00313879      -0.00382146
