9
Lattice="6.011994816389685 -0.6406640800197612 2.22588589619447 1.1345368940041656 4.581088200034385 2.671231271688618 -0.09489872772787382 0.4164911208139194 4.688546794923892" Properties=species:S:1:pos:R:3:forces:R:3 energy=-58.82848358154297 free_energy=-58.82848358154297 stress="4.4550579332280904e-05 -2.752218733803602e-06 -8.240994065999985e-05 -2.752218733803602e-06 0.000150731488247402 9.988452802645043e-05 -8.240994065999985e-05 9.988452802645043e-05 1.582724325999152e-05" pbc="T T T"
Ta       2.43638106      -1.19749530       2.75144208       0.00081527      -0.00040489      -0.00003703
Ta       4.61495157       5.55466676       6.83517632      -0.00101304      -0.00086737      -0.00133049
Mg       0.00124648      -0.00195837      -0.00046390      -0.00097739       0.00251900       0.00152689
F        1.49394590       1.45600865       4.06028864      -0.00038660      -0.00235474      -0.00334583
F        5.55735702       2.90256946       5.52663535       0.00166380      -0.00209343       0.00142308
F        5.10619676       0.98155943       3.06659549       0.00126040       0.00208773       0.00054997
F        1.94220521       3.37131647       6.51661862       0.00275469       0.00696579       0.00284570
F        2.26965459       4.29043390       4.27136088      -0.00171483      -0.00402182      -0.00235790
F        4.78442021       0.07077145       5.31508349      -0.00240302      -0.00183016       0.00072551
