9
Lattice="5.5517387483183 0.012023332228596344 2.4993037684156203 1.7565508583029787 5.230907063318474 2.6729668521564705 -0.5554206385593348 -0.2026112121674518 5.9710887666945665" Properties=species:S:1:pos:R:3:forces:R:3 energy=-59.802452087402344 free_energy=-59.802452087402344 stress="7.49054379411973e-05 -0.00022811235976405442 4.376753349788487e-05 -0.00022811235976405442 -0.0002834462793543935 -0.00020311975094955415 4.376753349788487e-05 -0.00020311975094955415 0.00011742481729015708" pbc="T T T"
Ta       0.42138098       2.08429519       4.32351680       0.00197510       0.00008127       0.00542170
Ta       3.64835281       2.26287024       8.27108117       0.00164613       0.00239211       0.00021530
Mo       0.31542122       0.12012308      -0.12495377       0.00289863      -0.00053239       0.00459635
F        1.68438834       1.42806710       5.52474861      -0.00065279       0.00160569       0.00382161
F        6.19840157       3.51459177       5.53561013      -0.00280435      -0.00221640      -0.00313437
F        4.76807528       1.53973950       3.87743882       0.00140049       0.00180626      -0.00323868
F        2.50529933       3.51090877       7.25656082      -0.00123620       0.00192952      -0.00313157
F        3.43014168       3.72796115       3.65915866      -0.00156322       0.00012654      -0.00102407
F        4.04000853       1.97271449       6.25027522      -0.00166345      -0.00519297      -0.00352621
