9
Lattice="5.989803736314608 1.957563652915496e-07 3.458214621779102 1.9966013208537459 5.647241416445363 3.4582148108243844 -4.8352294415602436e-08 1.9734200850569802e-07 6.916429327306841" Properties=species:S:1:pos:R:3:forces:R:3 energy=-33.476776123046875 free_energy=-33.476776123046875 stress="0.0003377491666469723 1.0247317661082889e-08 -1.5580854384467102e-09 1.0247317661082889e-08 0.00033775827614590526 -7.610549523917598e-09 -1.5580854384467102e-09 -7.610549523917598e-09 0.00033775620977394283" pbc="T T T"
Ta       1.99660112       1.41181026       3.45821448      -0.00000104      -0.00000131      -0.00000032
Ta       5.98980361       4.23543165      10.37464429       0.00000060       0.00000232       0.00000080
Mg       0.00000010      -0.00000016      -0.00000046      -0.00000298      -0.00000018       0.00000103
Br       2.03169905       1.43662840       6.91642948       0.00414795       0.00293273       0.00000132
Br       5.95470591       4.21061347       6.91642941      -0.00414439      -0.00293046      -0.00000018
Br       4.97395434       1.43662842       5.21771745      -0.00207318       0.00293136       0.00359046
Br       3.01245090       4.21061350       8.61514137       0.00207350      -0.00293316      -0.00359184
Br       3.01245076       4.21061344       5.21771761       0.00207353      -0.00293221       0.00359018
Br       4.97395428       1.43662835       8.61514133      -0.00207408       0.00293083      -0.00359136
