9
Lattice="5.777395410006436 2.007612471313521e-07 3.335580776948907 1.9257986364908544 5.446980751275687 3.3355808164237573 2.1364937076804527e-07 1.99419548084225e-07 6.671161183846285" Properties=species:S:1:pos:R:3:forces:R:3 energy=-35.63362121582031 free_energy=-35.63362121582031 stress="0.00013135699555277824 3.324774056068236e-08 -1.4206364085112e-07 3.324774056068236e-08 0.00013141197268851101 -6.582597933402212e-08 -1.4206364085112e-07 -6.582597933402212e-08 0.0001314581895712763" pbc="T T T"
Ta       1.92579474       1.36174468       3.33558564      -0.00004504      -0.00000671       0.00005808
Ta       5.77740041       4.08523599      10.00672557       0.00005102       0.00000515      -0.00016016
Mg      -0.00000016      -0.00000009       0.00000071       0.00000042       0.00000247      -0.00000076
Cl       1.94593567       1.37598480       6.67116025       0.00050560       0.00036484      -0.00001458
Cl       5.75725913       4.07099547       6.67116792      -0.00050852      -0.00036794       0.00005540
Cl       4.80442714       1.37598253       5.02081250      -0.00026104       0.00033972       0.00046296
Cl       2.89876733       4.07099752       8.32151252       0.00026582      -0.00034646      -0.00043717
Cl       2.89876304       4.07099700       5.02081317       0.00022458      -0.00036445       0.00046813
Cl       4.80442976       1.37598681       8.32151290      -0.00023305       0.00037359      -0.00043181
