9
Lattice="6.590850133732531 -1.2445851072102659e-08 3.8052290827554374 2.196950088466566 6.213913079195737 3.805228986413379 -2.78511612504998e-09 -1.199638080184687e-07 7.610458170334806" Properties=species:S:1:pos:R:3:forces:R:3 energy=-35.035003662109375 free_energy=-35.035003662109375 stress="0.00010763690806925297 -1.8229766585164953e-09 4.713733847694357e-09 -1.8229766585164953e-09 0.0001076355401892215 2.204410876061047e-09 4.713733847694357e-09 2.204410876061047e-09 0.00010762715828604996" pbc="T T T"
Ta       2.19695022       1.55347830       3.80522918       0.00000032      -0.00000095       0.00000187
Ta       6.59084995       4.66043444      11.41568737      -0.00000118      -0.00000125       0.00000122
Mo      -0.00000009      -0.00000016      -0.00000018      -0.00000151       0.00000062       0.00000089
I        2.24621210       1.58831180       7.61045803      -0.00352178      -0.00249000      -0.00000038
I        6.54158823       4.62560129       7.61045787       0.00352249       0.00249098       0.00000059
I        5.46774387       1.58831218       5.75050586       0.00176159      -0.00249145      -0.00305230
I        3.32005609       4.62560133       9.47041051      -0.00175942       0.00248948       0.00304945
I        3.32005639       4.62560084       5.75050593      -0.00176166       0.00249171      -0.00305142
I        5.46774415       1.58831178       9.47041038       0.00176125      -0.00248913       0.00305017
