9
Lattice="6.519559026108087 4.800696530213734e-08 3.7640691301136506 2.1731863962273064 6.146699272332026 3.764069114646639 6.308292745679718e-10 -1.849707418110611e-08 7.528138259134673" Properties=species:S:1:pos:R:3:forces:R:3 energy=-28.499603271484375 free_energy=-28.499603271484375 stress="9.061372838914394e-05 -1.0672174255432765e-09 7.989292782895063e-09 -1.0672174255432765e-09 9.061391756404191e-05 -5.7178932699741836e-09 7.989292782895063e-09 -5.7178932699741836e-09 9.060341835720465e-05" pbc="T T T"
Ta       2.17318603       1.53667439       3.76406965      -0.00000120      -0.00000152       0.00000267
Ta       6.51955925       4.61002436      11.29220792       0.00000040      -0.00000032       0.00000287
Mg       0.00000002       0.00000007      -0.00000008       0.00000035       0.00000235      -0.00000257
I        2.23647826       1.58142891       7.52813805       0.00270174       0.00191235      -0.00000032
I        6.45626743       4.56527061       7.52813789      -0.00270450      -0.00191119      -0.00000052
I        5.40131980       1.58142902       5.70091568      -0.00135131       0.00191084       0.00233994
I        3.29142537       4.56527069       9.35536061       0.00135325      -0.00191214      -0.00234456
I        3.29142543       4.56527035       5.70091585       0.00135113      -0.00191107       0.00234289
I        5.40132019       1.58142878       9.35536041      -0.00134996       0.00191072      -0.00234040
