9
Lattice="5.914885082913746 2.2349145522378063e-08 3.414960553602317 1.9716283803454568 5.576606967001083 3.4149605565412062 6.584879836231112e-09 8.255600529170263e-09 6.829921095799287" Properties=species:S:1:pos:R:3:forces:R:3 energy=-35.179866790771484 free_energy=-35.179866790771484 stress="0.00037529401015490294 4.0606540352428055e-10 4.579641665891643e-10 4.0606540352428055e-10 0.00037530370173044503 -4.293684519041108e-09 4.579641665891643e-10 -4.293684519041108e-09 0.0003753132768906653" pbc="T T T"
Ta       1.97162835       1.39415192       3.41496074      -0.00000082       0.00000061       0.00000143
Ta       5.91488507       4.18245498      10.24488081      -0.00000080      -0.00000029      -0.00000471
Ni      -0.00000009      -0.00000001       0.00000020      -0.00000153       0.00000011      -0.00000050
Br       1.96291999       1.38799381       6.82992110       0.00436246       0.00308509      -0.00000012
Br       5.92359359       4.18861311       6.82992127      -0.00436060      -0.00308482       0.00000128
Br       4.93342510       1.38799402       5.11489917      -0.00218074       0.00308414       0.00377699
Br       2.95308829       4.18861312       8.54494318       0.00218055      -0.00308350      -0.00377671
Br       2.95308844       4.18861297       5.11489935       0.00218086      -0.00308544       0.00377812
Br       4.93342518       1.38799413       8.54494306      -0.00217924       0.00308419      -0.00377580
