9
Lattice="3.5567787258866193 1.6209942921524467 1.1913416074123386 0.9467180257118439 3.996543099970488 -0.36716055785397944 -0.10949326803961582 0.13118830701632245 3.926128914255323" Properties=species:S:1:pos:R:3:forces:R:3 energy=-800234112.0 free_energy=-800234112.0 stress="2885299.75 -8083423.0 937868.8125 -8083423.0 6738380.0 1205055.0 937868.8125 1205055.0 10647837.0" pbc="T T T"
Ta       0.60826793       2.13906387       2.85025951 4342568960.00000000 -8856159232.00000000 6478419968.00000000
Ta       2.70755493       4.18850400       2.31908106 -83048424.00000000 21932530.00000000 76905944.00000000
N       -0.40155457       1.71733954      -1.42986025 28677128.00000000 -253096320.00000000 81816688.00000000
F        0.59053966       2.12318816       2.85221833 -3218299904.00000000 7444944896.00000000 -7692595200.00000000
F        7.13033145       8.35911439      -0.61200968 15450386.00000000 65250276.00000000 -19825318.00000000
F        0.86162428       2.42085894       1.20445431 14954146.00000000 34016204.00000000 32565120.00000000
F        1.51517987       6.02926670       2.42525752 -1141005696.00000000 1500975104.00000000 1113278080.00000000
F        0.49267487       3.10129572       0.60321175 38793560.00000000 26564218.00000000 -46936812.00000000
F        2.98985530       4.21607754       0.59009664 1910142.00000000 15566292.00000000 -23636504.00000000
