9
Lattice="4.136133297171378 -6.238370151639125e-08 2.387997711741446 1.3787110482762737 3.8995838745307747 2.3879976978243036 4.547971975738719e-09 -1.3829055301501899e-08 4.775995415605569" Properties=species:S:1:pos:R:3:forces:R:3 energy=-64.56204223632812 free_energy=-64.56204223632812 stress="-1.4082155757932924e-05 5.3836654245742466e-08 -8.006266938309636e-08 5.3836654245742466e-08 -1.4124528206593823e-05 6.322499501720813e-08 -8.006266938309636e-08 6.322499501720813e-08 -1.4190100046107545e-05" pbc="T T T"
Ta       1.37871034       0.97489583       2.38799552      -0.00001180       0.00000776      -0.00004837
Ta       4.13613413       2.92468724       7.16399558       0.00001666      -0.00000281       0.00003975
N        0.00000170       0.00000526      -0.00000415       0.00006968       0.00018873      -0.00015133
O        1.32804646       0.93907053       4.77599552      -0.00007233      -0.00005330      -0.00000009
O        4.18679403       2.96051108       4.77599511      -0.00006370      -0.00004029       0.00000081
O        3.47210946       0.93907211       3.53812163      -0.00000746       0.00000611       0.00000812
O        2.04273503       2.96051234       6.01386966      -0.00000846       0.00001350       0.00000912
O        2.04273595       2.96051030       3.53812290       0.00003441      -0.00006512       0.00006750
O        3.47211031       0.93907057       6.01387148       0.00004316      -0.00005396       0.00007489
