9
Lattice="6.387554409999542 -8.035013652303615e-08 3.687856252394483 2.1291847461877627 6.02224403013042 3.687856220162059 -1.5400900667341166e-08 -5.0366594401870705e-08 7.375712531464129" Properties=species:S:1:pos:R:3:forces:R:3 energy=-31.10808563232422 free_energy=-31.10808563232422 stress="0.00014044511772226542 -8.176502808154851e-10 4.879087800446769e-09 -8.176502808154851e-10 0.00014043616829439998 -5.094965782603822e-09 4.879087800446769e-09 -5.094965782603822e-09 0.00014043388364370912" pbc="T T T"
Ta       2.12918467       1.50556108       3.68785571       0.00000056       0.00000141      -0.00000215
Ta       6.38755396       4.51668228      11.06356987      -0.00000179      -0.00000351       0.00000613
Ni       0.00000009       0.00000004       0.00000008      -0.00000062       0.00000061       0.00000101
I        2.13642628       1.51068149       7.37571263       0.00165698       0.00117313       0.00000171
I        6.38031299       4.51156249       7.37571205      -0.00165723      -0.00117260      -0.00000234
I        5.31934135       1.51068178       5.53805567      -0.00082737       0.00117276       0.00143321
I        3.19739784       4.51156239       9.21336928       0.00082911      -0.00117359      -0.00143658
I        3.19739821       4.51156258       5.53805551       0.00082986      -0.00117119       0.00143486
I        5.31934119       1.51068143       9.21336923      -0.00082961       0.00117309      -0.00143594
