9
Lattice="5.609830709791309 -1.1907623043634247e-07 3.2388373481805877 1.8699434680228624 5.288999750354364 3.238837330239058 -1.0297917124350295e-07 -9.479108842901783e-08 6.477674874726332" Properties=species:S:1:pos:R:3:forces:R:3 energy=-33.390892028808594 free_energy=-33.390892028808594 stress="-0.00012245193647686392 6.62423644826049e-08 2.8495526294136653e-07 6.62423644826049e-08 -0.00012240312935318798 1.988909588135357e-07 2.8495526294136653e-07 1.988909588135357e-07 -0.00012227852130308747" pbc="T T T"
Ta       1.86994706       1.32224648       3.23884039       0.00004446      -0.00003446       0.00004570
Ta       5.60983016       3.96674019       9.71649389      -0.00000703      -0.00011164      -0.00022631
N       -0.00000105      -0.00000151      -0.00000144      -0.00000104      -0.00000839      -0.00000749
Cl       1.92804335       1.36333784       6.47767510      -0.00033394      -0.00018106      -0.00000392
Cl       5.55172891       3.92566781       6.47768060       0.00030012       0.00023761       0.00008115
Cl       4.64580576       1.36333327       4.90857505       0.00012929      -0.00022148      -0.00025833
Cl       2.83396969       3.92566826       8.04677856      -0.00011522       0.00024597       0.00029412
Cl       2.83396388       3.92566629       4.90857556      -0.00018650       0.00022444      -0.00024478
Cl       4.64580858       1.36333941       8.04678033       0.00016984      -0.00015070       0.00031985
