9
Lattice="6.0492261770598725 1.4157316865559664e-07 3.4925232777201978 2.016409016450636 5.7032660332119365 3.4925230052901304 -1.5747825384239726e-07 -4.450112579911943e-07 6.98504682820076" Properties=species:S:1:pos:R:3:forces:R:3 energy=-32.46179962158203 free_energy=-32.46179962158203 stress="0.00018573056149762124 3.756862270165584e-07 -6.831727006328947e-08 3.756862270165584e-07 0.00018625114171300083 -5.003161263061884e-08 -6.831727006328947e-08 -5.003161263061884e-08 0.00018678809283301234" pbc="T T T"
Ta       2.01623186       1.42579749       3.49260910      -0.00130117      -0.00013728       0.00062236
Ta       6.04929163       4.27743404      10.47762339       0.00048914      -0.00011064       0.00038161
P        0.00002699       0.00000688      -0.00002866       0.00028120       0.00007884      -0.00031676
Cl       2.04302296       1.44465294       6.98500650      -0.00067490      -0.00036019      -0.00027200
Cl       6.02261082       4.25859429       6.98501946       0.00058061       0.00014329      -0.00018663
Cl       5.02774221       1.44465742       5.26186256       0.00049517      -0.00023410      -0.00030860
Cl       3.03791385       4.25865485       8.70822046      -0.00037532       0.00068849       0.00029856
Cl       3.03793131       4.25862920       5.26185090      -0.00021951       0.00040039      -0.00041059
Cl       5.02776848       1.44463575       8.70820870       0.00072490      -0.00046888       0.00019208
