9
Lattice="6.587158518574782 1.0071051517211765e-07 3.8030977765971388 2.1957195886803538 6.210432815289466 3.803097798182009 4.3515662528365576e-08 5.720615859447893e-08 7.6061954778229515" Properties=species:S:1:pos:R:3:forces:R:3 energy=-29.07903480529785 free_energy=-29.07903480529785 stress="0.000113872934889514 -1.2447000763415872e-08 -1.8592321016086544e-09 -1.2447000763415872e-08 0.0001138874504249543 -2.5166819739297352e-09 -1.8592321016086544e-09 -2.5166819739297352e-09 0.00011386739060981199" pbc="T T T"
Ta       2.19571968       1.55260900       3.80309758       0.00000066       0.00000220      -0.00000174
Ta       6.58715903       4.65782407      11.40929318       0.00000264      -0.00000270       0.00000083
P       -0.00000009       0.00000020       0.00000012       0.00000007      -0.00000121       0.00000004
I        2.26739315       1.60328952       7.60619556       0.00020687       0.00014870      -0.00000018
I        6.51548485       4.60714348       7.60619550      -0.00020751      -0.00014794      -0.00000004
I        5.45346206       1.60328917       5.76671775      -0.00010381       0.00014751       0.00018021
I        3.32941612       4.60714352       9.44567330       0.00010224      -0.00014682      -0.00018002
I        3.32941599       4.60714358       5.76671785       0.00010274      -0.00014679       0.00017975
I        5.45346185       1.60328934       9.44567340      -0.00010394       0.00014712      -0.00017874
