9
Lattice="3.7290425855268703 -1.928830537526627 -0.4404164190958836 0.6968835757911113 1.994764570002385 0.9245444280365468 1.1367341561550401 -2.02402875171458 2.3873880889672656" Properties=species:S:1:pos:R:3:forces:R:3 energy=-19477674.0 free_energy=-19477674.0 stress="1861070.375 894606.0 -284579.875 894606.0 1734318.5 704140.6875 -284579.875 704140.6875 1187581.5" pbc="T T T"
Ta       2.56955874      -1.17525660       1.50110644 -3750959.00000000 -6032463.00000000 4644617.50000000
Ta       6.38538555      -4.54183717       5.00529618 50263072.00000000 132665928.00000000 -45790456.00000000
P        1.81792987      -1.87988378       2.01997360 -2105343.50000000 -4527842.00000000 -248682.50000000
F        3.06772064      -4.35286178       3.84645374 -5039963.50000000 4814468.00000000 5316378.00000000
F        5.28141104      -2.51494551       2.64161501 -22192666.00000000 -126454384.00000000 38343400.00000000
F        4.71910074      -4.00506570       2.48494058 -3230906.25000000 -175696.81250000 -7291726.50000000
F        3.15659700      -2.14062760       4.11750846 1670356.50000000 -3495735.50000000 7006876.50000000
F        2.43626507      -2.40999663       1.76426700 -14312444.00000000 2807375.00000000 -281528.25000000
F        4.23289878      -4.45798521       4.71477709 -1301165.25000000  398429.59375000 -1698918.00000000
