9
Lattice="6.527109431578479 1.0079568303536806 3.5299731853925755 3.1584431358280427 5.499130781353489 3.977825636939107 0.12220691705212319 0.6375763196366915 6.5360949242856545" Properties=species:S:1:pos:R:3:forces:R:3 energy=-61.24871826171875 free_energy=-61.24871826171875 stress="3.651254883152433e-05 -4.768990606862644e-07 2.398542346782051e-05 -4.768990606862644e-07 8.982901636045426e-05 2.5169136279146187e-05 2.398542346782051e-05 2.5169136279146187e-05 2.978340671688784e-05" pbc="T T T"
Ta       1.69918630       1.76324696       5.56288438      -0.00296414      -0.00093460       0.00187552
Ta       5.93039354       3.10776483      10.02383816      -0.00013790      -0.00309300      -0.00005513
Rh      -0.20758696      -0.40608464       0.18613706       0.00158191      -0.00370479       0.00147736
F        2.87401987       2.01659424       6.99270214      -0.00158012      -0.00041425      -0.00073493
F        8.68887872       4.58040172       8.43490582       0.00164938       0.00364578      -0.00064689
F        6.45788415       3.71192989       4.84012972       0.00144975      -0.00088590      -0.00037634
F        4.62475004       6.71138847       7.76673993      -0.00001204       0.00122786       0.00109792
F        3.96447297       3.51007932       4.07752314      -0.00159848       0.00494707      -0.00141346
F        5.19871946       3.58352858       8.29011808       0.00161222      -0.00078878      -0.00122404
