9
Lattice="6.465477629742768 1.0300212493141658e-08 3.7328453003397293 2.1551592116272063 6.095710721975517 3.732845314192975 -3.4975333391753186e-08 -7.764589982626071e-09 7.46569066125852" Properties=species:S:1:pos:R:3:forces:R:3 energy=-33.30842590332031 free_energy=-33.30842590332031 stress="0.00023907922150101513 2.761151751684565e-09 -9.848925230926397e-09 2.761151751684565e-09 0.0002390723384451121 -4.761885330495375e-10 -9.848925230926397e-09 -4.761885330495375e-10 0.00023908425646368414" pbc="T T T"
Ta       2.15515914       1.52392750       3.73284532       0.00000031       0.00000006      -0.00000011
Ta       6.46547793       4.57178338      11.19853629       0.00000171       0.00000096      -0.00000030
Rh      -0.00000000       0.00000005       0.00000001      -0.00000015      -0.00000136       0.00000111
I        2.16040878       1.52763972       7.46569060       0.00251259       0.00177548       0.00000063
I        6.46022790       4.56807087       7.46569048      -0.00251216      -0.00177652      -0.00000016
I        5.38527317       1.52763968       5.60381428      -0.00125669       0.00177618       0.00217652
I        3.23536350       4.56807100       9.32756687       0.00125652      -0.00177680      -0.00217589
I        3.23536353       4.56807111       5.60381438       0.00125527      -0.00177498       0.00217574
I        5.38527324       1.52763958       9.32756686      -0.00125734       0.00177686      -0.00217755
