9
Lattice="6.4900154489461155 2.3673945256276452e-08 3.7470121563878 2.1633385125447684 6.118845200131536 3.747012143843078 -3.6337006251713845e-08 -4.105824323933219e-08 7.494024375713152" Properties=species:S:1:pos:R:3:forces:R:3 energy=-34.00464630126953 free_energy=-34.00464630126953 stress="3.015966967723216e-06 -6.8281771348210896e-09 -4.9655941580795115e-09 -6.8281771348210896e-09 3.044513960048789e-06 1.695994988892835e-08 -4.9655941580795115e-09 1.695994988892835e-08 3.0367655199370347e-06" pbc="T T T"
Ta       2.16333852       1.52971105       3.74701249      -0.00000014      -0.00000218       0.00000174
Ta       6.49001549       4.58913411      11.24103547       0.00000050       0.00000210      -0.00000460
Ru      -0.00000005      -0.00000003      -0.00000010       0.00000046       0.00000190      -0.00000146
I        2.17728801       1.53957488       7.49402428       0.00096746       0.00068256      -0.00000162
I        6.47606591       4.57927036       7.49402480      -0.00096851      -0.00068357       0.00000178
I        5.40137153       1.53957501       5.63259878      -0.00048362       0.00068197       0.00083618
I        3.25198254       4.57927009       9.35545008       0.00048343      -0.00068141      -0.00083525
I        3.25198220       4.57927023       5.63259889       0.00048232      -0.00068376       0.00083870
I        5.40137155       1.53957504       9.35545002      -0.00048194       0.00068248      -0.00083547
