9
Lattice="6.0333610529080985 1.3924661223286374e-08 3.4833626806623026 2.0111203912763482 5.688306990992709 3.483362633587475 1.6294631564390353e-07 5.7565754026797636e-08 6.966725079093329" Properties=species:S:1:pos:R:3:forces:R:3 energy=-37.782958984375 free_energy=-37.782958984375 stress="0.00032650434877723455 -1.3497933437633947e-08 1.0184229459753169e-08 -1.3497933437633947e-08 0.0003264841216150671 -3.1650624343626532e-09 1.0184229459753169e-08 -3.1650624343626532e-09 0.00032647550688125193" pbc="T T T"
Ta       2.01112065       1.42207690       3.48336157       0.00000042       0.00000120      -0.00000593
Ta       6.03336043       4.26622980      10.45008885      -0.00000261      -0.00000306       0.00000504
Ru       0.00000012      -0.00000001       0.00000019       0.00000093       0.00000143      -0.00000066
Br       2.01464964       1.42457209       6.96672537       0.00692087       0.00489466       0.00000199
Br       6.02983219       4.26373489       6.96672490      -0.00692235      -0.00489511      -0.00000255
Br       5.02603652       1.42457241       5.22810017      -0.00345894       0.00489518       0.00599286
Br       3.01844516       4.26373470       8.70535023       0.00346025      -0.00489447      -0.00599296
Br       3.01844525       4.26373505       5.22810027       0.00346189      -0.00489375       0.00599371
Br       5.02603649       1.42457248       8.70535004      -0.00346071       0.00489396      -0.00599140
