9
Lattice="5.998627608599555 1.0642434676383393e-08 3.463309307539441 1.9995425669302451 5.655560296601289 3.463309271691884 3.4611300492246276e-08 -1.9430234450934312e-08 6.92661855513039" Properties=species:S:1:pos:R:3:forces:R:3 energy=-36.914039611816406 free_energy=-36.914039611816406 stress="0.0003551624249666929 5.1698005876232855e-09 -4.8976200872630216e-09 5.1698005876232855e-09 0.0003551519475877285 7.131577994812233e-09 -4.8976200872630216e-09 7.131577994812233e-09 0.00035514935734681785" pbc="T T T"
Ta       1.99954291       1.41388996       3.46330921       0.00000327      -0.00000036      -0.00000043
Ta       5.99862672       4.24167039      10.38992761      -0.00000383       0.00000144      -0.00000063
Rh       0.00000004       0.00000005       0.00000014      -0.00000057      -0.00000056      -0.00000038
Br       1.99111704       1.40793238       6.92661846       0.00733556       0.00518773      -0.00000050
Br       6.00705319       4.24762789       6.92661867      -0.00733450      -0.00518703       0.00000073
Br       5.00306913       1.40793208       5.18766743      -0.00366897       0.00518610       0.00635374
Br       2.99510126       4.24762792       8.66557004       0.00366859      -0.00518735      -0.00635356
Br       2.99510163       4.24762804       5.18766703       0.00366984      -0.00518712       0.00635335
Br       5.00306887       1.40793238       8.66557002      -0.00366938       0.00518713      -0.00635245
