9
Lattice="5.840665726496341 2.2521499820347326e-07 3.3721100653109675 1.946888825035378 5.506632711548947 3.3721100008754914 4.107048932824139e-08 -4.987577697839023e-08 6.744220059485765" Properties=species:S:1:pos:R:3:forces:R:3 energy=-37.89057159423828 free_energy=-37.89057159423828 stress="0.00021922745509073138 3.123544800587297e-08 3.92598380472009e-08 3.123544800587297e-08 0.00021924561588093638 -3.843002005510243e-08 3.92598380472009e-08 -3.843002005510243e-08 0.0002192087413277477" pbc="T T T"
Ta       1.94688982       1.37665981       3.37210528       0.00001102       0.00002315      -0.00004530
Ta       5.84066544       4.12996231      10.11634051      -0.00000659      -0.00010613       0.00009603
Rh       0.00000016       0.00000044      -0.00000041      -0.00000152       0.00000288       0.00000093
Cl       1.94312760       1.37400358       6.74422144       0.00627050       0.00447355       0.00001328
Cl       5.84442548       4.13263290       6.74421706      -0.00628358      -0.00444648      -0.00003098
Cl       4.86910236       1.37400541       5.05490617      -0.00312804       0.00448878       0.00541730
Cl       2.91845229       4.13263286       8.43353057       0.00313105      -0.00445752      -0.00544618
Cl       2.91845471       4.13263374       5.05490889       0.00315682      -0.00443737       0.00543457
Cl       4.86910046       1.37400053       8.43353090      -0.00314970       0.00445926      -0.00543961
