9
Lattice="5.860281786063035 -9.479193975496153e-08 3.383435620084687 1.9534273019702453 5.525126203475044 3.383435396096009 3.017136316407237e-07 -6.098524231317066e-08 6.766870717586036" Properties=species:S:1:pos:R:3:forces:R:3 energy=-38.8556022644043 free_energy=-38.8556022644043 stress="0.0003585797385312617 2.964088530177378e-09 3.3725559234198954e-08 2.964088530177378e-09 0.00035853596637025476 -2.0272775458352044e-08 3.3725559234198954e-08 -2.0272775458352044e-08 0.00035853544250130653" pbc="T T T"
Ta       1.95342285       1.38127707       3.38343986      -0.00003016      -0.00004343       0.00003472
Ta       5.86027340       4.14384878      10.15031107      -0.00007140       0.00004297       0.00004148
Ru       0.00000074       0.00000002      -0.00000047       0.00000161       0.00000107      -0.00001033
Cl       1.95597186       1.38307665       6.76686969       0.00691590       0.00485596      -0.00001229
Cl       5.85774032       4.14204764       6.76686839      -0.00689268      -0.00486991      -0.00001946
Cl       4.88229790       1.38307905       5.07735352      -0.00344284       0.00488050       0.00596622
Cl       2.93141481       4.14204855       8.45638693       0.00347157      -0.00486073      -0.00597496
Cl       2.93141465       4.14204820       5.07735331       0.00347650      -0.00487009       0.00596189
Cl       4.88230100       1.38307823       8.45638490      -0.00342867       0.00486353      -0.00598720
