9
Lattice="11.800615269927395 1.9208650542331915 10.114682517918334 4.662232704638267 7.745705506949046 11.523617342307496 4.4197018829320625 5.059830380964368 13.420234039003192" Properties=species:S:1:pos:R:3:forces:R:3 energy=-63.92707061767578 free_energy=-63.92707061767578 stress="0.0006926659261807799 -9.523652261123061e-05 1.5304991393350065e-05 -9.523652261123061e-05 6.343703716993332e-05 6.100047176005319e-05 1.5304991393350065e-05 6.100047176005319e-05 0.0004164095444139093" pbc="T T T"
Ta       3.55839179       5.92218577      11.23125445       0.00774312       0.01166931       0.00860876
Ta      15.77014233       9.86383907      24.29437500      -0.06744746      -0.01650178       0.01076718
Ru       0.00407973       0.25724010       0.31138873      -0.00550383       0.01563892       0.00148574
F        5.73238253       7.89079589      14.92816038      -0.04301751      -0.00750126      -0.02169293
F       14.89820779       8.27222508      19.47321331       0.01376489       0.03346011      -0.01466799
F        9.23861633       1.82783418      12.77329463       0.08768451       0.01926528      -0.01512392
F       13.56857686       8.05580993      21.90479204       0.00919223      -0.05829786       0.02442187
F        3.79131136       9.87985468      14.49933641       0.03124113       0.00664818      -0.01192175
F       16.96880267       6.93593257      20.81897217      -0.03365678      -0.00438082       0.01812321
