9
Lattice="6.066840019565042 -4.874304736355492e-07 3.5026911461382326 2.022279625323457 5.719875197171575 3.5026910104226516 -1.0962542762846303e-06 -9.413861656583524e-07 7.0053841910446275" Properties=species:S:1:pos:R:3:forces:R:3 energy=-30.715919494628906 free_energy=-30.715919494628906 stress="0.00014248205116018653 4.8144048747644774e-08 4.5436942741616804e-07 4.8144048747644774e-08 0.0001418586034560576 3.134323662834504e-07 4.5436942741616804e-07 3.134323662834504e-07 0.0001426008966518566" pbc="T T T"
Ta       2.02229512       1.42999627       3.50271180       0.00012037       0.00021740       0.00015885
Ta       6.06684510       4.28989255      10.50803445       0.00004463      -0.00010270      -0.00031224
S       -0.00000105      -0.00000081       0.00000147      -0.00001720      -0.00000906       0.00001217
Cl       2.05667572       1.45429721       7.00538050       0.00228488       0.00166774      -0.00004394
Cl       6.03244061       4.26557519       7.00539600      -0.00229388      -0.00167340       0.00011138
Cl       5.03848769       1.45428968       5.28382690      -0.00123796       0.00160658       0.00198686
Cl       3.05062307       4.26557522       8.72694402       0.00118333      -0.00167775      -0.00195056
Cl       3.05060672       4.26556965       5.28382873       0.00105512      -0.00172722       0.00199378
Cl       5.03850121       1.45430014       8.72694167      -0.00113901       0.00169873      -0.00195616
