9
Lattice="6.561609815841759 -2.704340624946335e-08 3.788347281307568 2.187203313077545 6.186345066102215 3.7883471659060315 1.0189246437447984e-08 -1.3413249005711893e-07 7.576694544966847" Properties=species:S:1:pos:R:3:forces:R:3 energy=-27.31719207763672 free_energy=-27.31719207763672 stress="4.8592952225590125e-05 -1.894342283037531e-08 1.6364547050784495e-08 -1.894342283037531e-08 4.862557761953212e-05 8.775861815024655e-09 1.6364547050784495e-08 8.775861815024655e-09 4.859995897277258e-05" pbc="T T T"
Ta       2.18720297       1.54658587       3.78834776      -0.00000136       0.00000019       0.00000380
Ta       6.56161021       4.63975939      11.36504131       0.00000261       0.00000395      -0.00000101
S        0.00000002       0.00000060       0.00000021      -0.00000002       0.00000064       0.00000186
I        2.31472450       1.63675713       7.57669418       0.00155395       0.00109847      -0.00000015
I        6.43408888       4.54958763       7.57669466      -0.00155418      -0.00109997      -0.00000011
I        5.40424749       1.63675679       5.79295764      -0.00077646       0.00109746       0.00134484
I        3.34456545       4.54958761       9.36043145       0.00077631      -0.00109948      -0.00134736
I        3.34456521       4.54958768       5.79295749       0.00077611      -0.00109865       0.00134592
I        5.40424780       1.63675689       9.36043138      -0.00077702       0.00109744      -0.00134772
