9
Lattice="6.644807137058845 2.8633934232213436 1.4493869231208083 2.4810024517774463 5.45194669834719 2.107278625175892 0.8384182970064131 0.652459043914088 5.362026843842501" Properties=species:S:1:pos:R:3:forces:R:3 energy=-62.03998947143555 free_energy=-62.03998947143555 stress="-0.0004882829962298274 -0.0007819415768608451 0.002772201783955097 -0.0007819415768608451 0.008810610510408878 0.0026506572030484676 0.002772201783955097 0.0026506572030484676 0.0074369232170283794" pbc="T T T"
Ta       4.19760080       4.40536284       2.99493006      -0.36883748       0.55707473       0.13549781
Ta       6.75912504       6.62020425       5.10530426       0.14633021      -0.20224339       0.21279573
S       -0.92457703      -0.13072210       0.48134860       0.14831167      -0.23452035       0.05814490
F        2.93653022       2.69434902       2.83536656       0.03252792      -0.00266982       0.00778709
F        7.16019787       4.86852941       4.57794990      -0.08220816       0.28030241       0.01638725
F        5.17893637       6.00597834       3.62274586       0.03466135      -0.00495255       0.03821178
F        5.22632897       6.15646765       6.61000756       0.10947910      -0.30180332       0.05045816
F        4.09668136       4.03379809       4.82781163       0.05408877      -0.04439381      -0.25272894
F        5.22833769       1.21715752       4.61691828      -0.07435381      -0.04679449      -0.26655412
