9
Lattice="5.6467712678908635 -5.6331045910129227e-08 3.2601647486404364 1.882257000764078 5.323827050127416 3.260164809995659 -1.0426308374163331e-07 1.4193618374266584e-09 6.520329677869824" Properties=species:S:1:pos:R:3:forces:R:3 energy=-30.06640625 free_energy=-30.06640625 stress="5.317518662195653e-05 3.7753263626427724e-08 8.339828383441272e-08 3.7753263626427724e-08 5.319567571859807e-05 3.4529656911530537e-09 8.339828383441272e-08 3.4529656911530537e-09 5.3162231779424474e-05" pbc="T T T"
Te       1.88225738       1.33095908       3.26016657       0.00000460       0.00002182       0.00001409
Te       5.64677127       3.99287127       9.78049743       0.00000149       0.00000955       0.00002310
As       0.00000015       0.00000012      -0.00000024      -0.00000208      -0.00000351       0.00000043
S        1.90430299       1.34654535       6.52032901       0.00007463       0.00004938      -0.00000529
S        5.62472536       3.97728054       6.52032836      -0.00006795      -0.00005624      -0.00001261
S        4.69461946       1.34654524       4.90933855      -0.00004140       0.00005281       0.00005937
S        2.83440806       3.97728147       8.13131959       0.00003275      -0.00005531      -0.00006479
S        2.83440822       3.97728033       4.90933824       0.00003535      -0.00006166       0.00005376
S        4.69461977       1.34654454       8.13131948      -0.00003734       0.00004327      -0.00006837
