9
Lattice="4.661313710152778 6.777571309333238e-08 2.6912106697817957 1.5537712938377464 4.394728595750981 2.691210681524045 2.1348759938893913e-08 2.9477134547779985e-08 5.382421302586421" Properties=species:S:1:pos:R:3:forces:R:3 energy=-44.10370635986328 free_energy=-44.10370635986328 stress="0.000527475553099066 3.065362008669581e-08 3.551816263325236e-08 3.065362008669581e-08 0.0005275338189676404 5.9246467287721316e-08 3.551816263325236e-08 5.9246467287721316e-08 0.0005275765433907509" pbc="T T T"
Te       1.55377106       1.09868332       2.69121019      -0.00000685       0.00001932      -0.00000767
Te       4.66131446       3.29604638       8.07363251       0.00001559       0.00000169       0.00000291
As       0.00000012      -0.00000003      -0.00000011      -0.00000442      -0.00000627      -0.00000157
O        1.49016689       1.05370764       5.38242138      -0.00080258      -0.00056326       0.00000019
O        4.72491801       3.34102089       5.38242143       0.00081193       0.00056493       0.00000178
O        3.91623048       1.05370739       3.98173327       0.00039968      -0.00056678      -0.00069213
O        2.29885428       3.34102101       6.78310945      -0.00040597       0.00055915       0.00069600
O        2.29885488       3.34102149       3.98173328      -0.00040463       0.00056249      -0.00069171
O        3.91622997       1.05370674       6.78310915       0.00039741      -0.00057083       0.00069326
