9
Lattice="6.037678030012523 1.1962834176019302e-07 3.4858549603922753 2.0125594955865895 5.692377188899866 3.485854892041393 7.476463182635566e-08 -3.084580939350192e-08 6.971709791288415" Properties=species:S:1:pos:R:3:forces:R:3 energy=-29.154727935791016 free_energy=-29.154727935791016 stress="-6.093885895097628e-05 4.895209926303323e-08 2.2948231759301052e-08 4.895209926303323e-08 -6.093813499319367e-05 8.75704042613279e-09 2.2948231759301052e-08 8.75704042613279e-09 -6.096212018746883e-05" pbc="T T T"
Te       2.01255876       1.42309441       3.48585514       0.00000143      -0.00000055      -0.00000073
Te       6.03767881       4.26928308      10.45756493       0.00000020      -0.00000026      -0.00000340
Bi       0.00000011       0.00000012      -0.00000004      -0.00000004      -0.00000022      -0.00000018
Se       2.50179856       1.76903893       6.97170979      -0.00208864      -0.00148182       0.00000029
Se       5.54843862       3.92333865       6.97170966       0.00209279       0.00147440       0.00000099
Se       4.78677876       1.76903857       5.65247555       0.00104465      -0.00147776      -0.00180519
Se       3.26345903       3.92333851       8.29094271      -0.00104725       0.00148106       0.00182144
Se       3.26345896       3.92333845       5.65247669      -0.00104699       0.00148201      -0.00181907
Se       4.78677884       1.76903831       8.29094415       0.00104390      -0.00147682       0.00180586
