9
Lattice="5.708556959501079 -1.2101742973697346e-07 3.2958370878709258 1.902852042022129 5.382080028757283 3.2958373714339206 -5.906335002283357e-07 -7.034859309355107e-08 6.591675198749233" Properties=species:S:1:pos:R:3:forces:R:3 energy=-27.694032669067383 free_energy=-27.694032669067383 stress="-6.085319182602689e-05 7.520965539242752e-08 1.5487449900319916e-07 7.520965539242752e-08 -6.123046478023753e-05 -6.164847121681305e-08 1.5487449900319916e-07 -6.164847121681305e-08 -6.0691341786878183e-05" pbc="T T T"
Te       1.90287299       1.34552078       3.29584225       0.00015821      -0.00000519       0.00003600
Te       5.70855445       4.03654941       9.88751127      -0.00000413      -0.00006914      -0.00000984
Bi      -0.00000064       0.00000035      -0.00000047      -0.00000983       0.00000454      -0.00000287
S        2.15235603       1.52195134       6.59167143       0.00675191       0.00481283      -0.00002156
S        5.45904625       3.86013549       6.59167498      -0.00679976      -0.00476414      -0.00000082
S        4.63237002       1.52194946       5.15983014      -0.00344275       0.00481514       0.00582820
S        2.97903506       3.86013032       8.02351749       0.00340021      -0.00480155      -0.00584524
S        2.97903021       3.86013176       5.15983394       0.00337582      -0.00480130       0.00585371
S        4.63236938       1.52195052       8.02351757      -0.00342975       0.00480888      -0.00583759
