9
Lattice="6.233167621221721 9.840994957497425e-07 3.5987194058466176 2.077723362506949 5.876685396138437 3.5987195889557433 -3.259614161112742e-07 -6.227267736472056e-09 7.197439376275206" Properties=species:S:1:pos:R:3:forces:R:3 energy=-28.1483211517334 free_energy=-28.1483211517334 stress="-0.00012958442675881088 2.8265130680438233e-08 5.3170275293723535e-08 2.8265130680438233e-08 -0.00012946398055646569 -4.971875355863631e-09 5.3170275293723535e-08 -4.971875355863631e-09 -0.0001295661204494536" pbc="T T T"
Te       2.07771843       1.46917163       3.59871894      -0.00000049       0.00000592      -0.00000269
Te       6.23316817       4.40751584      10.79615770      -0.00000268      -0.00000592       0.00000755
Ga       0.00000013       0.00000042       0.00000395      -0.00000047      -0.00000007      -0.00000294
Se       2.64881191       1.87298956       7.19743619      -0.00708194      -0.00500831      -0.00000149
Se       5.66208074       4.00369941       7.19744060       0.00707345       0.00498687      -0.00001262
Se       4.90876205       1.87298509       5.89265485       0.00353967      -0.00498321      -0.00612073
Se       3.40213136       4.00369709       8.50222185      -0.00354442       0.00500983       0.00614427
Se       3.40212618       4.00369695       5.89265561      -0.00352601       0.00499630      -0.00613596
Se       4.90876384       1.87298922       8.50222354       0.00354292      -0.00500136       0.00612465
