9
Lattice="5.488185282512674 1.2853566633323024e-07 3.1686055369820108 1.8293952099284876 5.174310929402605 3.1686055463818312 -1.214787556542967e-09 1.0653373789346003e-08 6.337211076068115" Properties=species:S:1:pos:R:3:forces:R:3 energy=-28.689796447753906 free_energy=-28.689796447753906 stress="-0.00017473503248766065 1.4014746696489055e-08 5.158060645271689e-08 1.4014746696489055e-08 -0.0001748850045260042 3.820377614260906e-08 5.158060645271689e-08 3.820377614260906e-08 -0.00017482272232882679" pbc="T T T"
Te       1.82939469       1.29357910       3.16860665      -0.00000347       0.00001351       0.00001126
Te       5.48818747       3.88073283       9.50581585       0.00001899      -0.00000681      -0.00000767
Ga       0.00000017       0.00000065       0.00000003       0.00000248      -0.00000783       0.00000277
S        1.94372284       1.37442172       6.33721095      -0.00249076      -0.00174832      -0.00000118
S        5.37385684       3.79988928       6.33721047       0.00249146       0.00174771      -0.00000005
S        4.51632317       1.37441967       4.85191972       0.00123748      -0.00175969      -0.00214793
S        2.80125702       3.79989122       7.82250176      -0.00124003       0.00176148       0.00215361
S        2.80125618       3.79988956       4.85192045      -0.00125309       0.00175344      -0.00215539
S        4.51632362       1.37442022       7.82250279       0.00123692      -0.00175329       0.00214475
