9
Lattice="4.692352304853724 9.679073425730755e-08 2.709130873433158 1.5641174860811926 4.423992319541743 2.7091309429320964 -1.4227375588283408e-08 7.505819966878048e-08 5.418261771508908" Properties=species:S:1:pos:R:3:forces:R:3 energy=-40.58843231201172 free_energy=-40.58843231201172 stress="0.00016450042312499136 -2.3491235623396278e-08 -4.5474489951402575e-08 -2.3491235623396278e-08 0.00016466676606796682 -2.5043219054055044e-08 -4.5474489951402575e-08 -2.5043219054055044e-08 0.000164592987857759" pbc="T T T"
Te       1.56412366       1.10599618       2.70912911       0.00011571      -0.00004226      -0.00003003
Te       4.69235704       3.31799337       8.12739274       0.00009547      -0.00001730      -0.00000099
Ga       0.00000044      -0.00000001      -0.00000002       0.00000521      -0.00000380      -0.00000742
O        1.55669345       1.10075060       5.41826266       0.00095707       0.00071809       0.00001490
O        4.69977353       3.32324506       5.41826166      -0.00100666      -0.00064790      -0.00000239
O        3.91400316       1.10074905       4.05726750      -0.00052685       0.00068507       0.00083190
O        2.34246269       3.32324288       6.77925464       0.00044450      -0.00069195      -0.00085884
O        2.34246322       3.32324320       4.05726889       0.00045601      -0.00068545       0.00086570
O        3.91400190       1.10074980       6.77925706      -0.00054041       0.00068554      -0.00081265
