9
Lattice="4.468365751217821 -1.1003772290976064e-07 2.57981206623159 1.48945513850295 4.212815871437362 2.5798120803624136 -1.2676647421357365e-07 -7.233077978581514e-08 5.159624352029167" Properties=species:S:1:pos:R:3:forces:R:3 energy=-38.646244049072266 free_energy=-38.646244049072266 stress="0.00019544284441508353 2.2877932792653155e-07 3.064139946218347e-07 2.2877932792653155e-07 0.00019552386947907507 2.8932566920047975e-07 3.064139946218347e-07 2.8932566920047975e-07 0.00019592831085901707" pbc="T T T"
Te       1.48945542       1.05320594       2.57981280       0.00002413       0.00006798       0.00005032
Te       4.46836907       3.15961679       7.73944320       0.00006932       0.00010922       0.00013473
N       -0.00000526      -0.00000939      -0.00000642      -0.00015928      -0.00029016      -0.00019569
O        1.42401051       1.00692601       5.15962331      -0.00027096      -0.00022554      -0.00003411
O        4.53381955       3.20589412       5.15962138       0.00055814       0.00037080      -0.00005860
O        3.75636079       1.00692587       3.81304020       0.00012618      -0.00023878      -0.00027823
O        2.20145320       3.20589270       6.50621311      -0.00031883       0.00034183       0.00042933
O        2.20145793       3.20589011       3.81303688      -0.00021511       0.00024134      -0.00037682
O        3.75636177       1.00692060       6.50620958       0.00018665      -0.00037676       0.00032955
