9
Lattice="5.90448627673928 -1.285301908256606e-07 3.4089566971613046 1.9681619521584521 5.566803133790062 3.4089567299119072 -9.116646199822754e-08 -2.4353283924005164e-08 6.817913552227494" Properties=species:S:1:pos:R:3:forces:R:3 energy=-29.282846450805664 free_energy=-29.282846450805664 stress="1.0463939361216035e-05 -7.941918234166678e-09 -4.405342757252129e-09 -7.941918234166678e-09 1.0458828910486773e-05 8.745478230487436e-10 -4.405342757252129e-09 8.745478230487436e-10 1.0460269550094381e-05" pbc="T T T"
Te       1.96816283       1.39170068       3.40895668       0.00000077      -0.00000182       0.00000043
Te       5.90448537       4.17510103      10.22687040       0.00000114      -0.00000068      -0.00000093
Sb       0.00000017      -0.00000016       0.00000059      -0.00000035       0.00000026      -0.00000215
Se       2.40464263       1.70033853       6.81791352      -0.00081778      -0.00057296      -0.00000124
Se       5.46800695       3.86646441       6.81791345       0.00080803       0.00057710       0.00000021
Se       4.70216503       1.70033882       5.49143856       0.00040900      -0.00057574      -0.00070965
Se       3.17048235       3.86646460       8.14438965      -0.00040565       0.00057723       0.00070061
Se       3.17048215       3.86646504       5.49143687      -0.00040477       0.00057469      -0.00069830
Se       4.70216500       1.70033889       8.14438815       0.00040963      -0.00057810       0.00071105
