9
Lattice="4.764274843653286 -2.8079744560862573e-08 2.7506552287668864 1.5880915679850138 4.491801388755755 2.7506552635677046 -8.019996011226408e-08 -1.408779044835441e-08 5.501310596444178" Properties=species:S:1:pos:R:3:forces:R:3 energy=-42.512664794921875 free_energy=-42.512664794921875 stress="0.0006984807550907135 3.7963996390999455e-08 3.450750085676191e-08 3.7963996390999455e-08 0.000698319636285305 2.559193923445946e-08 3.450750085676191e-08 2.559193923445946e-08 0.0006984372739680111" pbc="T T T"
Te       1.58808968       1.12295229       2.75065508      -0.00003103       0.00003010      -0.00000268
Te       4.76427442       3.36884962       8.25196463      -0.00000440      -0.00002186      -0.00002056
Sb       0.00000030       0.00000005       0.00000039      -0.00001297       0.00000204      -0.00002966
O        1.59790732       1.12989151       5.50131088       0.00090790       0.00065136       0.00000040
O        4.75445921       3.36190930       5.50131100      -0.00089210      -0.00065404       0.00000761
O        3.96532191       1.12989116       4.13448376      -0.00044560       0.00065076       0.00079560
O        2.38704570       3.36190953       6.86813783       0.00045407      -0.00064218      -0.00077283
O        2.38704499       3.36190999       4.13448350       0.00045672      -0.00065911       0.00079626
O        3.96532176       1.12989190       6.86813723      -0.00043291       0.00064307      -0.00077403
