9
Lattice="5.7975213707621105 -4.577211983662723e-07 3.347199865257771 1.9325066487930227 5.465954801115296 3.347199940170131 -7.766258576772972e-07 -4.5740892000919636e-07 6.694401075671037" Properties=species:S:1:pos:R:3:forces:R:3 energy=-32.869873046875 free_energy=-32.869873046875 stress="0.00015220808563753963 -6.196523827384226e-08 1.8212578112297706e-08 -6.196523827384226e-08 0.00015246300608851016 5.377551559604399e-08 1.8212578112297706e-08 5.377551559604399e-08 0.00015234992315527052" pbc="T T T"
Te       1.93250328       1.36648548       3.34719584      -0.00002899      -0.00002407      -0.00003350
Te       5.79751700       4.09946410      10.04159719      -0.00003178      -0.00001420      -0.00003053
Y        0.00000054       0.00000034       0.00000123       0.00000308       0.00000240      -0.00000074
S        2.15369159       1.52289107       6.69440088      -0.00228781      -0.00161460       0.00000855
S        5.57633683       3.94306489       6.69439985       0.00229344       0.00162281       0.00000404
S        4.72067596       1.52289019       5.21235382       0.00116265      -0.00162092      -0.00197273
S        3.00935491       3.94306420       8.17645066      -0.00112610       0.00162217       0.00200373
S        3.00935328       3.94306512       5.21235373      -0.00113890       0.00163795      -0.00197247
S        4.72067557       1.52289013       8.17645018       0.00115457      -0.00161131       0.00199351
