9
Lattice="5.990231653867452 -2.785226826877819e-07 3.4584618703806744 1.9967437812202804 5.647643687990508 3.4584615946528396 1.0936776393863984e-07 -2.603614730885419e-07 6.916923551330664" Properties=species:S:1:pos:R:3:forces:R:3 energy=-31.73727035522461 free_energy=-31.73727035522461 stress="-5.494843571796082e-05 7.940897006619707e-08 3.5990627367255e-08 7.940897006619707e-08 -5.4826341511216015e-05 8.097072345947254e-09 3.5990627367255e-08 8.097072345947254e-09 -5.489618342835456e-05" pbc="T T T"
Te       1.99674420       1.41190922       3.45846135       0.00000409      -0.00000613      -0.00000672
Te       5.99023430       4.23573118      10.37538483       0.00000465      -0.00000456      -0.00000651
Y        0.00000007      -0.00000040      -0.00000243      -0.00000201       0.00000323      -0.00000608
Se       2.36911320       1.67521690       6.91692464      -0.00115451      -0.00081657       0.00000206
Se       5.61786230       3.97242630       6.91692234       0.00115925       0.00081134      -0.00000344
Se       4.80567223       1.67521936       5.51017563       0.00056487      -0.00079842      -0.00098923
Se       3.18129665       3.97243122       8.32367403      -0.00059325       0.00083180       0.00101133
Se       3.18130152       3.97242606       5.51017469      -0.00057064       0.00080642      -0.00100037
Se       4.80567758       1.67521278       8.32367313       0.00058761      -0.00082709       0.00099881
