9
Lattice="4.831598862352491 4.3181873122338065e-08 2.7895248358569154 1.6105329400969497 4.5552752986137826 2.7895249306569023 -3.34724728938028e-08 9.243719585352401e-08 5.579049729689859" Properties=species:S:1:pos:R:3:forces:R:3 energy=-44.26158142089844 free_energy=-44.26158142089844 stress="-3.1630088415113278e-06 -4.363443384391985e-09 3.771219070358711e-08 -4.363443384391985e-09 -3.0349144708452513e-06 3.4789092495657314e-08 3.771219070358711e-08 3.4789092495657314e-08 -2.9719330996158533e-06" pbc="T T T"
Te       1.61053276       1.13881764       2.78952587      -0.00000081      -0.00002248       0.00001646
Te       4.83159846       3.41645569       8.36857502      -0.00000826      -0.00001688       0.00000799
Y       -0.00000017      -0.00000017       0.00000024       0.00000074      -0.00000607      -0.00000407
O        1.74489106       1.23382440       5.57904940       0.00002101       0.00001423      -0.00000717
O        4.69724019       3.32145180       5.57904945      -0.00002883      -0.00000580      -0.00000543
O        3.95915343       1.23382472       4.30064458      -0.00001134       0.00002542       0.00001550
O        2.48297862       3.32145152       6.85745400       0.00001092       0.00000064      -0.00002109
O        2.48297879       3.32145102       4.30064481       0.00001760      -0.00001359       0.00001530
O        3.95915390       1.23382511       6.85745454      -0.00000107       0.00002478      -0.00001749
