9
Lattice="4.225548983555818 9.480214549213569e-08 2.4396221996778493 1.4085164371349945 3.9838856347747016 2.439622165205273 1.8972958442034474e-08 -2.8804175251808493e-08 4.879244366493632" Properties=species:S:1:pos:R:3:forces:R:3 energy=-62.08834457397461 free_energy=-62.08834457397461 stress="-0.0001347488141618669 4.882001647388279e-08 -1.033053678156648e-07 4.882001647388279e-08 -0.0001345864002360031 6.20404279061404e-08 -1.033053678156648e-07 6.20404279061404e-08 -0.0001343390322290361" pbc="T T T"
Ti       1.40851587       0.99597121       2.43962189      -0.00000485      -0.00000426      -0.00000135
Ti       4.22554849       2.98791536       7.31886650      -0.00000513       0.00001019       0.00000039
As       0.00000006      -0.00000019       0.00000030      -0.00000637       0.00000406      -0.00001283
O        1.45148914       1.02635737       4.87924416      -0.00286078      -0.00202382      -0.00000074
O        4.18257640       2.95752814       4.87924468       0.00286853       0.00202554       0.00000323
O        3.49980481       1.02635745       3.69664907       0.00143808      -0.00202698      -0.00248235
O        2.13426074       2.95752781       6.06183988      -0.00143623       0.00202507       0.00248444
O        2.13426144       2.95752804       3.69664846      -0.00142628       0.00201941      -0.00247985
O        3.49980484       1.02635745       6.06183998       0.00143290      -0.00202942       0.00248778
