9
Lattice="6.648689047457802 3.22575001131132e-09 3.838622417173437 2.2162297010360703 6.268444119170971 3.838622390311322 6.01549493873715e-08 9.636722939584791e-09 7.677244730155429" Properties=species:S:1:pos:R:3:forces:R:3 energy=-26.714004516601562 free_energy=-26.714004516601562 stress="4.258514309185557e-05 -4.974741507624003e-09 9.336488249189756e-10 -4.974741507624003e-09 4.2584513721521944e-05 3.451028351975083e-09 9.336488249189756e-10 3.451028351975083e-09 4.259272827766836e-05" pbc="T T T"
Ti       2.21622929       1.56711143       3.83862239      -0.00000209       0.00000232       0.00000051
Ti       6.64868885       4.70133301      11.51586758      -0.00000189      -0.00000067       0.00000002
As      -0.00000003       0.00000016       0.00000014       0.00000048      -0.00000054      -0.00000002
I        2.29662973       1.62396225       7.67724469       0.00018170       0.00012816       0.00000037
I        6.56828921       4.64448172       7.67724458      -0.00018144      -0.00012887       0.00000019
I        5.50037438       1.62396242       5.82756201      -0.00008992       0.00012841       0.00015700
I        3.36454450       4.64448157       9.52692750       0.00009185      -0.00012925      -0.00015675
I        3.36454467       4.64448167       5.82756199       0.00009107      -0.00012802       0.00015658
I        5.50037463       1.62396228       9.52692723      -0.00008972       0.00012844      -0.00015780
