9
Lattice="5.671988281754014 -1.486963552756381e-07 3.2747237890744807 1.8906626164706093 5.34760145856519 3.274723795867209 2.0020378984576772e-08 2.2475890744082624e-08 6.549447543472649" Properties=species:S:1:pos:R:3:forces:R:3 energy=-34.15948486328125 free_energy=-34.15948486328125 stress="0.00019235495710745454 3.490577071829648e-08 4.49435937355247e-08 3.490577071829648e-08 0.00019238109234720469 -3.0046017229778954e-08 4.49435937355247e-08 -3.0046017229778954e-08 0.0001923275995068252" pbc="T T T"
Ti       1.89066227       1.33690099       3.27472370      -0.00000476       0.00000652      -0.00000019
Ti       5.67198821       4.01070118       9.82417197      -0.00000104       0.00000131       0.00000515
As       0.00000037      -0.00000021       0.00000028      -0.00000952       0.00000612      -0.00000375
Cl       1.92748846       1.36294014       6.54944747       0.00317770       0.00224710       0.00000016
Cl       5.63516277       3.98466077       6.54944733      -0.00317563      -0.00224814      -0.00000147
Cl       4.70824390       1.36294014       4.94397781      -0.00158847       0.00224832       0.00275256
Cl       2.85440686       3.98466114       8.15491727       0.00159344      -0.00225316      -0.00275774
Cl       2.85440701       3.98466111       4.94397745       0.00159520      -0.00225200       0.00275733
Cl       4.70824386       1.36294003       8.15491723      -0.00158696       0.00224417      -0.00275199
