9
Lattice="4.822649102815094 4.627203203824726e-07 2.784358528660663 1.6075500555903828 4.546839290998249 2.7843586700044067 3.3958501976153754e-07 4.1323289794112436e-07 5.568716469142775" Properties=species:S:1:pos:R:3:forces:R:3 energy=-46.9206428527832 free_energy=-46.9206428527832 stress="-0.00012127150694141164 -1.1990536563644127e-07 -1.2627492651517969e-07 -1.1990536563644127e-07 -0.00012199039338156581 -1.6704868599504152e-08 -1.2627492651517969e-07 -1.6704868599504152e-08 -0.00012167784734629095" pbc="T T T"
Ti       1.60754148       1.13671077       2.78435420      -0.00005398       0.00000965      -0.00002573
Ti       4.82264606       3.41012428       8.35307451      -0.00001799      -0.00003974      -0.00000556
As       0.00000030       0.00000016      -0.00000006       0.00000388       0.00000071       0.00000385
F        1.63862845       1.15869298       5.56871840       0.00087637       0.00064446       0.00001178
F        4.79157131       3.38814764       5.56871744      -0.00087350      -0.00065035       0.00000308
F        4.00333730       1.15869034       4.20345535      -0.00042163       0.00064121       0.00077274
F        2.42686912       3.38815152       6.93398116       0.00045990      -0.00063026      -0.00076095
F        2.42686761       3.38815419       4.20345591       0.00045823      -0.00061467       0.00077662
F        4.00333645       1.15868872       6.93397782      -0.00043116       0.00063896      -0.00077579
