9
Lattice="5.451163272551605 -7.738133781490917e-08 3.1472305340273468 1.8170543822469145 5.139405710306982 3.1472304803010394 -1.9998459047392094e-08 -7.994207767328031e-08 6.29446110269309" Properties=species:S:1:pos:R:3:forces:R:3 energy=-39.58536911010742 free_energy=-39.58536911010742 stress="-9.711515303933993e-05 -1.6378383094206583e-08 -3.3614753647270845e-08 -1.6378383094206583e-08 -9.71376066445373e-05 -6.292346910186097e-08 -3.3614753647270845e-08 -6.292346910186097e-08 -9.702867828309536e-05" pbc="T T T"
Ti       1.81705517       1.28485406       3.14722918       0.00000307       0.00000932      -0.00000469
Ti       5.45116352       3.85455348       9.44169506       0.00000056      -0.00000264       0.00001313
As       0.00000008       0.00000003      -0.00000008      -0.00000023       0.00000214      -0.00000042
Se       2.08307629       1.47295684       6.29446016      -0.00138915      -0.00098369      -0.00000308
Se       5.18514137       3.66644765       6.29446001       0.00138611       0.00098041      -0.00000194
Se       4.40962551       1.47295762       4.95122727       0.00069606      -0.00098175      -0.00120607
Se       2.85859204       3.66644710       7.63769470      -0.00069600       0.00098085       0.00120148
Se       2.85859239       3.66644833       4.95122736      -0.00069496       0.00098118      -0.00120303
Se       4.40962422       1.47295707       7.63769475       0.00069448      -0.00098601       0.00120479
