9
Lattice="6.278860460457563 -1.6483746742631808e-08 3.62510172559162 2.0929535228975014 5.919766233053946 3.625101636184294 7.937594791205308e-09 -1.0388844390303703e-07 7.250203437434911" Properties=species:S:1:pos:R:3:forces:R:3 energy=-27.593429565429688 free_energy=-27.593429565429688 stress="3.6039185943081975e-05 1.424140005923391e-08 -4.9972768145778446e-09 1.424140005923391e-08 3.603691948228516e-05 -4.025301425514272e-09 -4.9972768145778446e-09 -4.025301425514272e-09 3.603588629630394e-05" pbc="T T T"
Ti       2.09295337       1.47994162       3.62510169      -0.00000092       0.00000027       0.00000162
Ti       6.27886067       4.43982452      10.87530555       0.00000072       0.00000052       0.00000090
B       -0.00000046       0.00000048       0.00000028       0.00000155       0.00000166       0.00000251
I        2.00490957       1.41768552       7.25020316      -0.00414962      -0.00293103      -0.00000140
I        6.36690449       4.50208052       7.25020348       0.00414920       0.00293274       0.00000106
I        5.27640546       1.41768524       5.36140422       0.00207478      -0.00293472      -0.00359481
I        3.09540862       4.50208080       9.13900192      -0.00207473       0.00293225       0.00359084
I        3.09540872       4.50208103       5.36140461      -0.00207267       0.00293376      -0.00359285
I        5.27640552       1.41768471       9.13900221       0.00207160      -0.00293549       0.00359218
