9
Lattice="5.808118304062518 -7.301516170920879e-09 3.3533186699117072 1.9360394310162057 5.4759463444774035 3.3533186643472352 -4.429002863528321e-08 -3.8132816543009015e-08 6.706637416535979" Properties=species:S:1:pos:R:3:forces:R:3 energy=-31.882854461669922 free_energy=-31.882854461669922 stress="6.273199687711895e-05 -3.039726337306092e-08 -3.8746033936831736e-08 -3.039726337306092e-08 6.268335710046813e-05 -4.628519345573068e-09 -3.8746033936831736e-08 -4.628519345573068e-09 6.266546552069485e-05" pbc="T T T"
Ti       1.93603939       1.36898636       3.35331824      -0.00000009      -0.00000046       0.00000085
Ti       5.80811823       4.10696017      10.05995606       0.00000067      -0.00000048       0.00000052
B       -0.00000098       0.00000112      -0.00000016      -0.00000892       0.00001117      -0.00000312
Br       1.83008296       1.29406373       6.70663759       0.00120524       0.00085092       0.00000270
Br       5.91407490       4.18188224       6.70663743      -0.00120229      -0.00085041      -0.00000002
Br       4.89307709       1.29406364       4.93821686      -0.00059837       0.00084805       0.00103888
Br       2.85108087       4.18188232       8.47505777       0.00060236      -0.00085342      -0.00104314
Br       2.85108099       4.18188182       4.93821712       0.00060184      -0.00085333       0.00104246
Br       4.89307723       1.29406380       8.47505802      -0.00060020       0.00084779      -0.00103968
