9
Lattice="4.550441441341977 3.040333853529689e-07 2.627198533972031 1.5168139327790775 4.290200241983236 2.6271988243444677 -3.10297940913684e-07 1.362184111493223e-07 5.254397605395709" Properties=species:S:1:pos:R:3:forces:R:3 energy=-50.997169494628906 free_energy=-50.997169494628906 stress="0.00021939016005489975 -2.6376139317108027e-07 9.66153308468165e-08 -2.6376139317108027e-07 0.0002191932435380295 2.6290390309213763e-08 9.66153308468165e-08 2.6290390309213763e-08 0.0002186633792007342" pbc="T T T"
Ti       1.51682481       1.07255786       2.62719763       0.00004468       0.00003014      -0.00000484
Ti       4.55043872       3.21765247       7.88159738       0.00000329       0.00001961       0.00000318
B        0.00000043      -0.00000127      -0.00000150      -0.00000297       0.00000629       0.00000801
F        1.33113132       0.94125248       5.25439706       0.00074258       0.00051855       0.00000073
F        4.73612118       3.34894710       5.25439679      -0.00075191      -0.00053655       0.00000090
F        3.88487252       0.94125146       3.77999349      -0.00038351       0.00052150       0.00064410
F        2.18237815       3.34894548       6.72880383       0.00036927      -0.00054064      -0.00064854
F        2.18238041       3.34894635       3.77999242       0.00036775      -0.00053960       0.00064299
F        3.88487290       0.94125199       6.72880250      -0.00038898       0.00052053      -0.00064728
