9
Lattice="5.495677710073655 -5.903014089906328e-08 3.1729309660707594 1.831892526677202 5.181374591250285 3.1729309447547687 -6.0862325587796276e-09 -3.041028346870751e-08 6.345861942683175" Properties=species:S:1:pos:R:3:forces:R:3 energy=-35.44706344604492 free_energy=-35.44706344604492 stress="4.6194312744773924e-05 -3.178853091867495e-08 -1.277197814175679e-08 -3.178853091867495e-08 4.614953650161624e-05 -4.525897523421918e-08 -1.277197814175679e-08 -4.525897523421918e-08 4.613543569575995e-05" pbc="T T T"
Ti       1.83189237       1.29534389       3.17293128       0.00000044       0.00000193       0.00000186
Ti       5.49567791       3.88603087       9.51879249       0.00000098      -0.00000026      -0.00000291
B        0.00000015      -0.00000009       0.00000017      -0.00000138      -0.00000029      -0.00000067
Cl       1.64798007       1.16529796       6.34586189       0.00036269       0.00026006       0.00000062
Cl       5.67959013       4.01607665       6.34586186      -0.00036490      -0.00026149       0.00000038
Cl       4.67168722       1.16529789       4.60012369      -0.00018144       0.00025633       0.00031728
Cl       2.65588298       4.01607665       8.09160028       0.00018346      -0.00026003      -0.00031623
Cl       2.65588259       4.01607650       4.60012366       0.00018206      -0.00025725       0.00031734
Cl       4.67168745       1.16529762       8.09160009      -0.00018227       0.00026077      -0.00031757
