9
Lattice="5.686829763978676 -1.37340925780548e-08 3.2832926356160748 1.8956099148273042 5.36159440772192 3.2832926244448357 -3.920044972236858e-08 -4.1400823980357304e-08 6.566585339129323" Properties=species:S:1:pos:R:3:forces:R:3 energy=-34.76289367675781 free_energy=-34.76289367675781 stress="0.00013355136616155505 1.387218162562931e-08 -8.995068689898744e-09 1.387218162562931e-08 0.0001335427223239094 -1.2488070577632016e-09 -8.995068689898744e-09 -1.2488070577632016e-09 0.00013356120325624943" pbc="T T T"
Ti       1.89561053       1.34039882       3.28329238       0.00000118       0.00000027      -0.00000003
Ti       5.68682878       4.02119571       9.84987784      -0.00000454       0.00000123      -0.00000064
Ga      -0.00000014       0.00000005       0.00000024       0.00000379       0.00000002      -0.00000490
Cl       1.91469146       1.35389079       6.56658525       0.00163457       0.00115251       0.00000070
Cl       5.66774846       4.00770342       6.56658552      -0.00163445      -0.00115694      -0.00000142
Cl       4.72948408       1.35389100       4.94146381      -0.00081722       0.00115917       0.00141579
Cl       2.85295570       4.00770299       8.19170685       0.00081480      -0.00115300      -0.00140961
Cl       2.85295581       4.00770320       4.94146379       0.00082039      -0.00115656       0.00141288
Cl       4.72948387       1.35389144       8.19170674      -0.00081850       0.00115328      -0.00141267
