9
Lattice="6.522562269864971 1.93507139219328e-09 3.765803017434261 2.174187416366185 6.149530716433597 3.76580303258368 -4.663457981982378e-08 -1.4421428143596708e-08 7.531606115641956" Properties=species:S:1:pos:R:3:forces:R:3 energy=-26.411876678466797 free_energy=-26.411876678466797 stress="9.719716035760939e-05 -6.6421566025098855e-09 -2.346075334003217e-09 -6.6421566025098855e-09 9.721064998302609e-05 3.7012717335471734e-09 -2.346075334003217e-09 3.7012717335471734e-09 9.719487570691854e-05" pbc="T T T"
Ti       2.17418734       1.53738251       3.76580326      -0.00000013      -0.00000042       0.00000111
Ti       6.52256209       4.61214812      11.29740873      -0.00000082       0.00000050      -0.00000094
Ga       0.00000017      -0.00000003       0.00000017      -0.00000194      -0.00000113       0.00000029
I        2.22306856       1.57194691       7.53160610       0.00115219       0.00081445      -0.00000057
I        6.47368098       4.57758383       7.53160624      -0.00114962      -0.00081300      -0.00000016
I        5.41102784       1.57194686       5.69103702      -0.00057577       0.00081317       0.00099642
I        3.28572192       4.57758380       9.37217510       0.00057550      -0.00081251      -0.00099628
I        3.28572175       4.57758384       5.69103697       0.00057541      -0.00081423       0.00099643
I        5.41102791       1.57194698       9.37217506      -0.00057479       0.00081316      -0.00099621
