9
Lattice="5.521974692522667 -5.219855371535918e-09 3.1881136503708745 1.8406582087031265 5.20616769411374 3.1881136801905896 7.289900181447663e-08 8.806889587732866e-08 6.376227174476959" Properties=species:S:1:pos:R:3:forces:R:3 energy=-38.11015319824219 free_energy=-38.11015319824219 stress="-0.00042710418347269297 -2.1166325581134515e-08 -1.6448343131969523e-08 -2.1166325581134515e-08 -0.0004271375946700573 -2.93159141406818e-09 -1.6448343131969523e-08 -2.93159141406818e-09 -0.0004271001962479204" pbc="T T T"
Ti       1.84065880       1.30154232       3.18811357       0.00000215       0.00000130       0.00000035
Ti       5.52197568       3.90462494       9.56434011       0.00000474      -0.00000334      -0.00000528
Ga       0.00000017      -0.00000006      -0.00000013      -0.00000126       0.00000098       0.00000122
Se       2.00719456       1.41930114       6.37622746      -0.00321946      -0.00227597       0.00000155
Se       5.35543804       3.78686674       6.37622752       0.00321829       0.00227842       0.00000152
Se       4.51837662       1.41930150       4.92639533       0.00160965      -0.00227875      -0.00279230
Se       2.84425547       3.78686648       7.82605945      -0.00160983       0.00227627       0.00278860
Se       2.84425502       3.78686667       4.92639587      -0.00161467       0.00227736      -0.00278553
Se       4.51837752       1.41930145       7.82605895       0.00161022      -0.00227626       0.00278991
