9
Lattice="4.692565703767563 7.518477595684934e-08 2.7092541518026545 1.5641886576571777 4.424193198167013 2.709254119153919 2.3352271524023423e-07 1.251390817283406e-07 5.418507899132158" Properties=species:S:1:pos:R:3:forces:R:3 energy=-48.8644905090332 free_energy=-48.8644905090332 stress="8.3154984167777e-05 1.526607462665197e-08 2.1697502461393015e-08 1.526607462665197e-08 8.313653233926743e-05 9.291477809370008e-09 2.1697502461393015e-08 9.291477809370008e-09 8.311570127261803e-05" pbc="T T T"
Ti       1.56418860       1.10604960       2.70925441       0.00000006       0.00000778       0.00000302
Ti       4.69256644       3.31814545       8.12776147       0.00000332       0.00000414      -0.00000114
Ga       0.00000014       0.00000001       0.00000037      -0.00000014      -0.00000314      -0.00000439
F        1.54294244       1.09102538       5.41850750       0.00114870       0.00081351      -0.00000225
F        4.71381243       3.33316759       5.41850838      -0.00114644      -0.00081643       0.00000211
F        3.92109406       1.09102461       4.04548167      -0.00057736       0.00081158       0.00099705
F        2.33566009       3.33316806       6.79153470       0.00057384      -0.00081366      -0.00099324
F        2.33566000       3.33316813       4.04548180       0.00057290      -0.00081269       0.00099348
F        3.92109436       1.09102461       6.79153462      -0.00057484       0.00080888      -0.00099488
