9
Lattice="4.236455042198438 1.7820090157578647e-08 2.445918483972382 1.4121516888283594 3.994167976003251 2.4459184990506055 4.077718350274603e-08 4.730078070938604e-08 4.891836897316618" Properties=species:S:1:pos:R:3:forces:R:3 energy=-57.14902877807617 free_energy=-57.14902877807617 stress="-0.00014689209638163447 1.1982395164977788e-07 -2.2404803701192577e-07 1.1982395164977788e-07 -0.0001463155058445409 -2.1647063874752348e-07 -2.2404803701192577e-07 -2.1647063874752348e-07 -0.00014653371181339025" pbc="T T T"
Ti       1.41215420       0.99854134       2.44591759       0.00003531       0.00000108      -0.00000791
Ti       4.23645629       2.99562938       7.33775846       0.00002074       0.00004109       0.00004043
Ga      -0.00000001      -0.00000009      -0.00000002       0.00000147      -0.00000042      -0.00000478
O        1.48672526       1.05127313       4.89183738      -0.00061113      -0.00044277      -0.00000384
O        4.16188077       2.94289471       4.89183647       0.00060427       0.00043350      -0.00000821
O        3.49309177       1.05127297       3.73345999       0.00029063      -0.00044006      -0.00052464
O        2.15551304       2.94289421       6.05021276      -0.00032458       0.00043383       0.00052017
O        2.15551464       2.94289398       3.73345953      -0.00030527       0.00042456      -0.00053555
O        3.49309102       1.05127242       6.05021324       0.00028861      -0.00045052       0.00052333
