9
Lattice="5.93923538754974 6.730543257901817e-08 3.4290192210156922 1.9797452124366048 5.599564789147691 3.4290191867259594 1.0762953963881136e-07 3.41094014151559e-08 6.858038255611566" Properties=species:S:1:pos:R:3:forces:R:3 energy=-31.374778747558594 free_energy=-31.374778747558594 stress="0.00011026283027604222 -2.8101037941041795e-08 2.1313135700751218e-09 -2.8101037941041795e-08 0.00011022279795724899 9.665359179678035e-09 2.1313135700751218e-09 9.665359179678035e-09 0.00011023912520613521" pbc="T T T"
Ti       1.97974528       1.39989122       3.42901898       0.00000006      -0.00000147       0.00000067
Ti       5.93923575       4.19967345      10.28705739       0.00000047      -0.00000060      -0.00000208
Ga      -0.00000010       0.00000007       0.00000014      -0.00000097       0.00000182       0.00000155
Br       2.02051770       1.42872195       6.85803837       0.00090621       0.00064134       0.00000012
Br       5.89846294       4.17084302       6.85803836      -0.00090489      -0.00063969       0.00000073
Br       4.92897672       1.42872189       5.17883897      -0.00045262       0.00063767       0.00078373
Br       2.99000392       4.17084297       8.53723773       0.00045194      -0.00064144      -0.00078516
Br       2.99000397       4.17084305       5.17883898       0.00045189      -0.00063901       0.00078446
Br       4.92897664       1.42872195       8.53723778      -0.00045199       0.00064136      -0.00078400
