9
Lattice="5.959657471368707 6.184316922348038e-08 3.4408098237381255 1.9865525589235782 5.618819028348261 3.4408098061387022 2.698422362516807e-08 -2.474109288412847e-09 6.881619600738224" Properties=species:S:1:pos:R:3:forces:R:3 energy=-35.379093170166016 free_energy=-35.379093170166016 stress="0.00026970275212079287 1.7734532065105668e-08 3.346750077071192e-08 1.7734532065105668e-08 0.00026966785662807524 -3.067998477490619e-08 3.346750077071192e-08 -3.067998477490619e-08 0.0002696906740311533" pbc="T T T"
Ti       1.98655221       1.40470437       3.44081015      -0.00000277      -0.00000182       0.00000249
Ti       5.95965745       4.21411482      10.32242964       0.00000035       0.00000272       0.00000094
Ir       0.00000003       0.00000001      -0.00000018      -0.00000314       0.00000135      -0.00000095
Br       1.99352289       1.40963331       6.88161959       0.00164456       0.00116342      -0.00000069
Br       5.95268732       4.20918553       6.88161949      -0.00164260      -0.00116096      -0.00000073
Br       4.96289621       1.40963339       5.16725105      -0.00082254       0.00116427       0.00142355
Br       2.98331387       4.20918584       8.59598822       0.00082500      -0.00116529      -0.00142802
Br       2.98331392       4.20918565       5.16725117       0.00082121      -0.00116313       0.00142376
Br       4.96289631       1.40963341       8.59598778      -0.00082004       0.00115949      -0.00142030
