9
Lattice="5.698447179628923 -5.090082402860507e-08 3.289999921669974 1.8994823836146697 5.372547311992759 3.289999855168246 4.920062021867322e-08 -4.66575537444204e-08 6.579999758121975" Properties=species:S:1:pos:R:3:forces:R:3 energy=-38.073028564453125 free_energy=-38.073028564453125 stress="5.157952728040982e-06 -1.0978189912691505e-08 -3.2288294704585496e-08 -1.0978189912691505e-08 5.109703124617226e-06 -4.4079819794262676e-09 -3.2288294704585496e-08 -4.4079819794262676e-09 5.084026270196773e-06" pbc="T T T"
Ti       1.89948217       1.34313672       3.29000020      -0.00000029      -0.00000076       0.00000143
Ti       5.69844662       4.02941093       9.86999936      -0.00000294       0.00000161      -0.00000490
Ir       0.00000010      -0.00000007      -0.00000013      -0.00000049       0.00000088      -0.00000042
Cl       1.90443793       1.34664037       6.57999969       0.00152463       0.00107716      -0.00000160
Cl       5.69349210       4.02590643       6.57999977      -0.00152361      -0.00107865       0.00000194
Cl       4.74622845       1.34664064       4.93929118      -0.00076212       0.00107653       0.00132130
Cl       2.85170139       4.02590660       8.22070841       0.00076425      -0.00107649      -0.00132003
Cl       2.85170130       4.02590658       4.93929123       0.00076206      -0.00107932       0.00132267
Cl       4.74622838       1.34664065       8.22070840      -0.00076146       0.00107907      -0.00132068
