9
Lattice="4.72414664132859 -3.4693677998709156e-07 2.727487024518483 1.5747150632929134 4.453969778768675 2.7274872959681615 -4.463449777852365e-08 3.0089513846566996e-07 5.454974126346259" Properties=species:S:1:pos:R:3:forces:R:3 energy=-49.32133865356445 free_energy=-49.32133865356445 stress="0.00017535283404868096 3.0845262699585874e-07 2.487473516055161e-08 3.0845262699585874e-07 0.00017472717445343733 8.680732577204253e-08 2.487473516055161e-08 8.680732577204253e-08 0.00017603609012439847" pbc="T T T"
Ti       1.57471798       1.11349294       2.72748145       0.00001843       0.00000505      -0.00004229
Ti       4.72413721       3.34046462       8.18245295      -0.00006573      -0.00009655      -0.00005976
Ir       0.00000076       0.00000132       0.00000150       0.00000432      -0.00000837       0.00000148
F        1.64978290       1.16657792       5.45497611       0.00430194       0.00307174       0.00001684
F        4.64907804       3.28739508       5.45497809      -0.00430109      -0.00304558       0.00002836
F        3.89925514       1.16657709       4.15624114      -0.00215238       0.00308013       0.00372516
F        2.39961067       3.28739495       6.75371001       0.00218212      -0.00305542      -0.00369949
F        2.39961039       3.28739527       4.15624080       0.00217521      -0.00305169       0.00372422
F        3.89925354       1.16657982       6.75371175      -0.00216267       0.00310055      -0.00369472
