9
Lattice="6.454558095593073 3.0189179998060425e-08 3.7265408707644117 2.1515193864075477 6.085415799630266 3.7265408833265963 1.0592197963840824e-09 1.6134461264759142e-08 7.453081739694207" Properties=species:S:1:pos:R:3:forces:R:3 energy=-31.959442138671875 free_energy=-31.959442138671875 stress="0.000152204476762563 -9.988100124758148e-09 3.4201130816313707e-10 -9.988100124758148e-09 0.00015221118519548327 -1.5043623013966112e-09 3.4201130816313707e-10 -1.5043623013966112e-09 0.00015223486116155982" pbc="T T T"
Ti       2.15151941       1.52135353       3.72654090       0.00000061      -0.00000260      -0.00000002
Ti       6.45455806       4.56406219      11.17962281      -0.00000056       0.00000056      -0.00000014
Ir      -0.00000010      -0.00000006      -0.00000025      -0.00000021      -0.00000038      -0.00000024
I        2.15830527       1.52615242       7.45308182       0.00006159       0.00004358       0.00000010
I        6.44777216       4.55926360       7.45308165      -0.00006184      -0.00004293      -0.00000025
I        5.37540545       1.52615209       5.59568807      -0.00003020       0.00004276       0.00005284
I        3.23067207       4.55926373       9.31047542       0.00003073      -0.00004175      -0.00005287
I        3.23067211       4.55926353       5.59568793       0.00003058      -0.00004182       0.00005278
I        5.37540550       1.52615234       9.31047560      -0.00003070       0.00004259      -0.00005233
