9
Lattice="6.570514244865424 9.589339786356671e-08 3.793488108621402 2.190171517529731 6.194740167704638 3.7934880875502417 3.2277832155434694e-08 -2.9829251925130484e-09 7.58697616133598" Properties=species:S:1:pos:R:3:forces:R:3 energy=-33.14815139770508 free_energy=-33.14815139770508 stress="8.88208087417297e-05 8.697067066520958e-09 -7.085377617954691e-09 8.697067066520958e-09 8.880734094418585e-05 7.793103939945922e-09 -7.085377617954691e-09 7.793103939945922e-09 8.881069516064599e-05" pbc="T T T"
Ti       2.19017135       1.54868505       3.79348800      -0.00000080       0.00000080      -0.00000155
Ti       6.57051446       4.64605553      11.38046430       0.00000115       0.00000178       0.00000202
Mo       0.00000012      -0.00000007      -0.00000033      -0.00000143      -0.00000141      -0.00000121
I        2.24113402       1.58472078       7.58697614       0.00504819       0.00356886      -0.00000039
I        6.51955164       4.61001935       7.58697623      -0.00504547      -0.00356770      -0.00000081
I        5.44994765       1.58472080       5.73436652      -0.00252360       0.00356918       0.00437188
I        3.31073831       4.61001933       9.43958601       0.00252200      -0.00356960      -0.00437072
I        3.31073806       4.61001956       5.73436661       0.00252420      -0.00357010       0.00437294
I        5.44994756       1.58472077       9.43958593      -0.00252407       0.00356825      -0.00437222
