9
Lattice="5.642293019154135 -2.1981724863997024e-09 3.257579501836059 1.8807643675899852 5.319604746561195 3.2575794499708164 6.426890311450858e-08 -1.8076699207143224e-08 6.515158892355103" Properties=species:S:1:pos:R:3:forces:R:3 energy=-41.41026306152344 free_energy=-41.41026306152344 stress="0.00039327703416347504 4.095611316756731e-08 -9.954825408442503e-09 4.095611316756731e-08 0.00039323169039562345 1.3493278494536298e-08 -9.954825408442503e-09 1.3493278494536298e-08 0.00039326646947301924" pbc="T T T"
Ti       1.88076490       1.32990170       3.25757994       0.00000349       0.00000199       0.00000538
Ti       5.64229319       3.98970319       9.77273618       0.00000062      -0.00000072      -0.00001174
Mo      -0.00000006       0.00000001       0.00000017      -0.00000180       0.00000005      -0.00000198
Cl       1.93895658       1.37104947       6.51515910      -0.00315943      -0.00223317      -0.00000153
Cl       5.58410072       3.94855521       6.51515962       0.00316025       0.00223414       0.00000361
Cl       4.67281434       1.37104906       4.93676513       0.00157550      -0.00223365      -0.00273520
Cl       2.85024308       3.94855560       8.09355298      -0.00157722       0.00223258       0.00273746
Cl       2.85024220       3.94855515       4.93676524      -0.00157993       0.00222906      -0.00273333
Cl       4.67281492       1.37104954       8.09355296       0.00157846      -0.00223026       0.00273728
