9
Lattice="5.926791611706596 -4.940238689386123e-08 3.421834722427786 1.975597156893852 5.5878327079018275 3.421834723174892 2.755381108188651e-08 2.0398488744969545e-08 6.8436693971309674" Properties=species:S:1:pos:R:3:forces:R:3 energy=-37.81169128417969 free_energy=-37.81169128417969 stress="0.0001803350169211626 -4.0793132427552337e-08 3.930495484638641e-09 -4.0793132427552337e-08 0.0001803905179258436 2.767176887630285e-08 3.930495484638641e-09 2.767176887630285e-08 0.0001802807964850217" pbc="T T T"
Ti       1.97559748       1.39695751       3.42183458       0.00000288      -0.00000153      -0.00000285
Ti       5.92679182       4.19087448      10.26550368      -0.00000142      -0.00000107       0.00000008
Mo      -0.00000022       0.00000009       0.00000003       0.00000282      -0.00000086       0.00000215
Br       2.04597131       1.44672053       6.84366940      -0.00121848      -0.00086280       0.00000069
Br       5.85641733       4.14111257       6.84366946       0.00121558       0.00085985       0.00000189
Br       4.90380588       1.44672034       5.19369811       0.00060997      -0.00086268      -0.00105505
Br       2.99858290       4.14111250       8.49364096      -0.00060902       0.00086394       0.00105645
Br       2.99858284       4.14111244       5.19369803      -0.00061030       0.00086479      -0.00105586
Br       4.90380584       1.44672020       8.49364108       0.00060805      -0.00085969       0.00105251
