9
Lattice="4.798494194125428 -2.5273141722743006e-07 2.77041216176062 1.5994981117100506 4.524061712871747 2.7704116676428776 3.7921965137186603e-07 -3.370194170681341e-07 5.540823666693571" Properties=species:S:1:pos:R:3:forces:R:3 energy=-51.98894500732422 free_energy=-51.98894500732422 stress="9.623947698855773e-05 -1.0959493579321133e-07 -6.969428767433783e-08 -1.0959493579321133e-07 9.641722135711461e-05 -2.2888185569058805e-08 -6.969428767433783e-08 -2.2888185569058805e-08 9.610772394808009e-05" pbc="T T T"
Ti       1.59949587       1.13101347       2.77040999      -0.00001514      -0.00001431      -0.00001191
Ti       4.79849511       3.39304750       8.31123526       0.00000436       0.00001450      -0.00000027
Mo      -0.00000004       0.00000016       0.00000034       0.00000211      -0.00000373      -0.00000243
F        1.67107520       1.18162680       5.54082463      -0.00089639      -0.00063798       0.00000746
F        4.72691803       3.34243353       5.54082362       0.00090002       0.00063631      -0.00000029
F        3.96295714       1.18162701       4.21760655       0.00045586      -0.00064383      -0.00077349
F        2.43503602       3.34243459       6.86404175      -0.00045098       0.00064309       0.00077951
F        2.43503572       3.34243504       4.21760587      -0.00044955       0.00064588      -0.00077292
F        3.96295760       1.18162630       6.86404210       0.00044984      -0.00063974       0.00077420
