9
Lattice="5.515515484371004 2.97543032019072e-11 3.1843843136488417 1.8385051567920667 5.200077882000371 3.1843843217773546 -1.6684289393770647e-08 -1.8422133103575185e-09 6.368768656195705" Properties=species:S:1:pos:R:3:forces:R:3 energy=-32.58797836303711 free_energy=-32.58797836303711 stress="1.0658218343451153e-06 -1.0390186488962172e-08 6.039430289206393e-09 -1.0390186488962172e-08 1.1211044466108433e-06 1.4676942328151199e-08 6.039430289206393e-09 1.4676942328151199e-08 1.101842030948319e-06" pbc="T T T"
Ti       1.83850648       1.30001979       3.18438430       0.00000721       0.00000229       0.00000021
Ti       5.51551615       3.90005931       9.55315252       0.00000486       0.00000364      -0.00000487
N        0.00000037      -0.00000071      -0.00000079       0.00000751      -0.00000496      -0.00001176
Cl       1.84988792       1.30806853       6.36876872       0.00014910       0.00010699       0.00000128
Cl       5.50413230       3.89200908       6.36876876      -0.00015271      -0.00010720       0.00000309
Cl       4.59057042       1.30806832       4.78643487      -0.00008293       0.00010547       0.00013506
Cl       2.76344900       3.89200965       7.95110310       0.00007244      -0.00010474      -0.00012633
Cl       2.76344913       3.89200918       4.78643463       0.00007309      -0.00010777       0.00013252
Cl       4.59057070       1.30806833       7.95110300      -0.00007851       0.00010620      -0.00012928
