9
Lattice="4.024731257578373 -1.8759724603053563e-08 2.323679661248621 1.3415770997409269 3.794552790982342 2.323679606570714 -1.439345721300455e-08 -7.714419819787876e-08 4.647359347427433" Properties=species:S:1:pos:R:3:forces:R:3 energy=-43.99373245239258 free_energy=-43.99373245239258 stress="-1.0799026313179638e-05 -6.039149411662947e-07 -2.4921493491092406e-07 -6.039149411662947e-07 -9.225002941093408e-06 1.804406934979852e-07 -2.4921493491092406e-07 1.804406934979852e-07 -1.045790941134328e-05" pbc="T T T"
Ti       1.34157683       0.94863801       2.32367971       0.00001134       0.00000437      -0.00000773
Ti       4.02473162       2.84591473       6.97103916      -0.00001132      -0.00001011      -0.00002061
N       -0.00000002       0.00000001      -0.00000076       0.00001625       0.00001093       0.00008737
F        1.23074206       0.87026606       4.64735933       0.00097609       0.00069261      -0.00001188
F        4.13556649       2.92428672       4.64735946      -0.00098801      -0.00069308      -0.00000987
F        3.40936008       0.87026615       3.38953378      -0.00048780       0.00068045       0.00082350
F        1.95694800       2.92428672       5.90518476       0.00048494      -0.00068808      -0.00083971
F        1.95694812       2.92428663       3.38953390       0.00047851      -0.00068164       0.00082684
F        3.40936038       0.87026592       5.90518503      -0.00048566       0.00067830      -0.00084734
