9
Lattice="3.8791511013096227 -1.890943622893468e-07 2.239629002093843 1.2930503082787248 3.65729807489072 2.2396287951910443 -1.0264805353489175e-07 -3.259862696836102e-07 4.4792581819793185" Properties=species:S:1:pos:R:3:forces:R:3 energy=-61.11128616333008 free_energy=-61.11128616333008 stress="0.0002485279110260308 4.322445334992153e-08 -4.1264961225806474e-08 4.322445334992153e-08 0.0002480328839737922 -1.809870013858017e-07 -4.1264961225806474e-08 -1.809870013858017e-07 0.00024898856645449996" pbc="T T T"
Ti       1.29304871       0.91432576       2.23962875      -0.00000732       0.00001610      -0.00001402
Ti       3.87915139       2.74297118       6.71888777       0.00001345      -0.00001816      -0.00000315
N       -0.00000205      -0.00000027       0.00000485      -0.00006222      -0.00000981       0.00013249
O        1.30912828       0.92569318       4.47925799       0.00107419       0.00075987      -0.00000126
O        3.86307473       2.73160562       4.47925728      -0.00103462      -0.00073498      -0.00000289
O        3.22458836       0.92569139       3.37336506      -0.00051200       0.00072357       0.00088540
O        1.94761491       2.73160454       5.58514793       0.00055066      -0.00077394      -0.00094742
O        1.94761361       2.73160608       3.37336548       0.00051755      -0.00073293       0.00088805
O        3.22458717       0.92569299       5.58514863      -0.00053915       0.00076988      -0.00093943
