9
Lattice="5.926530369104283 -4.856960898297385e-08 3.4216839597311837 1.9755101110479165 5.58758619968042 3.421683901179168 9.966024064265769e-08 -1.2408639546506154e-09 6.84336774684576" Properties=species:S:1:pos:R:3:forces:R:3 energy=-30.9417724609375 free_energy=-30.9417724609375 stress="3.046069832635112e-05 4.484866256149189e-09 7.522650946611975e-09 4.484866256149189e-09 3.04178010992473e-05 -9.447574278453885e-09 7.522650946611975e-09 -9.447574278453885e-09 3.042575735889841e-05" pbc="T T T"
Ti       1.97551016       1.39689656       3.42168364       0.00000045       0.00000494      -0.00000185
Ti       5.92653015       4.19068986      10.26505194      -0.00000009       0.00000353       0.00000031
P        0.00000002      -0.00000005       0.00000002       0.00000027       0.00000019      -0.00000010
Br       2.04597354       1.44672154       6.84336771      -0.00261757      -0.00185435       0.00000228
Br       5.85606715       4.14086457       6.84336760       0.00261918       0.00185188       0.00000080
Br       4.90354379       1.44672130       5.19354901       0.00130952      -0.00185249      -0.00226735
Br       2.99849686       4.14086459       8.49318675      -0.00130926       0.00184929       0.00226581
Br       2.99849685       4.14086453       5.19354888      -0.00131011       0.00185032      -0.00226767
Br       4.90354380       1.44672173       8.49318687       0.00130755      -0.00185323       0.00226763
