9
Lattice="6.539961524995349 9.181056902952774e-08 3.77584847029284 2.17998726685196 6.165934916090611 3.7758484611239216 -7.542188224353388e-10 -1.1762897416194914e-08 7.551696941892022" Properties=species:S:1:pos:R:3:forces:R:3 energy=-27.164112091064453 free_energy=-27.164112091064453 stress="0.00027388817397877574 1.1281927392303714e-08 -3.084039468248534e-09 1.1281927392303714e-08 0.0002738892799243331 -3.3377267616430117e-09 -3.084039468248534e-09 -3.3377267616430117e-09 0.0002738783659879118" pbc="T T T"
Ti       2.17998669       1.54148323       3.77584838      -0.00000186      -0.00000163      -0.00000056
Ti       6.53996137       4.62445099      11.32754454      -0.00000145      -0.00000037      -0.00000512
P        0.00000002       0.00000010      -0.00000009       0.00000025      -0.00000029       0.00000103
I        2.24521280       1.58760515       7.55169700      -0.00576762      -0.00407964       0.00000045
I        6.47473622       4.57833001       7.55169745       0.00576781       0.00407985       0.00000156
I        5.41735551       1.58760499       5.72025957       0.00288461      -0.00407846      -0.00499335
I        3.30259363       4.57833004       9.38313458      -0.00288265       0.00407867       0.00499468
I        3.30259334       4.57833007       5.72025951      -0.00288381       0.00407910      -0.00499348
I        5.41735558       1.58760533       9.38313458       0.00288467      -0.00407710       0.00499491
