9
Lattice="4.714331319634882 -6.725258783303357e-07 2.7218214623956922 1.5714436097514695 4.4447082218309495 2.721820647286528 1.0793735615219058e-06 -2.3506813262754167e-07 5.443641055261002" Properties=species:S:1:pos:R:3:forces:R:3 energy=-47.22312545776367 free_energy=-47.22312545776367 stress="0.00023065926507115364 3.45248508892837e-07 -2.2584057290941928e-08 3.45248508892837e-07 0.00023299999884329736 -2.3907560375846515e-07 -2.2584057290941928e-08 -2.3907560375846515e-07 0.0002314207813469693" pbc="T T T"
Ti       1.57145459       1.11117418       2.72182319       0.00005692      -0.00001590       0.00001289
Ti       4.71432758       3.33355797       8.16546803      -0.00002044       0.00016038       0.00003318
P       -0.00000155      -0.00000424      -0.00000263       0.00003127       0.00004710       0.00004914
F        1.60831023       1.13722493       5.44363961      -0.00356570      -0.00261895      -0.00001144
F        4.67747042       3.30747872       5.44363994       0.00354592       0.00255248      -0.00001496
F        3.91017261       1.13723707       4.11464203       0.00174526      -0.00254937      -0.00313344
F        2.37559809       3.30746344       6.77264470      -0.00176437       0.00248077       0.00310808
F        2.37559114       3.30747686       4.11465759      -0.00180869       0.00256375      -0.00309346
F        3.91018162       1.13721901       6.77261998       0.00178004      -0.00262033       0.00305001
