9
Lattice="5.690837879105765 -1.1393513916577778e-07 3.285606879196461 1.8969458133396828 5.365373484536025 3.285606946648022 -1.8696508319842045e-10 8.247877701453338e-08 6.571213758716756" Properties=species:S:1:pos:R:3:forces:R:3 energy=-33.32022476196289 free_energy=-33.32022476196289 stress="4.216068919049576e-05 9.17918629994574e-09 3.635356904396758e-08 9.17918629994574e-09 4.2191641114186496e-05 -2.6213223591753376e-08 3.635356904396758e-08 -2.6213223591753376e-08 4.220029222778976e-05" pbc="T T T"
Ti       1.89694585       1.34134413       3.28560663       0.00000144       0.00000302      -0.00000137
Ti       5.69083866       4.02402927       9.85682035       0.00000638      -0.00000366      -0.00000271
P       -0.00000062      -0.00000016      -0.00000018      -0.00000030      -0.00000071       0.00000107
Cl       1.92595622       1.36185709       6.57121384      -0.00029067      -0.00020158       0.00000031
Cl       5.66182767       4.00351657       6.57121420       0.00028839       0.00020380       0.00000092
Cl       4.72785946       1.36185676       4.95353434       0.00014541      -0.00020460      -0.00025141
Cl       2.85992387       4.00351660       8.18889332      -0.00014704       0.00020409       0.00025040
Cl       2.85992393       4.00351622       4.95353433      -0.00014792       0.00020383      -0.00025091
Cl       4.72785968       1.36185729       8.18889353       0.00014431      -0.00020422       0.00025371
