9
Lattice="5.944045856284693 6.069146792756323e-08 3.4317964362041784 1.9813486796435735 5.604100045633018 3.4317964298621972 -4.01125902069442e-09 -1.0603709708613056e-08 6.863592879356052" Properties=species:S:1:pos:R:3:forces:R:3 energy=-35.92759323120117 free_energy=-35.92759323120117 stress="0.00030357440118677914 1.598509236089285e-08 1.3032544821101055e-08 1.598509236089285e-08 0.0003035513509530574 -4.154669941414113e-09 1.3032544821101055e-08 -4.154669941414113e-09 0.0003035387198906392" pbc="T T T"
Ti       1.98134865       1.40102516       3.43179614      -0.00000061       0.00000127      -0.00000163
Ti       5.94404578       4.20307531      10.29538946      -0.00000095       0.00000197      -0.00000071
Ru      -0.00000012      -0.00000006      -0.00000023      -0.00000059      -0.00000100      -0.00000136
Br       2.00213030       1.41571985       6.86359308      -0.00003113      -0.00002300       0.00000060
Br       5.92326426       4.18838009       6.86359297       0.00003275       0.00002170       0.00000008
Br       4.94298090       1.41571968       5.16569203       0.00001403      -0.00002033      -0.00002350
Br       2.98241376       4.18838031       8.56149372      -0.00001485       0.00002008       0.00002690
Br       2.98241375       4.18838027       5.16569203      -0.00001415       0.00002065      -0.00002585
Br       4.94298089       1.41571979       8.56149376       0.00001554      -0.00002149       0.00002535
