9
Lattice="5.642044083077028 5.822228741891208e-08 3.2574357132606293 1.8806814437814152 5.3193701863433205 3.2574356650000946 3.425163698321617e-08 -3.488728480331665e-08 6.514871367195685" Properties=species:S:1:pos:R:3:forces:R:3 energy=-37.69227981567383 free_energy=-37.69227981567383 stress="0.0003672685706987977 4.9846207161863276e-08 -4.031279754457273e-09 4.9846207161863276e-08 0.0003673244791571051 -3.801405579206829e-10 -4.031279754457273e-09 -3.801405579206829e-10 0.0003673183382488787" pbc="T T T"
Ti       1.88068129       1.32984209       3.25743573      -0.00000156      -0.00000413       0.00000135
Ti       5.64204457       3.98952803       9.77230611       0.00000241       0.00000201      -0.00000362
Rh      -0.00000010       0.00000007      -0.00000007      -0.00000019      -0.00000390      -0.00000123
Cl       1.89847832       1.34242702       6.51487137       0.00122821       0.00086755       0.00000005
Cl       5.62424713       3.97694328       6.51487149      -0.00122547      -0.00086747       0.00000090
Cl       4.69280484       1.34242665       4.90156614      -0.00061594       0.00086930       0.00106640
Cl       2.82992076       3.97694347       8.12817693       0.00061545      -0.00086665      -0.00106169
Cl       2.82992035       3.97694354       4.90156638       0.00061280      -0.00086670       0.00106394
Cl       4.69280513       1.34242665       8.12817686      -0.00061564       0.00086980      -0.00106594
