9
Lattice="4.699746702139739 -2.8926712292135017e-07 2.7133997430168466 1.5665819115688557 4.430963356331706 2.713399829193444 3.6204792849663924e-09 1.0810439010147574e-07 5.426799479762862" Properties=species:S:1:pos:R:3:forces:R:3 energy=-50.985713958740234 free_energy=-50.985713958740234 stress="0.00014888517034705728 1.889130913923509e-07 1.02686659175788e-09 1.889130913923509e-07 0.0001491126895416528 3.960806083114221e-08 1.02686659175788e-09 3.960806083114221e-08 0.00014924758579581976" pbc="T T T"
Ti       1.56658380       1.10774110       2.71340105       0.00001484       0.00000179       0.00000937
Ti       4.69974145       3.32322311       8.14019942      -0.00003972       0.00000528       0.00000284
Ru       0.00000026       0.00000001      -0.00000036      -0.00000105      -0.00000594       0.00000891
F        1.64257052       1.16146930       5.42679883       0.00297737       0.00208424      -0.00000474
F        4.62375901       3.26949283       5.42679942      -0.00296608      -0.00208797      -0.00000250
F        3.87846164       1.16147205       4.13590502      -0.00148652       0.00210206       0.00255895
F        2.38786760       3.26949126       6.71769414       0.00149471      -0.00210269      -0.00256133
F        2.38786756       3.26949147       4.13590507       0.00149165      -0.00210075       0.00255762
F        3.87846257       1.16147179       6.71769318      -0.00148496       0.00210367      -0.00256902
