9
Lattice="4.751469499487171 3.3710109364977154e-07 2.743261846753393 1.5838233003461004 4.479728349921082 2.7432621654015907 1.076163554825106e-07 4.663589754569491e-07 5.486523507109834" Properties=species:S:1:pos:R:3:forces:R:3 energy=-48.962581634521484 free_energy=-48.962581634521484 stress="1.8321978132007644e-05 5.3182745318736124e-08 -1.800693105735718e-08 5.3182745318736124e-08 1.806307045626454e-05 -1.0653096893520342e-07 -1.800693105735718e-08 -1.0653096893520342e-07 1.800208156055305e-05" pbc="T T T"
Ti       1.58381917       1.11993636       2.74326187      -0.00003070       0.00002723       0.00000039
Ti       4.75147069       3.35979636       8.22978972       0.00000565       0.00000212       0.00003004
Rh       0.00000001       0.00000018      -0.00000035      -0.00000066      -0.00000043       0.00000198
F        1.61974264       1.14533124       5.48652348      -0.00023255      -0.00015801       0.00000191
F        4.71555191       3.33439599       5.48652183       0.00024122       0.00014788      -0.00001516
F        3.94160035       1.14533035       4.14600132       0.00012797      -0.00015843      -0.00019097
F        2.39369276       3.33439853       6.82704731      -0.00012061       0.00015083       0.00018176
F        2.39369512       3.33439653       4.14599805      -0.00011005       0.00015199      -0.00020391
F        3.94159890       1.14533126       6.82704689       0.00011988      -0.00016314       0.00019354
