9
Lattice="5.671881521966815 3.595686491630987e-08 3.274662441121524 1.890627173361141 5.347501374906758 3.2746625009261963 4.169515465358367e-08 1.0272843198156676e-07 6.549324810024888" Properties=species:S:1:pos:R:3:forces:R:3 energy=-38.637367248535156 free_energy=-38.637367248535156 stress="0.0003579880576580763 -3.41081474175553e-08 -8.387423200417743e-09 -3.41081474175553e-08 0.0003580501361284405 4.960835653378126e-08 -8.387423200417743e-09 4.960835653378126e-08 0.0003580338670872152" pbc="T T T"
Ti       1.89062656       1.33687509       3.27466295      -0.00000104      -0.00000166       0.00000376
Ti       5.67188151       4.01062694       9.82398729       0.00000146       0.00000268      -0.00000099
Ru      -0.00000009       0.00000012       0.00000028       0.00000426      -0.00000020      -0.00000957
Cl       1.92078656       1.35820075       6.54932460       0.00066823       0.00047112      -0.00000209
Cl       5.64172255       3.98930040       6.54932490      -0.00067174      -0.00047681       0.00000080
Cl       4.71148843       1.35820101       4.93811241      -0.00033355       0.00047162       0.00058088
Cl       2.85102050       3.98930036       8.16053721       0.00033000      -0.00046459      -0.00057304
Cl       2.85102044       3.98930034       4.93811212       0.00033501      -0.00047377       0.00057986
Cl       4.71148847       1.35820105       8.16053730      -0.00033285       0.00047162      -0.00057948
