9
Lattice="6.441725491047446 -5.014065497588839e-08 3.719131961989663 2.1472417768767027 6.073317061324202 3.7191319727273284 -1.673281658294421e-08 1.3190110687464212e-09 7.438263952961417" Properties=species:S:1:pos:R:3:forces:R:3 energy=-31.089191436767578 free_energy=-31.089191436767578 stress="0.00016544951358810067 -1.0411469020255026e-08 -2.5006756665391094e-09 -1.0411469020255026e-08 0.0001654693332966417 1.4198742182003343e-09 -2.5006756665391094e-09 1.4198742182003343e-09 0.00016549488645978272" pbc="T T T"
Ti       2.14724166       1.51832942       3.71913205      -0.00000149       0.00000139       0.00000037
Ti       6.44172592       4.55498787      11.15739590       0.00000218       0.00000085       0.00000167
Rh      -0.00000009      -0.00000008       0.00000001       0.00000138       0.00000119      -0.00000345
I        2.15297346       1.52238221       7.43826390       0.00004981       0.00003577       0.00000022
I        6.43599395       4.55093471       7.43826394      -0.00005215      -0.00003673      -0.00000102
I        5.36523860       1.52238208       5.58366185      -0.00002507       0.00003458       0.00004346
I        3.22372833       4.55093496       9.29286601       0.00002377      -0.00003420      -0.00004259
I        3.22372845       4.55093481       5.58366174       0.00002614      -0.00003599       0.00004379
I        5.36523870       1.52238205       9.29286616      -0.00002457       0.00003311      -0.00004243
