9
Lattice="5.585938574488652 7.995369821448062e-08 3.225043318556392 1.8619795984581264 5.266473589059759 3.225043321591805 -7.408341274684851e-08 -4.866726548269407e-08 6.450086765428956" Properties=species:S:1:pos:R:3:forces:R:3 energy=-40.84832763671875 free_energy=-40.84832763671875 stress="0.0004547549469862133 -2.1621053392095746e-08 -2.0086053709178486e-08 -2.1621053392095746e-08 0.00045473588397726417 -1.473291888487438e-08 -2.0086053709178486e-08 -1.473291888487438e-08 0.00045479225809685886" pbc="T T T"
Ti       1.86198042       1.31661730       3.22504415       0.00000780      -0.00000832       0.00000596
Ti       5.58593878       3.94985711       9.67513389       0.00000094       0.00001682       0.00003442
Sb       0.00000008       0.00000014      -0.00000032       0.00000580      -0.00000333       0.00001559
S        1.98486400       1.40351041       6.45008527      -0.00446761      -0.00316635      -0.00000942
S        5.46305347       3.86296371       6.45008455       0.00446463       0.00316718      -0.00001643
S        4.59350658       1.40351075       4.94398575       0.00223759      -0.00316474      -0.00387329
S        2.85441063       3.86296320       7.95618738      -0.00224060       0.00315949       0.00386345
S        2.85441257       3.86296268       4.94398548      -0.00223139       0.00316676      -0.00388163
S        4.59350583       1.40350925       7.95618734       0.00222370      -0.00316745       0.00386131
