9
Lattice="4.467303768708178 -2.691616001427683e-09 2.579198998157078 1.4891013035933693 4.2118141391859565 2.5791989117364063 4.366374719514551e-08 -7.496831925499485e-08 5.158397920686332" Properties=species:S:1:pos:R:3:forces:R:3 energy=-58.99605941772461 free_energy=-58.99605941772461 stress="-0.0005963317817077041 5.974339956082986e-08 -1.5968465660876063e-08 5.974339956082986e-08 -0.0005966591415926814 -9.361347963476874e-08 -1.5968465660876063e-08 -9.361347963476874e-08 -0.0005964044248685241" pbc="T T T"
Ti       1.48910167       1.05295402       2.57919874       0.00000269       0.00000047       0.00000173
Ti       4.46730308       3.15885971       7.73759719      -0.00000222      -0.00000626       0.00000013
Sb       0.00000063      -0.00000012      -0.00000034      -0.00003469       0.00001230       0.00001739
O        1.56655956       1.10772566       5.15839779       0.00333691       0.00236613       0.00000046
O        4.38984490       3.10408888       5.15839777      -0.00331825      -0.00235462       0.00000194
O        3.68402305       1.10772532       3.93587925      -0.00166383       0.00235248       0.00287497
O        2.27238163       3.10408859       6.38091676       0.00167918      -0.00237203      -0.00289315
O        2.27238186       3.10408934       3.93588003       0.00166669      -0.00235122       0.00288635
O        3.68402415       1.10772478       6.38091608      -0.00166595       0.00235361      -0.00288945
