9
Lattice="6.315883179848485 -3.026641117331289e-08 3.6464769376338855 2.1052943346019894 5.954671974120284 3.646476989847238 -3.7928093995233174e-08 3.712881776396642e-08 7.2929539409611825" Properties=species:S:1:pos:R:3:forces:R:3 energy=-34.86368179321289 free_energy=-34.86368179321289 stress="-3.812928480328992e-05 -2.085143613328455e-08 2.9573214987976826e-09 -2.085143613328455e-08 -3.812424256466329e-05 -7.558336179158687e-09 2.9573214987976826e-09 -7.558336179158687e-09 -3.8109028537292033e-05" pbc="T T T"
Ti       2.10529363       1.48866858       3.64647715      -0.00000414       0.00000181       0.00000153
Ti       6.31588285       4.46600352      10.93943031      -0.00000219      -0.00000249      -0.00000400
Sb       0.00000004      -0.00000004       0.00000028       0.00000013       0.00000134      -0.00000394
Te       2.29229474       1.62089727       7.29295381      -0.00205833      -0.00145430      -0.00000034
Te       6.12888311       4.33377430       7.29295407       0.00206003       0.00145349       0.00000091
Te       5.16973554       1.62089731       5.63166255       0.00102781      -0.00145502      -0.00178336
Te       3.25144212       4.33377442       8.95424538      -0.00102839       0.00145623       0.00178625
Te       3.25144172       4.33377489       5.63166285      -0.00102939       0.00145523      -0.00178169
Te       5.16973620       1.62089770       8.95424505       0.00103443      -0.00145635       0.00178465
