9
Lattice="5.650644724380773 3.559902062018645e-07 3.2624007055472974 1.8835484579810573 5.327479152583893 3.262400911851856 -4.8554333057411e-07 -9.066054281549174e-08 6.524802252080363" Properties=species:S:1:pos:R:3:forces:R:3 energy=-37.925140380859375 free_energy=-37.925140380859375 stress="0.00012206039536977187 -4.025628186354879e-08 3.945306659147718e-08 -4.025628186354879e-08 0.00012217486801091582 2.366488160987501e-08 3.945306659147718e-08 2.366488160987501e-08 0.0001222444698214531" pbc="T T T"
Ti       1.88355856       1.33186289       3.26240036       0.00005255      -0.00003505      -0.00000269
Ti       5.65064466       3.99560450       9.78720202       0.00000271      -0.00002727      -0.00000645
Sb       0.00000002      -0.00000026       0.00000017       0.00000076       0.00000513       0.00000412
Se       2.17952533       1.54116020       6.52480249      -0.00012323      -0.00008139       0.00000173
Se       5.35466320       3.78632544       6.52480251       0.00010142       0.00009918       0.00000094
Se       4.56087885       1.54116026       5.14992502       0.00004742      -0.00007498      -0.00010478
Se       2.97331002       3.78632224       7.89967524      -0.00006473       0.00009397       0.00010452
Se       2.97331085       3.78632075       5.14992757      -0.00006238       0.00008899      -0.00010914
Se       4.56087925       1.54116180       7.89968020       0.00004561      -0.00006846       0.00011155
