9
Lattice="4.872755909337913 4.0697323084102083e-07 2.813286492669893 1.6242523685274664 4.59407830181001 2.813286466602331 2.2121851180203807e-07 1.2449898600787511e-07 5.6265726021780855" Properties=species:S:1:pos:R:3:forces:R:3 energy=-56.724891662597656 free_energy=-56.724891662597656 stress="9.884024620987475e-05 3.606180021265004e-09 5.0508237592339356e-08 3.606180021265004e-09 9.885368490358815e-05 -1.389667225737412e-08 5.0508237592339356e-08 -1.389667225737412e-08 9.893570677377284e-05" pbc="T T T"
Ti       1.62425165       1.14852243       2.81328560      -0.00000148       0.00000971       0.00000008
Ti       4.87275489       3.44556153       8.43986134      -0.00000474       0.00001089       0.00000657
Ta       0.00000154      -0.00000033       0.00000059      -0.00000091       0.00000221      -0.00000094
F        1.62703345       1.15048532       5.62657101       0.00150502       0.00105804      -0.00000234
F        4.86997623       3.44359362       5.62657309      -0.00149918      -0.00106090      -0.00000158
F        4.05923906       1.15048557       4.22233708      -0.00075185       0.00105798       0.00129628
F        2.43776905       3.44359128       7.03080907       0.00074989      -0.00106514      -0.00129676
F        2.43776862       3.44359117       4.22233721       0.00075108      -0.00106478       0.00129700
F        4.05924048       1.15048442       7.03080666      -0.00074828       0.00105196      -0.00129807
