9
Lattice="5.78317307948677 -1.0138973514912912e-08 3.3389165080439422 1.92772437924175 5.4524279056125495 3.33891645786302 3.0139208547486935e-08 -4.014714418701115e-08 6.6778329638852485" Properties=species:S:1:pos:R:3:forces:R:3 energy=-43.24894714355469 free_energy=-43.24894714355469 stress="-2.4095268599921837e-05 -3.033954953934881e-08 3.5768007222714004e-08 -3.033954953934881e-08 -2.4123663024511188e-05 6.240492567144429e-09 3.5768007222714004e-08 6.240492567144429e-09 -2.405452869425062e-05" pbc="T T T"
Ti       1.92772482       1.36310683       3.33891688      -0.00000023      -0.00000131       0.00000073
Ti       5.78317347       4.08932091      10.01675017       0.00000231       0.00000041       0.00000023
Ta      -0.00000020      -0.00000007      -0.00000029      -0.00000346       0.00000138       0.00000043
Cl       1.97993538       1.40002585       6.67783284       0.00045234       0.00032145      -0.00000073
Cl       5.73096160       4.05240215       6.67783289      -0.00045002      -0.00031698      -0.00000171
Cl       4.79320519       1.40002612       5.05359026      -0.00022787       0.00032222       0.00039148
Cl       2.91769222       4.05240192       8.30207541       0.00022599      -0.00032151      -0.00039452
Cl       2.91769195       4.05240217       5.05359084       0.00022644      -0.00032139       0.00039482
Cl       4.79320542       1.40002560       8.30207468      -0.00022495       0.00031537      -0.00039035
