9
Lattice="6.6607164936851575 -6.691300665472109e-08 3.8455664714960687 2.2202387896163804 6.279783668289755 3.8455664343016758 6.940865136555454e-10 -4.5062856395546716e-08 7.691132941789965" Properties=species:S:1:pos:R:3:forces:R:3 energy=-34.8326530456543 free_energy=-34.8326530456543 stress="0.00027272425359115005 -1.153577056101085e-08 2.4874802218022296e-09 -1.153577056101085e-08 0.0002727587416302413 -9.565036540593042e-10 2.4874802218022296e-09 -9.565036540593042e-10 0.00027276406763121486" pbc="T T T"
Ti       2.22023884       1.56994591       3.84556632       0.00000102       0.00000013      -0.00000103
Ti       6.66071652       4.70983701      11.53669944       0.00000007      -0.00000267      -0.00000053
Ta      -0.00000010      -0.00000008      -0.00000010       0.00000180       0.00000374       0.00000138
I        2.25108465       1.59175722       7.69113292       0.00118595       0.00083938       0.00000054
I        6.62987071       4.68802648       7.69113299      -0.00119123      -0.00084202       0.00000037
I        5.53517413       1.59175742       5.79506283      -0.00059259       0.00083928       0.00102660
I        3.34578110       4.68802643       9.58720289       0.00059453      -0.00083925      -0.00102869
I        3.34578113       4.68802649       5.79506320       0.00059383      -0.00083825       0.00102833
I        5.53517413       1.59175734       9.58720295      -0.00059342       0.00083970      -0.00102702
