9
Lattice="5.411268657884234 1.6713227863723251e-07 3.1241977005699795 1.8037563011350282 5.101793733293094 3.124197831744343 -6.97097474466763e-08 1.1136288558023818e-07 6.248395521880639" Properties=species:S:1:pos:R:3:forces:R:3 energy=-38.76062774658203 free_energy=-38.76062774658203 stress="0.00019406162027735263 1.7407259633728245e-08 -1.0485114998459721e-08 1.7407259633728245e-08 0.0001940675574587658 2.6686322041058474e-09 -1.0485114998459721e-08 2.6686322041058474e-09 0.00019403717305976897" pbc="T T T"
Tl       1.80375639       1.27544875       3.12419776       0.00000032      -0.00000008       0.00000020
Tl       5.41126853       3.82634579       9.37259511      -0.00000001      -0.00000008      -0.00000152
As       0.00000005       0.00000005      -0.00000002      -0.00000158       0.00000163       0.00000033
F        1.57256847       1.11197396       6.24839533       0.00012285       0.00008637      -0.00000064
F        5.64245655       3.98981972       6.24839500      -0.00012219      -0.00008634       0.00000077
F        4.62498444       1.11197434       4.48608182      -0.00006250       0.00008705       0.00010818
F        2.59003995       3.98982006       8.01070896       0.00006294      -0.00008786      -0.00010809
F        2.59004070       3.98981968       4.48608174       0.00006202      -0.00008875       0.00010893
F        4.62498439       1.11197359       8.01070867      -0.00006196       0.00008804      -0.00010815
