9
Lattice="6.585298279056439 1.5017422212875467e-10 3.80202387511453 2.195099405851136 6.208678693668821 3.8020239108687512 7.639989990175797e-09 4.919209764873376e-08 7.604047736996156" Properties=species:S:1:pos:R:3:forces:R:3 energy=-24.900856018066406 free_energy=-24.900856018066406 stress="0.0002684413339011371 -1.3771992435351876e-08 -6.8049033075112675e-09 -1.3771992435351876e-08 0.00026845550746656954 6.468719782048993e-09 -6.8049033075112675e-09 6.468719782048993e-09 0.0002684653445612639" pbc="T T T"
Tl       2.19509953       1.55216970       3.80202384      -0.00000006       0.00000014      -0.00000001
Tl       6.58529818       4.65650896      11.40607159       0.00000000      -0.00000001      -0.00000001
As       0.00000006       0.00000021      -0.00000078       0.00000236      -0.00000090       0.00000727
Br       2.15531153       1.52403563       7.60404771      -0.00675094      -0.00477436      -0.00000015
Br       6.62508609       4.68464333       7.60404786       0.00674999       0.00477294      -0.00000035
Br       5.50764222       1.52403601       5.66857901       0.00337679      -0.00477561      -0.00584897
Br       3.27275536       4.68464281       9.53951673      -0.00337601       0.00477479       0.00584716
Br       3.27275534       4.68464276       5.66857920      -0.00337691       0.00477617      -0.00584993
Br       5.50764248       1.52403566       9.53951699       0.00337478      -0.00477315       0.00584505
