9
Lattice="6.765854390379373 1.1772490183419487e-07 3.9062679112562315 2.255284907326346 6.378908628343276 3.906267912051109 -9.926856076624464e-09 -6.045840172967823e-09 7.812535839706226" Properties=species:S:1:pos:R:3:forces:R:3 energy=-19.46486473083496 free_energy=-19.46486473083496 stress="-1.4970424672355875e-05 -1.0867177380191606e-08 -7.77927944284329e-09 -1.0867177380191606e-08 -1.4967173228797037e-05 1.134396310220609e-08 -7.77927944284329e-09 1.134396310220609e-08 -1.495759170211386e-05" pbc="T T T"
Tl       2.25528511       1.59472723       3.90626807      -0.00000020       0.00000018      -0.00000026
Tl       6.76585404       4.78418155      11.71880363       0.00000018      -0.00000018       0.00000039
Au      -0.00000031      -0.00000027       0.00000029       0.00000238       0.00000267      -0.00000122
I        2.35099877       1.66240741       7.81253573       0.00033495       0.00023609       0.00000022
I        6.67014101       4.71650137       7.81253600      -0.00033726      -0.00023767      -0.00000018
I        5.59035522       1.66240665       5.94229215      -0.00016718       0.00023705       0.00028940
I        3.43078415       4.71650209       9.68277935       0.00016668      -0.00023661      -0.00028916
I        3.43078434       4.71650208       5.94229210       0.00016754      -0.00023799       0.00029042
I        5.59035483       1.66240680       9.68277931      -0.00016706       0.00023648      -0.00028960
