9
Lattice="6.97983001053621 -9.28957589192651e-09 4.029806835597583 2.3266099690250206 6.580646903033993 4.029806880161131 -1.6442413043069533e-08 4.295235495629566e-08 8.059613699674196" Properties=species:S:1:pos:R:3:forces:R:3 energy=-21.992477416992188 free_energy=-21.992477416992188 stress="4.9546699301572517e-05 -3.7009344477922923e-09 3.8284819758871436e-09 -3.7009344477922923e-09 4.9554946599528193e-05 -3.644406332270478e-09 3.8284819758871436e-09 -3.644406332270478e-09 4.9545276851858944e-05" pbc="T T T"
Tl       2.32661035       1.64516123       4.02980690       0.00000015      -0.00000044       0.00000034
Tl       6.97982969       4.93548564      12.08942040      -0.00000009       0.00000002      -0.00000043
As      -0.00000039       0.00000006       0.00000033       0.00000386      -0.00000062      -0.00000125
I        2.31954561       1.64016667       8.05961374      -0.00056630      -0.00040011       0.00000021
I        6.98689464       4.94048065       8.05961385       0.00056439       0.00039870      -0.00000040
I        5.82005695       1.64016650       6.03859248       0.00028290      -0.00040031      -0.00048973
I        3.48638303       4.94048006      10.08063454      -0.00028452       0.00040248       0.00049219
I        3.48638292       4.94048024       6.03859264      -0.00028289       0.00040013      -0.00049127
I        5.82005707       1.64016670      10.08063475       0.00028252      -0.00039985       0.00049044
