9
Lattice="6.583267462536502 1.6118314137280835e-09 3.8008513671537463 2.1944224452312104 6.2067645187082965 3.800851443018646 -1.4491256291271516e-07 -9.553478798367594e-09 7.601702985303565" Properties=species:S:1:pos:R:3:forces:R:3 energy=-24.900888442993164 free_energy=-24.900888442993164 stress="0.00021909245697315782 -6.049416079179082e-09 -7.230579690542527e-09 -6.049416079179082e-09 0.0002191140374634415 2.7073816522005245e-09 -7.230579690542527e-09 2.7073816522005245e-09 0.00021910823124926537" pbc="T T T"
Tl       2.19442235       1.55169096       3.80085137      -0.00000008       0.00000054       0.00000012
Tl       6.58326769       4.65507336      11.40255447       0.00000011      -0.00000066      -0.00000018
As      -0.00000029       0.00000054      -0.00000216       0.00000093      -0.00000558       0.00001622
Br       2.15526564       1.52400344       7.60170314      -0.00682784      -0.00482854      -0.00000019
Br       6.62242336       4.68276084       7.60170313       0.00683089       0.00483102      -0.00000080
Br       5.50563443       1.52400371       5.66736722       0.00341606      -0.00483211      -0.00591835
Br       3.27205518       4.68276118       9.53603927      -0.00341398       0.00482805       0.00591247
Br       3.27205563       4.68276091       5.66736711      -0.00341743       0.00483337      -0.00591934
Br       5.50563511       1.52400304       9.53603979       0.00341146      -0.00482619       0.00591015
