9
Lattice="5.410544053640268 2.853115689572097e-08 3.123779071790527 1.8035146809441587 5.101109883923891 3.1237791246214113 1.234201650826923e-10 6.479175650173847e-08 6.247558143367217" Properties=species:S:1:pos:R:3:forces:R:3 energy=-38.76063919067383 free_energy=-38.76063919067383 stress="0.00011198509309906512 -2.4912627516471275e-09 -2.7555493886666227e-08 -2.4912627516471275e-09 0.00011201277811778709 6.9392784851629585e-09 -2.7555493886666227e-08 6.9392784851629585e-09 0.00011201232700841501" pbc="T T T"
Tl       1.80351509       1.27527749       3.12377885      -0.00000010      -0.00000022       0.00000025
Tl       5.41054403       3.82583241       9.37133713       0.00000002       0.00000027       0.00000019
As      -0.00000009       0.00000004       0.00000017       0.00000010      -0.00000346       0.00000324
F        1.57239457       1.11185112       6.24755814       0.00160819       0.00113708      -0.00000031
F        5.64166402       3.98925910       6.24755822      -0.00160748      -0.00113669      -0.00000060
F        4.62434649       1.11185095       4.48551285      -0.00080380       0.00113758       0.00139233
F        2.58971220       3.98925871       8.00960326       0.00080395      -0.00113618      -0.00139293
F        2.58971194       3.98925900       4.48551292       0.00080442      -0.00113675       0.00139269
F        4.62434655       1.11185097       8.00960380      -0.00080499       0.00113845      -0.00139520
