9
Lattice="6.307730460522738 -2.116653948957934e-08 3.6417698786077306 2.1025767473402572 5.946985429540215 3.6417699701949946 -2.2048687532821487e-08 9.658025977273206e-08 7.283539795404965" Properties=species:S:1:pos:R:3:forces:R:3 energy=-21.494815826416016 free_energy=-21.494815826416016 stress="-1.2284370313864201e-05 6.876490044049888e-09 -5.827896387700093e-09 6.876490044049888e-09 -1.2282890565984417e-05 5.999763796893376e-09 -5.827896387700093e-09 5.999763796893376e-09 -1.228927885676967e-05" pbc="T T T"
Tl       2.10257688       1.48674629       3.64176989       0.00000016       0.00000009       0.00000003
Tl       6.30773027       4.46023916      10.92530981       0.00000013      -0.00000007       0.00000005
Au       0.00000096      -0.00000007       0.00000125      -0.00001120       0.00000087      -0.00001411
Br       2.16166625       1.52852885       7.28353967      -0.00315370      -0.00223041       0.00000085
Br       6.24864070       4.41845644       7.28353956       0.00315969       0.00223395       0.00000053
Br       5.22689711       1.52852908       5.51382792       0.00157838      -0.00223137      -0.00273181
Br       3.18340987       4.41845652       9.05325150      -0.00157820       0.00223237       0.00273609
Br       3.18340968       4.41845667       5.51382764      -0.00157574       0.00222927      -0.00272974
Br       5.22689704       1.52852914       9.05325130       0.00158045      -0.00223482       0.00273809
