9
Lattice="5.338405424365533 -6.518518738631698e-08 3.082129581946291 1.779468456224765 5.033096662609645 3.0821295076527 1.0288739558282471e-08 -8.37154262322596e-08 6.164259146072025" Properties=species:S:1:pos:R:3:forces:R:3 energy=-31.00426483154297 free_energy=-31.00426483154297 stress="-0.00011338471813360229 -1.1788860554418079e-08 9.610368501000721e-09 -1.1788860554418079e-08 -0.00011342388461343944 -2.0661117261511208e-08 9.610368501000721e-09 -2.0661117261511208e-08 -0.0001133808254962787" pbc="T T T"
Tl       1.77946884       1.25827414       3.08212918       0.00000087      -0.00000046       0.00000048
Tl       5.33840545       3.77482271       9.24638856       0.00000021       0.00000058      -0.00000011
Ag       0.00000002      -0.00000004       0.00000026      -0.00000554      -0.00000189      -0.00000699
F        1.67771639       1.18632446       6.16425929       0.00342613       0.00242311       0.00000073
F        5.44015753       3.84677194       6.16425918      -0.00342315      -0.00242019       0.00000025
F        4.49954672       1.18632448       4.53507459      -0.00171316       0.00242245       0.00296652
F        2.61832701       3.84677204       7.79344350       0.00171208      -0.00242084      -0.00296468
F        2.61832655       3.84677170       4.53507470       0.00171307      -0.00242251       0.00296730
F        4.49954712       1.18632472       7.79344334      -0.00171098       0.00241977      -0.00296336
