9
Lattice="6.194186007784472 1.5609586876813407e-08 3.576215010400212 2.064728699401158 5.839934438707993 3.5762149836871293 5.75930474131811e-08 8.0077694277225e-09 7.152429921046341" Properties=species:S:1:pos:R:3:forces:R:3 energy=-23.21563720703125 free_energy=-23.21563720703125 stress="0.00015573458222206682 5.161204796877428e-09 3.3976994551210282e-09 5.161204796877428e-09 0.00015573235577903688 -9.276936552282677e-09 3.3976994551210282e-09 -9.276936552282677e-09 0.00015573855489492416" pbc="T T T"
Tl       2.06472845       1.45998371       3.57621500      -0.00000008      -0.00000024      -0.00000002
Tl       6.19418604       4.37995082      10.72864509       0.00000007       0.00000027       0.00000012
Ag       0.00000054      -0.00000025      -0.00000096      -0.00000600       0.00000868       0.00001311
Cl       1.99841290       1.41309122       7.15242985      -0.00044790      -0.00031629      -0.00000012
Cl       6.26050272       4.42684329       7.15242999       0.00044569       0.00031507      -0.00000072
Cl       5.19497925       1.41309134       5.30689202       0.00022680      -0.00032008      -0.00039265
Cl       3.06393462       4.42684403       8.99796879      -0.00021902       0.00031096       0.00038141
Cl       3.06393494       4.42684310       5.30689173      -0.00022358       0.00031665      -0.00038868
Cl       5.19497964       1.41309068       8.99796810       0.00022416      -0.00031486       0.00038767
