9
Lattice="6.2804890994515 -1.4609316624107453e-07 3.6260425670066754 2.0934963208910338 5.921301248779747 3.6260424074066475 1.4216236357089086e-07 -9.494532745335203e-08 7.25208488778093" Properties=species:S:1:pos:R:3:forces:R:3 energy=-27.724021911621094 free_energy=-27.724021911621094 stress="0.00012287835124880075 -2.835263579470393e-09 2.9668802969951003e-09 -2.835263579470393e-09 0.00012284243712201715 1.2814502348135193e-08 2.9668802969951003e-09 1.2814502348135193e-08 0.00012285639240872115" pbc="T T T"
Tl       2.09349661       1.48032528       3.62604271      -0.00000027      -0.00000024       0.00000013
Tl       6.28048905       4.44097571      10.87812779       0.00000021       0.00000040      -0.00000007
As      -0.00000033       0.00000100      -0.00000016       0.00000090      -0.00000455       0.00000017
Cl       2.01057747       1.42169203       7.25208524      -0.00191504      -0.00135341      -0.00000033
Cl       6.36340763       4.49960848       7.25208550       0.00191751       0.00135554      -0.00000109
Cl       5.27520089       1.42169209       5.36725311       0.00095749      -0.00135309      -0.00165874
Cl       3.09878504       4.49960843       9.13691618      -0.00095893       0.00135523       0.00166073
Cl       3.09878517       4.49960883       5.36725350      -0.00095901       0.00135392      -0.00166035
Cl       5.27520076       1.42169222       9.13691572       0.00095724      -0.00135374       0.00165966
