9
Lattice="5.322600080933793 7.068580018524264e-08 3.073004470337506 1.7742001069381776 5.018195108636378 3.073004447271634 3.002021208000627e-08 -7.022273531159459e-09 6.146008888678467" Properties=species:S:1:pos:R:3:forces:R:3 energy=-31.951250076293945 free_energy=-31.951250076293945 stress="-0.00032816140446811914 3.047939400868671e-10 -2.6561339794284322e-09 3.047939400868671e-10 -0.00032818233012221754 6.676473152111839e-09 -2.6561339794284322e-09 6.676473152111839e-09 -0.0003281578538008034" pbc="T T T"
Tl       1.77420008       1.25454874       3.07300458      -0.00000005      -0.00000036      -0.00000019
Tl       5.32260005       3.76364631       9.21901347      -0.00000025       0.00000002       0.00000032
Au       0.00000029       0.00000002      -0.00000038      -0.00000077       0.00000018       0.00001938
F        1.66705275       1.17878418       6.14600904       0.00556697       0.00393674      -0.00000095
F        5.42974782       3.83941110       6.14600894      -0.00556865      -0.00393745      -0.00000113
F        4.48907394       1.17878370       4.51671406      -0.00278162       0.00393489       0.00481755
F        2.60772614       3.83941124       7.77530383       0.00278651      -0.00393933      -0.00482614
F        2.60772606       3.83941131       4.51671390       0.00278294      -0.00393461       0.00481763
F        4.48907381       1.17878392       7.77530368      -0.00278524       0.00393984      -0.00482617
