9
Lattice="6.432290958297215 2.083113580439816e-07 3.7136847313146935 2.1440971333429046 6.064422074545094 3.7136848164519236 -6.328989894841536e-08 5.9518664411242176e-08 7.427369572250713" Properties=species:S:1:pos:R:3:forces:R:3 energy=-28.076881408691406 free_energy=-28.076881408691406 stress="0.00012303928087931126 5.013097137407385e-08 -1.985798370185421e-08 5.013097137407385e-08 0.00012301665265113115 1.1465845162206278e-08 -1.985798370185421e-08 1.1465845162206278e-08 0.00012297833745833486" pbc="T T T"
Tl       2.14409708       1.51610560       3.71368474      -0.00000026       0.00000047      -0.00000010
Tl       6.43229092       4.54831678      11.14105439       0.00000015       0.00000006       0.00000012
Bi       0.00000071       0.00000078       0.00000040      -0.00000738      -0.00001072      -0.00000569
Cl       2.16757560       1.53270731       7.42736973      -0.00136060      -0.00096141       0.00000044
Cl       6.40881182       4.53171421       7.42736959       0.00136828       0.00096780       0.00000025
Cl       5.34850346       1.53270720       5.59085992       0.00067912      -0.00095935      -0.00117618
Cl       3.22788466       4.53171485       9.26387897      -0.00068043       0.00096364       0.00117861
Cl       3.22788441       4.53171541       5.59085963      -0.00067836       0.00095966      -0.00117433
Cl       5.34850336       1.53270736       9.26387909       0.00067948      -0.00096007       0.00117682
