9
Lattice="6.757393156048503 8.464734447155669e-09 3.9013827520001825 2.2524643786169216 6.370931465289504 3.9013827774842036 -2.994366869934177e-08 1.003805278069205e-08 7.802765555864314" Properties=species:S:1:pos:R:3:forces:R:3 energy=-21.279096603393555 free_energy=-21.279096603393555 stress="-8.281262853415683e-05 3.28597415943932e-09 3.305530293928882e-09 3.28597415943932e-09 -8.280850306618959e-05 -3.286874550312291e-09 3.305530293928882e-09 -3.286874550312291e-09 -8.281038753921166e-05" pbc="T T T"
Tl       2.25246437       1.59273286       3.90138276      -0.00000008      -0.00000002      -0.00000014
Tl       6.75739311       4.77819864      11.70414831      -0.00000014      -0.00000005       0.00000035
Be       0.00000003       0.00000002      -0.00000001       0.00000009      -0.00000018      -0.00000087
I        2.12824514       1.50489661       7.80276560      -0.00212624      -0.00150282       0.00000004
I        6.88161232       4.86603485       7.80276556       0.00212573       0.00150299      -0.00000012
I        5.69327057       1.50489658       5.74449717       0.00106309      -0.00150344      -0.00184155
I        3.31658699       4.86603485       9.86103387      -0.00106300       0.00150409       0.00184191
I        3.31658696       4.86603485       5.74449723      -0.00106305       0.00150365      -0.00184149
I        5.69327052       1.50489668       9.86103384       0.00106345      -0.00150413       0.00184167
