9
Lattice="6.699201557871191 -7.787706358091426e-08 3.867785809823777 2.233067022420465 6.316067969918111 3.8677859659046425 -1.232784919862964e-07 1.0398813507787105e-07 7.7355718331722425" Properties=species:S:1:pos:R:3:forces:R:3 energy=-25.18195152282715 free_energy=-25.18195152282715 stress="6.206017860677093e-05 -2.1272093420066085e-08 -1.7863440504584105e-08 -2.1272093420066085e-08 6.208281411090866e-05 2.50844021110197e-08 -1.7863440504584105e-08 2.50844021110197e-08 6.208849663380533e-05" pbc="T T T"
Tl       2.23306726       1.57901698       3.86778590       0.00000015       0.00000032      -0.00000003
Tl       6.69920129       4.73705094      11.60335746      -0.00000013      -0.00000027      -0.00000019
Bi      -0.00000159      -0.00000041      -0.00000060       0.00001348       0.00000531       0.00000675
Br       2.31887375       1.63969159       7.73557203      -0.00037527      -0.00026552      -0.00000037
Br       6.61339626       4.67637751       7.73557188       0.00036484       0.00025818      -0.00000036
Br       5.53976437       1.63969147       5.87598985       0.00018676      -0.00026513      -0.00032443
Br       3.39250397       4.67637628       9.59515381      -0.00018701       0.00026423       0.00032294
Br       3.39250391       4.67637650       5.87598960      -0.00018697       0.00026387      -0.00032356
Br       5.53976458       1.63969123       9.59515453       0.00018419      -0.00026092       0.00031920
