9
Lattice="5.623739714495974 4.9377528862429606e-08 3.2468675449504394 1.874579949760553 5.302112511718308 3.2468675477651736 1.4284555743405028e-08 1.3548019271411408e-08 6.493735065159243" Properties=species:S:1:pos:R:3:forces:R:3 energy=-37.940269470214844 free_energy=-37.940269470214844 stress="0.00014143090811558068 2.0570411152220913e-08 -5.245358636329911e-08 2.0570411152220913e-08 0.00014145165914669633 5.9280825581708996e-08 -5.245358636329911e-08 5.9280825581708996e-08 0.0001413757709087804" pbc="T T T"
Tl       1.87457972       1.32552801       3.24686713       0.00000009       0.00000040      -0.00000026
Tl       5.62373972       3.97658457       9.74060240      -0.00000002       0.00000037      -0.00000075
Bi       0.00000007      -0.00000004       0.00000005       0.00000072       0.00000436      -0.00000681
F        1.77820725       1.25738264       6.49373560      -0.00044566      -0.00031495      -0.00000084
F        5.72011268       4.04473031       6.49373541       0.00044316       0.00031281       0.00000039
F        4.73463636       1.25738191       4.78683995       0.00022247      -0.00031507      -0.00038326
F        2.76368384       4.04472973       8.20063009      -0.00022209       0.00031519       0.00038594
F        2.76368302       4.04473070       4.78683959      -0.00021899       0.00031006      -0.00037807
F        4.73463606       1.25738250       8.20063031       0.00022084      -0.00031298       0.00038368
