9
Lattice="6.741693124735816 -5.994713371881764e-08 3.8923184084515943 2.2472309382139475 6.356129419566127 3.8923184895912883 -5.5983943263876146e-08 5.978888940318524e-08 7.784636913870204" Properties=species:S:1:pos:R:3:forces:R:3 energy=-21.373563766479492 free_energy=-21.373563766479492 stress="3.954067506128922e-05 -1.8591896910891137e-09 -4.333612135809517e-09 -1.8591896910891137e-09 3.9551276131533086e-05 -3.244437385419019e-09 -4.333612135809517e-09 -3.244437385419019e-09 3.955597276217304e-05" pbc="T T T"
Tl       2.24723142       1.58903247       3.89231837       0.00000013       0.00000035       0.00000029
Tl       6.74169320       4.76709718      11.67695548       0.00000032      -0.00000016      -0.00000007
B       -0.00000013       0.00000000       0.00000054      -0.00000022       0.00000112      -0.00000033
I        2.02323497       1.43064357       7.78463601      -0.00067681      -0.00048047       0.00000292
I        6.96568868       4.92548596       7.78463599       0.00067632       0.00047857       0.00000145
I        5.73007536       1.43064327       5.64449167       0.00034041      -0.00048134      -0.00058718
I        3.25884826       4.92548676       9.92478251      -0.00033703       0.00047674       0.00058647
I        3.25884804       4.92548467       5.64449214      -0.00033933       0.00048201      -0.00058837
I        5.73007633       1.43064360       9.92478259       0.00033626      -0.00047680       0.00058485
