9
Lattice="6.7102588692965215 -1.2854648702573338e-07 3.8741701272534934 2.236752924853378 6.326493239244275 3.874169972034017 6.530027277307727e-08 -1.4392995143959604e-07 7.748340141403614" Properties=species:S:1:pos:R:3:forces:R:3 energy=-27.53980255126953 free_energy=-27.53980255126953 stress="-0.00014901843678671867 6.167160560011098e-09 1.2286495154611998e-09 6.167160560011098e-09 -0.00014902855036780238 -9.347561835681972e-09 1.2286495154611998e-09 -9.347561835681972e-09 -0.00014903213013894856" pbc="T T T"
Tl       2.23675300       1.58162325       3.87416998      -0.00000004      -0.00000008       0.00000022
Tl       6.71025883       4.74486922      11.62251008      -0.00000010       0.00000004      -0.00000001
Ba       0.00000014      -0.00000002       0.00000064      -0.00000218       0.00000188      -0.00000396
Cl       2.43517848       1.72193058       7.74834042       0.00086309       0.00061159      -0.00000000
Cl       6.51183350       4.60456210       7.74834015      -0.00086348      -0.00061092       0.00000035
Cl       5.49266913       1.72193077       5.98309669      -0.00043160       0.00061145       0.00074789
Cl       3.45434177       4.60456224       9.51358398       0.00043184      -0.00061163      -0.00074878
Cl       3.45434250       4.60456246       5.98309552       0.00043253      -0.00061204       0.00074993
Cl       5.49267010       1.72193130       9.51358348      -0.00043005       0.00060971      -0.00074545
