9
Lattice="6.486335906472814 8.855448188258097e-08 3.744887962318445 2.1621120223936257 6.115375923584146 3.744888014142519 1.3110445504252562e-07 1.5617615795288276e-07 7.489775697557032" Properties=species:S:1:pos:R:3:forces:R:3 energy=-25.121231079101562 free_energy=-25.121231079101562 stress="-0.00017409298743586987 1.0440341036144218e-08 -2.9079394892050914e-08 1.0440341036144218e-08 -0.00017412558372598141 -2.1512390091515954e-08 -2.9079394892050914e-08 -2.1512390091515954e-08 -0.00017408220446668565" pbc="T T T"
Tl       2.16211211       1.52884382       3.74488802       0.00000018      -0.00000036       0.00000026
Tl       6.48633601       4.58653218      11.23466363       0.00000021       0.00000012      -0.00000026
B       -0.00000040       0.00000045       0.00000063      -0.00000124       0.00000215       0.00000043
Br       1.83911123       1.30044776       7.48977495       0.00692521       0.00489691       0.00000304
Br       6.80933685       4.81492855       7.48977663      -0.00692432      -0.00489840      -0.00000210
Br       5.56678007       1.30044763       5.33760482      -0.00346091       0.00489820       0.00599688
Br       3.08166814       4.81492869       9.64194666       0.00346158      -0.00490010      -0.00599621
Br       3.08166737       4.81492780       5.33760545       0.00346375      -0.00489609       0.00599550
Br       5.56678089       1.30044781       9.64194639      -0.00346449       0.00489749      -0.00599748
