9
Lattice="6.698939909670834 3.649571179062885e-08 3.8676346466091585 2.232980131997579 6.31582073283257 3.8676344254283666 1.121737987794786e-07 -1.9157116838102802e-07 7.735269098927542" Properties=species:S:1:pos:R:3:forces:R:3 energy=-25.18195152282715 free_energy=-25.18195152282715 stress="7.882831414462999e-05 2.07059223100714e-08 1.330108245767292e-09 2.07059223100714e-08 7.881591591285542e-05 -5.0978843368909565e-09 1.330108245767292e-09 -5.0978843368909565e-09 7.879445911385119e-05" pbc="T T T"
Tl       2.23298043       1.57895539       3.86763439      -0.00000005       0.00000008      -0.00000020
Tl       6.69893980       4.73686531      11.60290397       0.00000029       0.00000026       0.00000030
Bi       0.00000178      -0.00000010      -0.00000081      -0.00001338       0.00000038       0.00000728
Br       2.31912815       1.63987085       7.73526903      -0.00198150      -0.00140131      -0.00000037
Br       6.61279110       4.67594906       7.73526903       0.00198980       0.00140662      -0.00000051
Br       5.53937561       1.63987135       5.87605856       0.00099348      -0.00140483      -0.00172050
Br       3.39254395       4.67594979       9.59448036      -0.00098953       0.00139942       0.00171429
Br       3.39254415       4.67594957       5.87605813      -0.00099116       0.00140202      -0.00171773
Br       5.53937567       1.63987107       9.59447998       0.00099193      -0.00140274       0.00171748
