9
Lattice="6.144952185769645 1.844456667284509e-07 3.5477904283805306 2.0483175923610273 5.793517636875948 3.5477903881840467 2.789796021529244e-07 1.4803796281003088e-07 7.09558037355406" Properties=species:S:1:pos:R:3:forces:R:3 energy=-28.38873863220215 free_energy=-28.38873863220215 stress="0.00020762084750458598 6.394044760327233e-08 4.544944331996703e-08 6.394044760327233e-08 0.00020798073092009872 4.696595468089981e-08 4.544944331996703e-08 4.696595468089981e-08 0.00020778807811439037" pbc="T T T"
Tl       2.04831737       1.44837978       3.54779036       0.00000005      -0.00000058       0.00000005
Tl       6.14495271       4.34513849      10.64337089      -0.00000043       0.00000022      -0.00000002
B       -0.00000496       0.00000086      -0.00000167      -0.00003734      -0.00000541      -0.00000658
Cl       1.68992804       1.19496036       7.09558195      -0.00235994      -0.00167798      -0.00000740
Cl       6.50334652       4.59855850       7.09558139       0.00236668       0.00169024      -0.00000017
Cl       5.29999043       1.19495949       5.01131025       0.00118107      -0.00167802      -0.00205733
Cl       2.89328024       4.59855757       9.17985136      -0.00117239       0.00168449       0.00204651
Cl       2.89328042       4.59855773       5.01130989      -0.00117010       0.00167212      -0.00204021
Cl       5.29998986       1.19495926       9.17985021       0.00119225      -0.00168508       0.00206566
