9
Lattice="5.155913539272329 -3.5473865918928674e-07 2.9767683930201647 1.7186375788337034 4.861041912211479 2.976768277214465 -2.310454462543747e-07 -3.052062148897202e-07 5.953537186222681" Properties=species:S:1:pos:R:3:forces:R:3 energy=-40.806495666503906 free_energy=-40.806495666503906 stress="-1.9603279724833556e-05 8.622447644768272e-09 1.3103221618848693e-08 8.622447644768272e-09 -1.950571095221676e-05 -3.944468218719521e-08 1.3103221618848693e-08 -3.944468218719521e-08 -1.9382678146939725e-05" pbc="T T T"
Tl       1.71863754       1.21526003       2.97676808      -0.00000048       0.00000026       0.00000083
Tl       5.15591357       3.64578084       8.93030627      -0.00000025       0.00000011       0.00000028
B       -0.00000041       0.00000030       0.00000024      -0.00000195      -0.00000093       0.00000045
F        1.32869869       0.93953190       5.95353724       0.00331473       0.00233996      -0.00000308
F        5.54585218       3.92150967       5.95353678      -0.00331068      -0.00234121      -0.00000040
F        4.49156406       0.93953141       4.12745546      -0.00165898       0.00234365       0.00287056
F        2.38298675       3.92150941       7.77961799       0.00165766      -0.00234079      -0.00286555
F        2.38298716       3.92150988       4.12745570       0.00165570      -0.00234056       0.00286496
F        4.49156385       0.93953126       7.77961814      -0.00165540       0.00234038      -0.00286841
