9
Lattice="6.93729125232846 2.6377326653957314e-07 4.005246876625415 2.3124306485483173 6.54054073419314 4.005246907078851 1.6858268324571402e-07 1.565036762052236e-07 8.01049346125705" Properties=species:S:1:pos:R:3:forces:R:3 energy=-25.426664352416992 free_energy=-25.426664352416992 stress="-3.637509871623479e-05 2.660014963851154e-08 -1.6753402221070246e-08 2.660014963851154e-08 -3.6401044781086966e-05 1.2301524243696349e-08 -1.6753402221070246e-08 1.2301524243696349e-08 -3.641432340373285e-05" pbc="T T T"
Tl       2.31243055       1.63513509       4.00524682      -0.00000011      -0.00000046       0.00000129
Tl       6.93729170       4.90540596      12.01574035      -0.00000017       0.00000009       0.00000056
Ba       0.00000048       0.00000014       0.00000326      -0.00000408      -0.00000189      -0.00001726
Br       2.55211040       1.80461446       8.01049244      -0.00654633      -0.00462840       0.00000142
Br       6.69761086       4.73592611       8.01049296       0.00655061       0.00463144      -0.00000091
Br       5.66123589       1.80461453       6.21543879       0.00327314      -0.00462641      -0.00566673
Br       3.58848612       4.73592677       9.80554784      -0.00327690       0.00463167       0.00567378
Br       3.58848555       4.73592636       6.21543891      -0.00327042       0.00462611      -0.00566517
Br       5.66123679       1.80461520       9.80554761       0.00327430      -0.00463215       0.00567302
