9
Lattice="7.162623975766991 -6.015062739777695e-08 4.135342944360906 2.3875412811434344 6.752986620640541 4.135342922539913 3.7027037184274995e-08 -5.429844008890466e-10 8.27068582458901" Properties=species:S:1:pos:R:3:forces:R:3 energy=-22.07836151123047 free_energy=-22.07836151123047 stress="0.00011110644118161872 1.2822869432937978e-09 5.515241152664885e-09 1.2822869432937978e-09 0.00011109988554380834 -8.402617268643553e-09 5.515241152664885e-09 -8.402617268643553e-09 0.00011112027277704328" pbc="T T T"
Tl       2.38754119       1.68824637       4.13534314      -0.00000053       0.00000011      -0.00000005
Tl       7.16262409       5.06474008      12.40602829       0.00000044      -0.00000004      -0.00000007
Bi      -0.00000018      -0.00000030      -0.00000015       0.00000125       0.00000304      -0.00000162
I        2.49897828       1.76704447       8.27068624      -0.00280362      -0.00198132      -0.00000027
I        7.05118745       4.98594245       8.27068614       0.00280102       0.00197913       0.00000007
I        5.91313520       1.76704404       6.29952135       0.00140040      -0.00198014      -0.00242640
I        3.63703036       4.98594223      10.24185027      -0.00140054       0.00198062       0.00242689
I        3.63703006       4.98594254       6.29952144      -0.00139976       0.00198050      -0.00242674
I        5.91313476       1.76704435      10.24185005       0.00140134      -0.00198184       0.00242813
