9
Lattice="6.362867433864242 -3.544356546607867e-08 3.673603394607273 2.1209557639416725 5.998968963731908 3.6736034187347224 -3.0896193275603973e-08 7.702814437408623e-09 7.347206842728558" Properties=species:S:1:pos:R:3:forces:R:3 energy=-24.008188247680664 free_energy=-24.008188247680664 stress="6.844748895673547e-06 -1.9344641166707532e-10 -2.5191271291191697e-09 -1.9344641166707532e-10 6.85793929733336e-06 3.3189251347209847e-09 -2.5191271291191697e-09 3.3189251347209847e-09 6.8455196924332995e-06" pbc="T T T"
Tl       2.12095583       1.49974226       3.67360344       0.00000007      -0.00000005      -0.00000016
Tl       6.36286735       4.49922669      11.02081026      -0.00000009      -0.00000010       0.00000006
Be       0.00000023       0.00000013       0.00000034      -0.00000004      -0.00000015      -0.00000015
Br       2.00585461       1.41835359       7.34720672       0.00525877       0.00371794       0.00000066
Br       6.47796856       4.58061557       7.34720638      -0.00525871      -0.00371830       0.00000081
Br       5.35993992       1.41835357       5.41072463      -0.00262862       0.00371732       0.00455409
Br       3.12388300       4.58061554       9.28368913       0.00262983      -0.00371844      -0.00455427
Br       3.12388321       4.58061520       5.41072461       0.00262897      -0.00371695       0.00455338
Br       5.35993983       1.41835322       9.28368911      -0.00262989       0.00371879      -0.00455472
