9
Lattice="6.223881008457779 -1.2292048227364762e-06 3.5933577110808845 2.0746257438937583 5.8679328924870395 3.593357884320618 1.6067558270684e-07 3.2578919812337936e-07 7.1867151438635775" Properties=species:S:1:pos:R:3:forces:R:3 energy=-26.16204261779785 free_energy=-26.16204261779785 stress="4.789439481100999e-05 1.5062607827687202e-09 -8.922822480883497e-09 1.5062607827687202e-09 4.786533827427775e-05 3.1803979450018005e-09 -8.922822480883497e-09 3.1803979450018005e-09 4.7896024625515565e-05" pbc="T T T"
Tl       2.07462740       1.46698388       3.59335816      -0.00000017       0.00000001       0.00000011
Tl       6.22387895       4.40094740      10.78007542       0.00000019      -0.00000018       0.00000015
Be      -0.00000016       0.00000033       0.00000005       0.00000007       0.00000001       0.00000072
Cl       1.91700809       1.35552680       7.18671430       0.00693494       0.00490400       0.00000005
Cl       6.38149727       4.51240683       7.18671533      -0.00693268      -0.00490376      -0.00000151
Cl       5.26538010       1.35552687       5.25353425      -0.00346804       0.00490654       0.00600380
Cl       3.03312785       4.51240430       9.11989598       0.00346628      -0.00490549      -0.00600415
Cl       3.03312717       4.51240421       5.25353351       0.00346786      -0.00490639       0.00600448
Cl       5.26538030       1.35552761       9.11989544      -0.00346813       0.00490516      -0.00600359
