9
Lattice="4.560129878346161 -5.840637617640768e-08 2.632792150209995 1.5200432411600209 4.299331665876692 2.6327921442447697 -5.864521579371273e-08 -4.8774312883959015e-08 5.265584401996461" Properties=species:S:1:pos:R:3:forces:R:3 energy=-37.70741271972656 free_energy=-37.70741271972656 stress="-0.00022924090444575995 -7.471321339380665e-09 2.125090503568572e-08 -7.471321339380665e-09 -0.00022926792735233903 9.51408507532392e-10 2.125090503568572e-08 9.51408507532392e-10 -0.0002293518336955458" pbc="T T T"
Tl       1.52004306       1.07483312       2.63279242       0.00000018      -0.00000029       0.00000126
Tl       4.56013009       3.22449857       7.89837672       0.00000051      -0.00000008       0.00000152
Be       0.00000020      -0.00000012       0.00000002      -0.00000104       0.00000200       0.00000020
F        1.43928680       1.01772937       5.26558423      -0.00552356      -0.00390291       0.00000037
F        4.64088638       3.28160220       5.26558413       0.00552028       0.00390196       0.00000143
F        3.84048615       1.01772931       3.87925101       0.00276250      -0.00390503      -0.00478345
F        2.23968657       3.28160232       6.65191751      -0.00275898       0.00390100       0.00477999
F        2.23968663       3.28160219       3.87925094      -0.00276151       0.00390545      -0.00478357
F        3.84048637       1.01772921       6.65191767       0.00276107      -0.00390196       0.00478214
