9
Lattice="6.4311127512133694 -7.991631182334164e-08 3.713004778529627 2.1437041882364563 6.063311118750262 3.713004755704968 5.905501908863695e-08 1.380390441698935e-08 7.4260094547730295" Properties=species:S:1:pos:R:3:forces:R:3 energy=-28.076894760131836 free_energy=-28.076894760131836 stress="6.360066618071869e-05 -1.6414210435300447e-08 -3.86347220882044e-09 -1.6414210435300447e-08 6.362843123497441e-05 2.131141485506305e-08 -3.86347220882044e-09 2.131141485506305e-08 6.364687578752637e-05" pbc="T T T"
Tl       2.14370406       1.51582774       3.71300471       0.00000005      -0.00000009       0.00000050
Tl       6.43111288       4.54748335      11.13901439      -0.00000004       0.00000013      -0.00000030
Bi       0.00000025       0.00000014       0.00000030      -0.00000313      -0.00000334      -0.00000720
Cl       2.16730288       1.53251466       7.42600937      -0.00028017      -0.00019702       0.00000143
Cl       6.40751409       4.53079647       7.42600968       0.00028211       0.00019920      -0.00000020
Cl       5.34746096       1.53251451       5.58994433       0.00014241      -0.00019874      -0.00024414
Cl       3.22735608       4.53079624       9.26207444      -0.00014237       0.00020133       0.00024664
Cl       3.22735570       4.53079617       5.58994448      -0.00014129       0.00019984      -0.00024304
Cl       5.34746114       1.53251492       9.26207415       0.00014253      -0.00020130       0.00024639
