9
Lattice="7.387601157189547 2.755852616313366e-07 4.2652332686093395 2.4625340687857085 6.965096889618145 4.265233112901043 5.05912688556705e-08 -1.5492952759730588e-07 8.53046644959209" Properties=species:S:1:pos:R:3:forces:R:3 energy=-22.829376220703125 free_energy=-22.829376220703125 stress="1.2908549251733348e-05 1.5267845654420853e-08 2.8821096620390563e-09 1.5267845654420853e-08 1.2907340533274692e-05 -8.104067639180812e-09 2.8821096620390563e-09 -8.104067639180812e-09 1.2891026017314289e-05" pbc="T T T"
Tl       2.46253408       1.74127422       4.26523339      -0.00000044       0.00000008       0.00000024
Tl       7.38760111       5.22382286      12.79569923      -0.00000034      -0.00000031       0.00000002
Ba       0.00000012       0.00000007      -0.00000157      -0.00000190      -0.00000158       0.00001111
I        2.71700414       1.92121239       8.53046674      -0.00035463      -0.00025094       0.00000049
I        7.13313063       5.04388427       8.53046558       0.00035767       0.00025298       0.00000047
I        6.02909876       1.92121266       6.61822833       0.00017872      -0.00025347      -0.00030963
I        3.82103598       5.04388556      10.44270561      -0.00017498       0.00024821       0.00030382
I        3.82103684       5.04388393       6.61822864      -0.00017974       0.00025374      -0.00031114
I        6.02909943       1.92121201      10.44270534       0.00017564      -0.00024870       0.00030458
