9
Lattice="5.425934899372794 -3.5234353214517816e-07 3.132664971635317 1.8086448257906265 5.115619533377658 3.132664639903259 -3.144783419498315e-08 -4.285242836465001e-07 6.265329997739895" Properties=species:S:1:pos:R:3:forces:R:3 energy=-30.710731506347656 free_energy=-30.710731506347656 stress="-0.00019946163229178637 1.1429932555984124e-09 2.9565093484507088e-08 1.1429932555984124e-09 -0.00019951052672695369 -2.7513360478792492e-08 2.9565093484507088e-08 -2.7513360478792492e-08 -0.00019938968762289733" pbc="T T T"
Tl       1.80864409       1.27890429       3.13266497      -0.00000286      -0.00000169       0.00000158
Tl       5.42593469       3.83671309       9.39799453       0.00000061      -0.00000231      -0.00000067
Cd      -0.00000012      -0.00000037       0.00000008      -0.00000121       0.00000374       0.00000148
F        1.81248311       1.28161810       6.26532949       0.00403315       0.00285220      -0.00000019
F        5.42209605       3.83400030       6.26533028      -0.00403416      -0.00285172      -0.00000198
F        4.51969441       1.28161800       4.70232083      -0.00201508       0.00285506       0.00349677
F        2.71488555       3.83400120       7.82833855       0.00201768      -0.00285590      -0.00349873
F        2.71488642       3.83400116       4.70232066       0.00201863      -0.00285453       0.00349611
F        4.51969418       1.28161839       7.82833887      -0.00201705       0.00285530      -0.00349396
