9
Lattice="6.8432928789207566 5.322877830627822e-07 3.9509768552376237 2.281097946188986 6.451918890774532 3.9509771704079286 -1.0284333308360773e-07 3.132819469507446e-07 7.901953888605153" Properties=species:S:1:pos:R:3:forces:R:3 energy=-27.87430191040039 free_energy=-27.87430191040039 stress="-9.25739950616844e-05 9.123248823073027e-09 -1.9015914176634396e-08 9.123248823073027e-09 -9.256035991711542e-05 2.6097147554082767e-08 -1.9015914176634396e-08 2.6097147554082767e-08 -9.259509533876553e-05" pbc="T T T"
Tl       2.28109761       1.61297987       3.95097705      -0.00000008      -0.00000012       0.00000088
Tl       6.84329306       4.83893979      11.85293072       0.00000009       0.00000028      -0.00000089
Cr       0.00000022       0.00000082       0.00000012      -0.00000069      -0.00000960       0.00000091
I        2.19164420       1.54972725       7.90195398       0.00357743       0.00252902      -0.00000048
I        6.93274597       4.90219208       7.90195420      -0.00357207      -0.00252514      -0.00000057
I        5.74747066       1.54972723       5.84899634      -0.00178872       0.00252879       0.00309809
I        3.37692048       4.90219232       9.95491134       0.00178603      -0.00252531      -0.00309463
I        3.37692010       4.90219255       5.84899630       0.00178745      -0.00252785       0.00309725
I        5.74747062       1.54972716       9.95491173      -0.00178945       0.00252986      -0.00310058
