9
Lattice="6.5483569669800845 6.99091361639914e-08 3.780695500408345 2.1827857032542863 6.173849644335304 3.7806955321337568 -2.9388272038632986e-08 1.8074857885275484e-08 7.5613910517186795" Properties=species:S:1:pos:R:3:forces:R:3 energy=-21.272926330566406 free_energy=-21.272926330566406 stress="0.00016005667566787452 -1.2782497726959718e-08 1.7591242240655447e-08 -1.2782497726959718e-08 0.00016006719670258462 2.089859130194327e-08 1.7591242240655447e-08 2.089859130194327e-08 0.00016006993246264756" pbc="T T T"
Tl       2.18278547       1.54346239       3.78069539      -0.00000023       0.00000003      -0.00000022
Tl       6.54835709       4.63038736      11.34208664       0.00000023      -0.00000066      -0.00000036
Cd       0.00000088      -0.00000151      -0.00000101      -0.00000564       0.00000855       0.00000460
Br       2.26864783       1.60417704       7.56139101      -0.00399837      -0.00282857       0.00000031
Br       6.46249367       4.56967242       7.56139096       0.00400081       0.00282976       0.00000041
Br       5.41403287       1.60417726       5.74540319       0.00200205      -0.00283107      -0.00346822
Br       3.31710974       4.56967312       9.37737950      -0.00199883       0.00282577       0.00346091
Br       3.31710996       4.56967314       5.74540347      -0.00199948       0.00282702      -0.00346401
Br       5.41403307       1.60417774       9.37737927       0.00199924      -0.00283080       0.00346658
