9
Lattice="6.701460768457256 9.809172706937649e-08 3.869090037843486 2.2338202974324273 6.318197704510608 3.8690901265275306 3.102992188856065e-08 1.3055676407931475e-07 7.738180021941562" Properties=species:S:1:pos:R:3:forces:R:3 energy=-25.91705322265625 free_energy=-25.91705322265625 stress="0.00022113248996902257 1.0620071044797896e-08 -6.318150169715153e-11 1.0620071044797896e-08 0.00022111886937636882 -4.429001609906891e-09 -6.318150169715153e-11 -4.429001609906891e-09 0.0002211104438174516" pbc="T T T"
Tl       2.23382043       1.57954942       3.86909011       0.00000075      -0.00000002       0.00000013
Tl       6.70146078       4.73864856      11.60726992      -0.00000043      -0.00000019      -0.00000008
Ca       0.00000006      -0.00000015      -0.00000075       0.00000116       0.00000044       0.00000622
Br       2.32687333       1.64534802       7.73818012      -0.00546385      -0.00386466       0.00000058
Br       6.60840776       4.67285010       7.73818013       0.00546230       0.00386344      -0.00000013
Br       5.53802363       1.64534819       5.88422128       0.00273270      -0.00386371      -0.00473201
Br       3.39725705       4.67285021       9.59213929      -0.00273041       0.00386126       0.00472917
Br       3.39725711       4.67285001       5.88422088      -0.00273330       0.00386401      -0.00473173
Br       5.53802427       1.64534736       9.59213974       0.00273113      -0.00386055       0.00472786
