9
Lattice="6.150554525761835 -3.4313794697627836e-08 3.551024054526779 2.050184839374409 5.798798481985278 3.551024002902785 -1.791365667923987e-08 -7.589310784243313e-08 7.102048140080961" Properties=species:S:1:pos:R:3:forces:R:3 energy=-34.558250427246094 free_energy=-34.558250427246094 stress="0.00012192186113679782 -2.6250397411331505e-08 1.5188836854918009e-09 -2.6250397411331505e-08 0.00012190736015327275 1.508797975446896e-09 1.5188836854918009e-09 1.508797975446896e-09 0.00012186275125714019" pbc="T T T"
Tl       2.05018489       1.44969975       3.55102406       0.00000001       0.00000015      -0.00000000
Tl       6.15055453       4.34909862      10.65307210       0.00000007      -0.00000009       0.00000004
Cr       0.00000074       0.00000037      -0.00000012      -0.00001224      -0.00000782       0.00000058
Cl       1.90836009       1.34941335       7.10204810      -0.00222930      -0.00157459      -0.00000032
Cl       6.29237887       4.44938429       7.10204848       0.00223985       0.00158253       0.00000043
Cl       5.19637400       1.34941455       5.20371167       0.00112032      -0.00158119      -0.00193381
Cl       3.00436432       4.44938368       9.00038390      -0.00111706       0.00158052       0.00193352
Cl       3.00436576       4.44938436       5.20371194      -0.00111997       0.00158103      -0.00193417
Cl       5.19637418       1.34941437       9.00038454       0.00111850      -0.00158057       0.00193390
