9
Lattice="5.10094720685996 7.690412128439241e-08 2.945033102732162 1.7003157687889947 4.80921927564027 2.9450331708657207 3.7723628333408905e-08 1.1012076507410962e-07 5.890066140125108" Properties=species:S:1:pos:R:3:forces:R:3 energy=-37.01859664916992 free_energy=-37.01859664916992 stress="0.00023496075300499797 1.3699841261427537e-08 9.269138234735408e-10 1.3699841261427537e-08 0.00023515892098657787 1.840567698252471e-08 9.269138234735408e-10 1.840567698252471e-08 0.0002348964335396886" pbc="T T T"
Tl       1.70031595       1.20230521       2.94503288      -0.00000045      -0.00000024       0.00000012
Tl       5.10094746       3.60691460       8.83509919      -0.00000073       0.00000015      -0.00000023
C       -0.00000049       0.00000024      -0.00000114       0.00000505       0.00000178       0.00000398
F        1.31005464       0.92634883       5.89006639      -0.00481373      -0.00340533      -0.00000489
F        5.49120805       3.88287067       5.89006649       0.00481606       0.00340730      -0.00000442
F        4.44591985       0.92634862       4.07957371       0.00240469      -0.00340438      -0.00416654
F        2.35534295       3.88287099       7.70055898      -0.00240931       0.00340706       0.00416744
F        2.35534305       3.88287056       4.07957357      -0.00240606       0.00340104      -0.00416243
F        4.44592073       0.92634805       7.70055959       0.00240484      -0.00340676       0.00416660
