9
Lattice="6.298478992143543 -2.1150194741376425e-09 3.6364285463146677 2.0994929872920576 5.938262965886437 3.636428560335742 -2.623419102251907e-09 1.53172390846013e-08 7.272857097173232" Properties=species:S:1:pos:R:3:forces:R:3 energy=-26.266237258911133 free_energy=-26.266237258911133 stress="-0.0002507925673853606 9.484556473537964e-10 -2.88002149906319e-10 9.484556473537964e-10 -0.0002507927711121738 -4.55304638435905e-09 -2.88002149906319e-10 -4.55304638435905e-09 -0.0002508091274648905" pbc="T T T"
Tl       2.09949299       1.48456574       3.63642855       0.00000011       0.00000024      -0.00000013
Tl       6.29847899       4.45369720      10.90928566      -0.00000007       0.00000015       0.00000036
Co      -0.00000009       0.00000008       0.00000008      -0.00000051      -0.00000066      -0.00000055
Br       2.03335676       1.43780052       7.27285711      -0.00195086      -0.00137976      -0.00000001
Br       6.36461514       4.50046251       7.27285718       0.00195211       0.00137992      -0.00000049
Br       5.28180067       1.43780043       5.39736723       0.00097518      -0.00137918      -0.00168921
Br       3.11617149       4.50046236       9.14834685      -0.00097609       0.00137949       0.00169034
Br       3.11617135       4.50046255       5.39736724      -0.00097524       0.00137937      -0.00169019
Br       5.28180060       1.43780053       9.14834698       0.00097538      -0.00137965       0.00168985
