9
Lattice="6.537993226034479 7.516524067047569e-08 3.7747112110536953 2.179330949619136 6.164078468679039 3.7747115515610696 -4.1622324080382836e-08 3.876032737869118e-07 7.54942249419928" Properties=species:S:1:pos:R:3:forces:R:3 energy=-25.410110473632812 free_energy=-25.410110473632812 stress="-4.190203526377445e-06 -4.98102981083548e-09 -1.2249300240796401e-08 -4.98102981083548e-09 -4.185877060081111e-06 1.2140337446453486e-07 -1.2249300240796401e-08 1.2140337446453486e-07 -4.215512944938382e-06" pbc="T T T"
Tl       2.17932896       1.54102064       3.77471149      -0.00000077      -0.00000010       0.00000154
Tl       6.53799243       4.62305828      11.32413528      -0.00000024      -0.00000010       0.00000254
C       -0.00000034      -0.00000001       0.00000962      -0.00000342      -0.00000069       0.00002555
Cl       1.76443932       1.24764710       7.54942102       0.00012562       0.00009164      -0.00000020
Cl       6.95288635       4.91643090       7.54942027      -0.00012510      -0.00008602       0.00000808
Cl       5.65577563       1.24764556       5.30275924      -0.00005583       0.00007527       0.00009293
Cl       3.06155174       4.91642897       9.79608293       0.00006596      -0.00008703      -0.00011319
Cl       3.06154985       4.91643512       5.30275784       0.00006033      -0.00009112       0.00010710
Cl       5.65577231       1.24764873       9.79608412      -0.00006667       0.00009814      -0.00012422
