9
Lattice="7.1502416417987344 1.5174606052830696e-07 4.128193765734509 2.383414036827565 6.7413123165905615 4.128193742939968 3.2829592441000464e-08 -4.7033869010971576e-09 8.256387474606427" Properties=species:S:1:pos:R:3:forces:R:3 energy=-22.939889907836914 free_energy=-22.939889907836914 stress="0.0001029134655254893 -1.600926147204973e-08 -5.892669165119546e-12 -1.600926147204973e-08 0.00010292725346516818 -8.274526619445055e-10 -5.892669165119546e-12 -8.274526619445055e-10 0.00010293266677763313" pbc="T T T"
Tl       2.38341419       1.68532833       4.12819376      -0.00000061       0.00000035      -0.00000006
Tl       7.15024193       5.05598407      12.38458121       0.00000102       0.00000009       0.00000035
Ca       0.00000012       0.00000087       0.00000026      -0.00000187      -0.00000488      -0.00000180
I        2.52538070       1.78571516       8.25638728      -0.00419341      -0.00296272       0.00000015
I        7.00827402       4.95559719       8.25638768       0.00419709       0.00296463      -0.00000006
I        5.88755097       1.78571469       6.31523804       0.00209584      -0.00296455      -0.00363168
I        3.64610508       4.95559723      10.19753649      -0.00209754       0.00296699       0.00363393
I        3.64610498       4.95559736       6.31523837      -0.00209723       0.00296653      -0.00363366
I        5.88755091       1.78571492      10.19753682       0.00209672      -0.00296649       0.00363272
