9
Lattice="5.523600344659963 -2.525316309390658e-07 3.1890523583924737 1.8411999801477086 5.207700312435471 3.189052179384582 2.1896164647811281e-07 -6.440951760308873e-08 6.378104337532206" Properties=species:S:1:pos:R:3:forces:R:3 energy=-36.36110305786133 free_energy=-36.36110305786133 stress="-1.552466710563749e-05 -1.6281376247206936e-08 -1.954986172947315e-09 -1.6281376247206936e-08 -1.5504030670854263e-05 4.077608650732145e-08 -1.954986172947315e-09 4.077608650732145e-08 -1.5494248145841993e-05" pbc="T T T"
Tl       1.84120316       1.30192410       3.18905140       0.00000813      -0.00000166      -0.00000135
Tl       5.52360424       3.90577280       9.56715864       0.00001088      -0.00000623       0.00000475
Ca       0.00000031      -0.00000091      -0.00000012      -0.00000385       0.00001300       0.00000231
F        1.81315479       1.28209641       6.37810453       0.00065929       0.00046995       0.00000126
F        5.55164441       3.92560618       6.37810274      -0.00066644      -0.00046599      -0.00000295
F        4.61702079       1.28209588       4.75929124      -0.00032888       0.00046375       0.00056225
F        2.74777726       3.92560493       7.99691708       0.00032626      -0.00046852      -0.00057533
F        2.74777558       3.92560608       4.75929281       0.00032732      -0.00046891       0.00057784
F        4.61702156       1.28209464       7.99691747      -0.00033307       0.00046438      -0.00056836
