9
Lattice="6.647073632403974 7.024559349148334e-07 3.837689274666972 2.215691680489502 6.2669220617561 3.837689608248817 -5.389833383918949e-07 2.7434259059069705e-08 7.675379482880914" Properties=species:S:1:pos:R:3:forces:R:3 energy=-20.833459854125977 free_energy=-20.833459854125977 stress="0.0001328321814071387 -1.3480222493811311e-10 5.683565285075076e-10 -1.3480222493811311e-10 0.00013284324086271226 6.51789555661253e-09 5.683565285075076e-10 6.51789555661253e-09 0.0001328948128502816" pbc="T T T"
Tl       2.21569082       1.56673049       3.83768959       0.00000010      -0.00000001      -0.00000032
Tl       6.64707334       4.70019203      11.51306900       0.00000011      -0.00000002      -0.00000017
C       -0.00000110      -0.00000093      -0.00000004       0.00000019      -0.00000032      -0.00000023
I        2.17233940       1.53607701       7.67537966      -0.00637227      -0.00450593      -0.00000017
I        6.69042678       4.73084645       7.67537871       0.00637329       0.00450671       0.00000069
I        5.56090449       1.53607713       5.71899308       0.00318629      -0.00450709      -0.00552058
I        3.30186006       4.73084623       9.63176573      -0.00318697       0.00450683       0.00552136
I        3.30186089       4.73084619       5.71899329      -0.00318712       0.00450689      -0.00552166
I        5.56090365       1.53607667       9.63176446       0.00318632      -0.00450701       0.00552112
