9
Lattice="6.670537643504756 2.416995422800044e-07 3.8512364157448666 2.22351268342908 6.289043455711327 3.8512365755823255 -1.0395662706315846e-07 1.2225167574779154e-07 7.7024730115478555" Properties=species:S:1:pos:R:3:forces:R:3 energy=-23.529071807861328 free_energy=-23.529071807861328 stress="4.450337291928008e-05 1.8468457874121214e-09 -2.2468944482767483e-09 1.8468457874121214e-09 4.450683627510443e-05 -4.8376818106987685e-09 -2.2468944482767483e-09 -4.8376818106987685e-09 4.4505508412839845e-05" pbc="T T T"
Tl       2.22351238       1.57226151       3.85123639       0.00000003      -0.00000027       0.00000006
Tl       6.67053781       4.71678220      11.55370955      -0.00000010       0.00000008      -0.00000008
Co      -0.00000041       0.00000019      -0.00000011       0.00000176      -0.00000000       0.00000040
I        2.18824361       1.54732140       7.70247279      -0.00018947      -0.00013384      -0.00000007
I        6.70580715       4.74172267       7.70247317       0.00018713       0.00013246       0.00000032
I        5.57641605       1.54732233       5.74631112       0.00009469      -0.00013289      -0.00016345
I        3.31763393       4.74172139       9.65863488      -0.00009406       0.00013380       0.00016372
I        3.31763425       4.74172143       5.74631140      -0.00009409       0.00013359      -0.00016379
I        5.57641602       1.54732224       9.65863479       0.00009407      -0.00013287       0.00016299
