9
Lattice="6.103115691645622 -4.304063648307953e-07 3.5236353480941065 2.0343715963847386 5.754072181153963 3.5236351662970913 1.1378495974768139e-07 -1.421969105467126e-07 7.047270499107082" Properties=species:S:1:pos:R:3:forces:R:3 energy=-28.97286605834961 free_energy=-28.97286605834961 stress="1.8544289559940808e-05 -1.553943973497951e-09 1.2311268449138879e-08 -1.553943973497951e-09 1.8551643734099343e-05 5.5833524470472184e-09 1.2311268449138879e-08 5.5833524470472184e-09 1.8542286852607504e-05" pbc="T T T"
Tl       2.03437201       1.43851798       3.52363522       0.00000020       0.00000026      -0.00000046
Tl       6.10311518       4.31555376      10.57090585      -0.00000004       0.00000010      -0.00000031
Co       0.00000020       0.00000092      -0.00000104      -0.00000070      -0.00000743       0.00000799
Cl       1.84896314       1.30741384       7.04727076       0.00107121       0.00075753      -0.00000049
Cl       6.28852346       4.44665778       7.04727012      -0.00106832      -0.00075494       0.00000056
Cl       5.17863431       1.30741416       5.12488459      -0.00053403       0.00075507       0.00092584
Cl       2.95885281       4.44665765       8.96965736       0.00053594      -0.00075683      -0.00092816
Cl       2.95885376       4.44665665       5.12488397       0.00053225      -0.00075339       0.00092477
Cl       5.17863484       1.30741372       8.96965707      -0.00053647       0.00075953      -0.00092953
