9
Lattice="5.136021060375141 -8.507193213441758e-08 2.965283023947613 1.7120069989848468 4.842286484858674 2.965282921641673 8.184871783613538e-08 -6.74229629707923e-08 5.930565906129255" Properties=species:S:1:pos:R:3:forces:R:3 energy=-34.01878356933594 free_energy=-34.01878356933594 stress="-0.0002575507096480578 -3.1162183944388744e-08 -1.5706641320889503e-08 -3.1162183944388744e-08 -0.00025750152417458594 4.658837760018741e-09 -1.5706641320889503e-08 4.658837760018741e-09 -0.00025742611614987254" pbc="T T T"
Tl       1.71200704       1.21057150       2.96528313      -0.00000026      -0.00000072      -0.00000001
Tl       5.13602118       3.63171427       8.89584907      -0.00000017      -0.00000062       0.00000023
Cu      -0.00000032      -0.00000023       0.00000037       0.00000768       0.00000107      -0.00001494
F        1.54251550       1.09072335       5.93056599       0.00612557       0.00433141       0.00000012
F        5.30551200       3.75156333       5.93056571      -0.00612682      -0.00433323       0.00000029
F        4.36476355       1.09072306       4.30114032      -0.00306703       0.00433660       0.00531209
F        2.48326524       3.75156333       7.55999115       0.00306046      -0.00433081      -0.00530192
F        2.48326500       3.75156352       4.30114068       0.00306380      -0.00433448       0.00530851
F        4.36476345       1.09072301       7.55999116      -0.00306335       0.00433090      -0.00530460
