9
Lattice="6.664796349379005 2.143827353977718e-07 3.8479215431050733 2.221598993049887 6.283630080897784 3.847921529592266 1.300159663113352e-08 -7.356366597926388e-09 7.6958430636909005" Properties=species:S:1:pos:R:3:forces:R:3 energy=-20.373062133789062 free_energy=-20.373062133789062 stress="-6.547538941958919e-05 -4.543762699427134e-09 -7.993395945149473e-10 -4.543762699427134e-09 -6.54784234939143e-05 1.587990294815711e-09 -7.993395945149473e-10 1.587990294815711e-09 -6.546447548316792e-05" pbc="T T T"
Tl       2.22159932       1.57090779       3.84792138      -0.00000019      -0.00000014       0.00000001
Tl       6.66479664       4.71272269      11.54376440       0.00000026       0.00000008      -0.00000020
Cu      -0.00000016       0.00000009      -0.00000024       0.00000022      -0.00000027       0.00000013
I        2.23773738       1.58231894       7.69584327       0.00005523       0.00003899       0.00000013
I        6.64865788       4.70131135       7.69584301      -0.00005471      -0.00003874       0.00000020
I        5.54592801       1.58231918       5.78585889      -0.00002740       0.00003811       0.00004747
I        3.34046710       4.70131090       9.60582725       0.00002721      -0.00003824      -0.00004696
I        3.34046737       4.70131108       5.78585942       0.00002677      -0.00003882       0.00004665
I        5.54592787       1.58231919       9.60582720      -0.00002737       0.00003906      -0.00004748
