9
Lattice="5.400936479699942 6.082461455905229e-08 3.1182320912923474 1.8003121422281152 5.092052045801724 3.1182322212269598 -7.611158964300789e-08 1.0531781069109692e-07 6.236464314413718" Properties=species:S:1:pos:R:3:forces:R:3 energy=-43.299964904785156 free_energy=-43.299964904785156 stress="4.35710717283655e-06 -1.2649291392108353e-08 -7.972673188305635e-09 -1.2649291392108353e-08 4.323430403019302e-06 -1.5673847997277335e-08 -7.972673188305635e-09 -1.5673847997277335e-08 4.379424808576005e-06" pbc="T T T"
Tl       1.80031198       1.27301311       3.11823198       0.00000149       0.00000068      -0.00000034
Tl       5.40093629       3.81903883       9.35469686      -0.00000098       0.00000011       0.00000143
Cr       0.00000000       0.00000023       0.00000035      -0.00000088       0.00000023      -0.00000240
F        1.53856885       1.08793249       6.23646384       0.00144953       0.00102565       0.00000094
F        5.66267994       4.00411960       6.23646379      -0.00145145      -0.00102642       0.00000088
F        4.63165198       1.08793277       4.45067176      -0.00072436       0.00102532       0.00125761
F        2.56959656       4.00411995       8.02225727       0.00072566      -0.00102694      -0.00125879
F        2.56959636       4.00411993       4.45067123       0.00072711      -0.00102654       0.00125878
F        4.63165196       1.08793206       8.02225747      -0.00072598       0.00102767      -0.00125861
