9
Lattice="6.461140918042995 2.1773790082801777e-07 3.7303419022995254 2.1537136561635535 6.091623100453187 3.730342228738058 -7.021484841560202e-08 3.501544112538764e-07 7.460683926214874" Properties=species:S:1:pos:R:3:forces:R:3 energy=-28.897045135498047 free_energy=-28.897045135498047 stress="-6.134065915830433e-05 -5.811473968719838e-08 -3.857729424794343e-08 -5.811473968719838e-08 -6.11686336924322e-05 5.022235782803364e-08 -3.857729424794343e-08 5.022235782803364e-08 -6.110761751187965e-05" pbc="T T T"
Tl       2.15371347       1.52290586       3.73034203       0.00000018       0.00000002       0.00000008
Tl       6.46114108       4.56871776      11.19102596      -0.00000030      -0.00000001       0.00000010
Fe      -0.00000001      -0.00000005      -0.00000011       0.00000693       0.00000488      -0.00000332
Br       1.86506567       1.31880263       7.46068443       0.00620419       0.00438178      -0.00000165
Br       6.74978971       4.77282196       7.46068466      -0.00621483      -0.00438973      -0.00000103
Br       5.52860769       1.31880174       5.34553807      -0.00309952       0.00438084       0.00536230
Br       3.08624614       4.77282095       9.57582951       0.00310006      -0.00437607      -0.00536053
Br       3.08624603       4.77282201       5.34553775       0.00310500      -0.00438476       0.00536995
Br       5.52860839       1.31880167       9.57582971      -0.00310155       0.00438326      -0.00536580
