9
Lattice="5.264883991008193 3.4153586475294886e-08 3.039682229005279 1.754961357088698 4.963780368129756 3.0396822384409496 -1.5024670148408611e-09 1.04938083977122e-08 6.079364460612819" Properties=species:S:1:pos:R:3:forces:R:3 energy=-39.99351119995117 free_energy=-39.99351119995117 stress="-0.00015483397874049842 1.7339961688733752e-09 -1.7349592873472375e-09 1.7339961688733752e-09 -0.00015482984599657357 -9.57168833082278e-09 -1.7349592873472375e-09 -9.57168833082278e-09 -0.00015486511983908713" pbc="T T T"
Tl       1.75496171       1.24094527       3.03968235       0.00000012      -0.00000058      -0.00000009
Tl       5.26488408       3.72283524       9.11904658       0.00000073      -0.00000033       0.00000019
Fe       0.00000026      -0.00000019      -0.00000115      -0.00000942       0.00000284       0.00002916
F        1.57009298       1.11022370       6.07936451       0.00320822       0.00226855      -0.00000194
F        5.44975200       3.85355641       6.07936450      -0.00320327      -0.00226527       0.00000002
F        4.47983731       1.11022406       4.39942328      -0.00159869       0.00226122       0.00276908
F        2.54000754       3.85355721       7.75930619       0.00160772      -0.00227457      -0.00278538
F        2.54000808       3.85355679       4.39942312       0.00160044      -0.00226396       0.00277245
F        4.47983756       1.11022327       7.75930629      -0.00160617       0.00227204      -0.00278297
