9
Lattice="6.765755261319783 1.3601080282508363e-07 3.906209585233144 2.2552517948326494 6.378814297734108 3.9062097362211614 -2.135203374398682e-08 1.6982349340158604e-07 7.812419207449379" Properties=species:S:1:pos:R:3:forces:R:3 energy=-25.37696647644043 free_energy=-25.37696647644043 stress="0.0001926606782944873 2.2799559928898816e-07 -3.221871214265093e-09 2.2799559928898816e-07 0.00019244053692091256 4.128980268802707e-09 -3.221871214265093e-09 4.128980268802707e-09 0.0001922419323818758" pbc="T T T"
Tl       2.25525148       1.59470377       3.90620951       0.00000004       0.00000022       0.00000021
Tl       6.76575584       4.78411160      11.71862906      -0.00000006      -0.00000005      -0.00000012
Fe      -0.00000162       0.00000131      -0.00000169       0.00002781      -0.00001732       0.00002904
I        2.01815168       1.42704890       7.81241941      -0.00545435      -0.00385173      -0.00000178
I        7.00285707       4.95176590       7.81241954       0.00543656       0.00384337      -0.00000218
I        5.75668017       1.42704447       5.65397541       0.00270874      -0.00382520      -0.00468794
I        3.26432665       4.95176876       9.97086372      -0.00270856       0.00383043       0.00468478
I        3.26432645       4.95176893       5.65397558      -0.00271329       0.00383775      -0.00469705
I        5.75668012       1.42704444       9.97086380       0.00270301      -0.00381743       0.00467486
