9
Lattice="6.450064034157475 1.3670764416263998e-07 3.7239460699528193 2.1500213911686217 6.081178640515924 3.7239462127425185 -1.0736164057745199e-07 9.896490746942749e-08 7.447892325861591" Properties=species:S:1:pos:R:3:forces:R:3 energy=-24.3922176361084 free_energy=-24.3922176361084 stress="0.00011971840285696089 -1.875694932707006e-09 5.691982440936272e-09 -1.875694932707006e-09 0.00011971172352787107 -1.0687329243808108e-08 5.691982440936272e-09 -1.0687329243808108e-08 0.00011972345237154514" pbc="T T T"
Tl       2.15002136       1.52029444       3.72394592       0.00000007      -0.00000014       0.00000034
Tl       6.45006379       4.56088421      11.17183885       0.00000015       0.00000004      -0.00000023
Ga       0.00000007       0.00000060       0.00000001       0.00000032      -0.00000363      -0.00000121
Br       2.08826575       1.47662760       7.44789238      -0.00494668      -0.00349909      -0.00000030
Br       6.51181908       4.60455153       7.44789231       0.00495052       0.00349897      -0.00000085
Br       5.40593108       1.47662669       5.53243700       0.00247243      -0.00349718      -0.00428244
Br       3.19415468       4.60455190       9.36334732      -0.00247554       0.00350067       0.00428769
Br       3.19415452       4.60455187       5.53243764      -0.00247510       0.00349995      -0.00428742
Br       5.40593078       1.47662706       9.36334713       0.00247365      -0.00349963       0.00428426
