9
Lattice="6.249979391808838 2.5186673999305377e-07 3.608427225175056 2.083326550395434 5.89253793960073 3.6084274867202955 -1.8620736008041927e-07 1.8865758850579724e-07 7.216854772870744" Properties=species:S:1:pos:R:3:forces:R:3 energy=-27.507780075073242 free_energy=-27.507780075073242 stress="-6.220870272954926e-05 2.1892711643545226e-08 1.3503044016260901e-08 2.1892711643545226e-08 -6.220822979230434e-05 -9.191459815482972e-10 1.3503044016260901e-08 -9.191459815482972e-10 -6.222899537533522e-05" pbc="T T T"
Tl       2.08332645       1.47313449       3.60842740       0.00000016       0.00000025       0.00000001
Tl       6.24997942       4.41940384      10.82528223      -0.00000010      -0.00000021       0.00000003
Ga       0.00000015      -0.00000029      -0.00000155      -0.00000365       0.00000148       0.00001440
Cl       1.94159683       1.37291693       7.21685463       0.00007582       0.00005329       0.00000191
Cl       6.39170901       4.51962158       7.21685439      -0.00007540      -0.00005201       0.00000291
Cl       5.27918079       1.37291693       5.28990011      -0.00003454       0.00004834       0.00006059
Cl       3.05412429       4.51962246       9.14381066       0.00004378      -0.00006139      -0.00007334
Cl       3.05412497       4.51962141       5.28989980       0.00003657      -0.00004980       0.00006339
Cl       5.27918112       1.37291607       9.14381044      -0.00004283       0.00006017      -0.00007015
