9
Lattice="6.253069828311416 -5.475188477340731e-08 3.6102117885804277 2.084356501698794 5.895450800481932 3.610211885778916 1.804159254699136e-07 2.4661686826195303e-07 7.2204232646712345" Properties=species:S:1:pos:R:3:forces:R:3 energy=-27.507776260375977 free_energy=-27.507776260375977 stress="1.4338209439301863e-05 -1.1258726173579703e-09 1.1287117018810022e-08 -1.1258726173579703e-09 1.4376060789800249e-05 1.3941123810923273e-08 1.1287117018810022e-08 1.3941123810923273e-08 1.4341309906740207e-05" pbc="T T T"
Tl       2.08435649       1.47386275       3.61021182       0.00000032      -0.00000014       0.00000016
Tl       6.25306940       4.42158762      10.83063642      -0.00000006      -0.00000002      -0.00000012
Ga      -0.00000020       0.00000037      -0.00000046       0.00000102      -0.00000149      -0.00000144
Cl       1.94150776       1.37285344       7.22042322       0.00197077       0.00139236      -0.00000136
Cl       6.39591902       4.52259762       7.22042364      -0.00197089      -0.00139114      -0.00000101
Cl       5.28231703       1.37285368       5.29160642      -0.00098678       0.00139350       0.00170732
Cl       3.05511006       4.52259681       9.14924059       0.00098380      -0.00138900      -0.00170612
Cl       3.05510999       4.52259721       5.29160588       0.00098586      -0.00139382       0.00170833
Cl       5.28231677       1.37285456       9.14924024      -0.00098419       0.00138986      -0.00170574
