9
Lattice="6.895093685804292 2.3460122293616504e-07 3.9808841289081562 2.2983648834210015 6.500756298800272 3.9808839551798165 9.92388886076808e-08 -1.4260030226262418e-07 7.961768085929375" Properties=species:S:1:pos:R:3:forces:R:3 energy=-22.012432098388672 free_energy=-22.012432098388672 stress="7.172939513111487e-05 -8.591715783268228e-09 -2.1049710863252358e-09 -8.591715783268228e-09 7.173227641033009e-05 -5.5890536643232736e-09 -2.1049710863252358e-09 -5.5890536643232736e-09 7.17378206900321e-05" pbc="T T T"
Tl       2.29836482       1.62518903       3.98088432       0.00000010       0.00000010       0.00000043
Tl       6.89509395       4.87556744      11.94265171       0.00000004      -0.00000011      -0.00000070
Ge      -0.00000014       0.00000015      -0.00000006      -0.00000010       0.00000022       0.00000052
I        2.37197703       1.67724065       7.96176810      -0.00682563      -0.00482567       0.00000035
I        6.82148159       4.82351572       7.96176804       0.00682564       0.00482598      -0.00000006
I        5.70910536       1.67724074       6.03507594       0.00341229      -0.00482726      -0.00591129
I        3.48435323       4.82351566       9.88846032      -0.00341219       0.00482608       0.00591074
I        3.48435281       4.82351495       6.03507633      -0.00341130       0.00482632      -0.00591083
I        5.70910604       1.67724127       9.88846005       0.00341114      -0.00482568       0.00591083
