9
Lattice="6.463321555015751 4.901439496736579e-08 3.731600337522882 2.1544405869073326 6.093677901714026 3.731600298798505 9.070938353435625e-08 1.6713764307493213e-08 7.463200517932539" Properties=species:S:1:pos:R:3:forces:R:3 energy=-25.220718383789062 free_energy=-25.220718383789062 stress="0.00013585136912297457 6.105630223629532e-09 7.481219199689804e-09 6.105630223629532e-09 0.00013584247790277004 -1.8005413826571726e-10 7.481219199689804e-09 -1.8005413826571726e-10 0.0001358391164103523" pbc="T T T"
Tl       2.15444064       1.52341966       3.73160027      -0.00000002       0.00000012       0.00000001
Tl       6.46332164       4.57025826      11.19480085      -0.00000017      -0.00000009      -0.00000039
Ge      -0.00000129      -0.00000048       0.00000073       0.00000827       0.00000361      -0.00000723
Br       2.05745315       1.45483906       7.46320058       0.00024509       0.00017306      -0.00000042
Br       6.56031056       4.63883995       7.46320074      -0.00025466      -0.00018017      -0.00000043
Br       5.43459560       1.45483831       5.51340573      -0.00012601       0.00017982       0.00021988
Br       3.18316701       4.63883886       9.41299488       0.00012381      -0.00017358      -0.00021458
Br       3.18316646       4.63883957       5.51340573       0.00012702      -0.00017836       0.00021908
Br       5.43459525       1.45483877       9.41299514      -0.00012352       0.00017563      -0.00021590
