9
Lattice="5.400115140154054 9.203931464800098e-08 3.1177578406360893 1.8000384563467045 5.091277378690742 3.117757858788268 3.8664023048801405e-08 4.957130685359597e-08 6.2355156143042025" Properties=species:S:1:pos:R:3:forces:R:3 energy=-40.9703483581543 free_energy=-40.9703483581543 stress="-2.361600309086498e-06 3.2429905871822484e-08 -7.3520247667602234e-09 3.2429905871822484e-08 -2.366364924455411e-06 -1.4511731816213569e-09 -7.3520247667602234e-09 -1.4511731816213569e-09 -2.4414921426796354e-06" pbc="T T T"
Tl       1.80003823       1.27281953       3.11775787       0.00000027       0.00000001      -0.00000019
Tl       5.40011528       3.81845839       9.35327343      -0.00000009      -0.00000045       0.00000000
Ge       0.00000004       0.00000003      -0.00000018       0.00000183      -0.00000405       0.00000082
F        1.49774270       1.05906368       6.23551571       0.00010130       0.00007126      -0.00000001
F        5.70241092       4.03221366       6.23551595      -0.00009820      -0.00006923      -0.00000147
F        4.65124413       1.05906387       4.41484088      -0.00005206       0.00007296       0.00008997
F        2.54890971       4.03221367       8.05619043       0.00004916      -0.00007090      -0.00008762
F        2.54890959       4.03221354       4.41484085       0.00005046      -0.00007123       0.00008813
F        4.65124410       1.05906385       8.05619023      -0.00005236       0.00007159      -0.00008932
