9
Lattice="6.451879809443859 -9.449085995910704e-08 3.7249945525505352 2.1506265097895922 6.082890585055092 3.724994559948843 -1.1985229871706752e-07 -7.568724804893133e-08 7.449989312691482" Properties=species:S:1:pos:R:3:forces:R:3 energy=-24.3922176361084 free_energy=-24.3922176361084 stress="0.00011328562686685473 2.6603892422372155e-09 -5.23669463348142e-09 2.6603892422372155e-09 0.00011327872198307887 -1.3753631566970625e-09 -5.23669463348142e-09 -1.3753631566970625e-09 0.00011329276458127424" pbc="T T T"
Tl       2.15062649       1.52072263       3.72499465       0.00000020       0.00000031      -0.00000014
Tl       6.45187972       4.56216780      11.17498380      -0.00000021      -0.00000001       0.00000004
Ga       0.00000013      -0.00000003      -0.00000113       0.00000019       0.00000082       0.00000490
Br       2.08788059       1.47635441       7.44998888      -0.00135013      -0.00095382       0.00000167
Br       6.51462591       4.60653623       7.44998915       0.00134739       0.00095233       0.00000160
Br       5.40793871       1.47635491       5.53315280       0.00067773      -0.00095662      -0.00117117
Br       3.19456650       4.60653634       9.36682626      -0.00067207       0.00095084       0.00116673
Br       3.19456727       4.60653543       5.53315279      -0.00067604       0.00095686      -0.00117052
Br       5.40793967       1.47635382       9.36682636       0.00067291      -0.00095072       0.00116682
