9
Lattice="6.867811613170472 5.770454096449428e-09 3.965132849277412 2.289270717371257 6.475034381105014 3.965132547541477 1.8629883702438622e-07 -2.3781634774205484e-07 7.93026537587579" Properties=species:S:1:pos:R:3:forces:R:3 energy=-21.05194854736328 free_energy=-21.05194854736328 stress="-3.817479228018783e-05 1.3221735706281379e-08 -2.465155191089252e-09 1.3221735706281379e-08 -3.81869358534459e-05 -2.8132887130993822e-09 -2.465155191089252e-09 -2.8132887130993822e-09 -3.8182693970156834e-05" pbc="T T T"
Tl       2.28927080       1.61875851       3.96513260      -0.00000052      -0.00000041       0.00000014
Tl       6.86781176       4.85627566      11.89539795       0.00000063       0.00000052      -0.00000029
Ga      -0.00000023      -0.00000007       0.00000014       0.00000072       0.00000031      -0.00000124
I        2.27897355       1.61147641       7.93026564      -0.00064830      -0.00045769      -0.00000009
I        6.87810949       4.86355796       7.93026554       0.00064708       0.00045681      -0.00000055
I        5.72832547       1.61147643       5.93878115       0.00032321      -0.00045629      -0.00056028
I        3.42875683       4.86355718       9.92174952      -0.00032380       0.00045788       0.00056131
I        3.42875737       4.86355722       5.93878107      -0.00032353       0.00045691      -0.00056049
I        5.72832503       1.61147737       9.92174946       0.00032458      -0.00045803       0.00056154
