9
Lattice="6.2621794049432635 1.3664488550781224e-07 3.615471132591076 2.08739324372954 5.904038740459936 3.615471167373412 -1.0073013887103832e-07 -2.8627406269735358e-08 7.230942439651873" Properties=species:S:1:pos:R:3:forces:R:3 energy=-28.83454132080078 free_energy=-28.83454132080078 stress="0.0001340581802651286 4.912415718649754e-08 -1.8619088493210256e-09 4.912415718649754e-08 0.00013395420683082193 2.186009240290332e-08 -1.8619088493210256e-09 2.186009240290332e-08 0.00013397858128882945" pbc="T T T"
Tl       2.08739318       1.47600955       3.61547124       0.00000008      -0.00000012      -0.00000018
Tl       6.26217955       4.42802934      10.84641349       0.00000005      -0.00000013      -0.00000002
Ge      -0.00000007      -0.00000184      -0.00000038       0.00001201       0.00003383       0.00000431
Cl       1.89203685       1.33787149       7.23094267      -0.00414324      -0.00292772      -0.00000066
Cl       6.45753896       4.56616979       7.23094248       0.00410101       0.00289862       0.00000068
Cl       5.31616139       1.33787002       5.25402110       0.00206722      -0.00291279      -0.00357208
Cl       3.03340942       4.56616875       9.20786384      -0.00204951       0.00290760       0.00355925
Cl       3.03340948       4.56616888       5.25402046      -0.00205170       0.00290816      -0.00355905
Cl       5.31616165       1.33786938       9.20786425       0.00206424      -0.00290754       0.00356764
