9
Lattice="5.380087101384701 -8.004266056943822e-08 3.1061946188879754 1.7933622392122743 5.072395129722597 3.106194709735705 -1.8367994435773745e-07 -1.8615911812733825e-08 6.212389555918836" Properties=species:S:1:pos:R:3:forces:R:3 energy=-38.10568618774414 free_energy=-38.10568618774414 stress="-1.4833964996796567e-05 4.444162016170594e-08 -1.84891106869145e-08 4.444162016170594e-08 -1.4797747098782565e-05 -3.749524690732642e-09 -1.84891106869145e-08 -3.749524690732642e-09 -1.4778707736695651e-05" pbc="T T T"
Tl       1.79336186       1.26809874       3.10619545      -0.00000151       0.00000183       0.00000114
Tl       5.38008660       3.80429619       9.31858412      -0.00000101      -0.00000188       0.00000124
Ga       0.00000015       0.00000021      -0.00000014      -0.00000047      -0.00000328      -0.00000356
F        1.57783885       1.11570104       6.21238936       0.00057662       0.00040478      -0.00000035
F        5.59561081       3.95669389       6.21238914      -0.00057626      -0.00040370       0.00000045
F        4.59116799       1.11570106       4.47264316      -0.00028706       0.00040376       0.00049657
F        2.58228114       3.95669442       7.95213520       0.00028908      -0.00040269      -0.00049525
F        2.58228158       3.95669408       4.47264296       0.00028718      -0.00040412       0.00049597
F        4.59116780       1.11570078       7.95213540      -0.00028640       0.00040543      -0.00049663
