9
Lattice="5.380804356099239 5.422361427131176e-07 3.1066088223901525 1.7936017032628613 5.07307198387798 3.106609272714989 1.07687480650939e-07 6.276799060946646e-07 6.21321745825975" Properties=species:S:1:pos:R:3:forces:R:3 energy=-38.105690002441406 free_energy=-38.105690002441406 stress="4.134219489060342e-05 -4.2318294646293e-08 -2.573099955327507e-09 -4.2318294646293e-08 4.1255567339248955e-05 1.5234878247838424e-08 -2.573099955327507e-09 1.5234878247838424e-08 4.122601239942014e-05" pbc="T T T"
Tl       1.79360086       1.26826870       3.10660901      -0.00000006       0.00000089      -0.00000016
Tl       5.38080389       3.80480399       9.31982680      -0.00000058      -0.00000065       0.00000076
Ga       0.00000027      -0.00000005       0.00000019      -0.00000577       0.00000524       0.00000209
F        1.57792381       1.11576138       6.21321728      -0.00066125      -0.00046664      -0.00000023
F        5.59648295       3.95731184       6.21321841       0.00065994       0.00046492      -0.00000073
F        4.59184146       1.11576113       4.47313092       0.00033283      -0.00046855      -0.00057071
F        2.58256396       3.95731106       7.95330547      -0.00032920       0.00046796       0.00056642
F        2.58256386       3.95731168       4.47313056      -0.00032848       0.00046635      -0.00056773
F        4.59184157       1.11576259       7.95330502       0.00033307      -0.00046980       0.00057024
