9
Lattice="6.5092961069730055 -7.23013885247042e-08 3.7581438140574037 2.1697651863498177 6.1370237284853975 3.758144012333481 -3.299154676226665e-07 9.552238880921195e-09 7.516288199545074" Properties=species:S:1:pos:R:3:forces:R:3 energy=-19.483734130859375 free_energy=-19.483734130859375 stress="9.922324534272775e-05 4.781881113302688e-09 2.9722071470672518e-09 4.781881113302688e-09 9.920236334437504e-05 -2.2664385923576447e-09 2.9722071470672518e-09 -2.2664385923576447e-09 9.919891454046592e-05" pbc="T T T"
Tl       2.16976520       1.53425600       3.75814407      -0.00000008       0.00000023      -0.00000023
Tl       6.50929589       4.60276777      11.27443203       0.00000030       0.00000000       0.00000017
Hg      -0.00000061       0.00000023      -0.00000004       0.00000484      -0.00000216       0.00000262
Br       2.27120368       1.60598441       7.51628808      -0.00241169      -0.00170651       0.00000041
Br       6.40785747       4.53104029       7.51628725       0.00240824       0.00170285       0.00000043
Br       5.37369387       1.60598402       5.72506430       0.00120486      -0.00170359      -0.00208643
Br       3.30536695       4.53103995       9.30751168      -0.00120410       0.00170442       0.00208881
Br       3.30536705       4.53103949       5.72506487      -0.00120512       0.00170606      -0.00208977
Br       5.37369431       1.60598249       9.30751194       0.00120297      -0.00170127       0.00208423
