9
Lattice="6.3518269868556985 -1.3888187951702422e-07 3.6672288398506625 2.117275536559715 5.988559891537944 3.6672288308205316 -1.0724317411531999e-07 -8.689201841372313e-08 7.3344578654518395" Properties=species:S:1:pos:R:3:forces:R:3 energy=-21.53079605102539 free_energy=-21.53079605102539 stress="0.00015544604684691876 -1.1141959355143172e-08 -2.0061913019731037e-08 -1.1141959355143172e-08 0.00015546850045211613 7.545845726042444e-09 -2.0061913019731037e-08 7.545845726042444e-09 0.00015544287452939898" pbc="T T T"
Tl       2.11727560       1.49713939       3.66722908      -0.00000006      -0.00000006      -0.00000041
Tl       6.35182616       4.49141945      11.00168606      -0.00000017       0.00000014       0.00000007
Hg      -0.00000000       0.00000001      -0.00000098      -0.00000079       0.00000106       0.00000918
Cl       2.14800352       1.51886769       7.33445743      -0.00333840      -0.00235939       0.00000009
Cl       6.32109942       4.46969234       7.33445759       0.00333798       0.00235912       0.00000065
Cl       5.27782485       1.51886760       5.52745451       0.00167075      -0.00236213      -0.00289237
Cl       3.19127677       4.46969263       9.14146218      -0.00166523       0.00235626       0.00288659
Cl       3.19127752       4.46969280       5.52745400      -0.00167024       0.00236040      -0.00289035
Cl       5.27782588       1.51886673       9.14146221       0.00166631      -0.00235537       0.00288713
