9
Lattice="6.941625320600836 -1.1230144917456376e-07 4.007749338135191 2.3138748406500627 6.544627347031851 4.007749615848715 -9.52670131447019e-08 2.7276432123429897e-07 8.015498841277607" Properties=species:S:1:pos:R:3:forces:R:3 energy=-17.059429168701172 free_energy=-17.059429168701172 stress="-2.7217254682909697e-05 6.915735539791967e-09 -5.878962650029962e-09 6.915735539791967e-09 -2.7222578864893876e-05 1.2107922664483795e-08 -5.878962650029962e-09 1.2107922664483795e-08 -2.7216965463594534e-05" pbc="T T T"
Tl       2.31387530       1.63615660       4.00774917      -0.00000033      -0.00000007      -0.00000046
Tl       6.94162484       4.90847094      12.02324855       0.00000014       0.00000020       0.00000039
Hg       0.00000017      -0.00000003       0.00000074       0.00000004      -0.00000019      -0.00000304
I        2.44595328       1.72955054       8.01549978      -0.00329655      -0.00233065       0.00000023
I        6.80954649       4.81507669       8.01549853       0.00329757       0.00233066      -0.00000154
I        5.71864870       1.72954949       6.12600766       0.00164667      -0.00232954      -0.00285304
I        3.53685195       4.81507768       9.90498945      -0.00164904       0.00233234       0.00285611
I        3.53685183       4.81507753       6.12600691      -0.00164749       0.00232859      -0.00285408
I        5.71864770       1.72955050       9.90499030       0.00164901      -0.00233142       0.00285557
