9
Lattice="5.48438608619297 -1.4068879997927889e-07 3.1664118667758996 1.8281285917861796 5.170728739704933 3.1664118164922566 -1.0663166303330045e-07 -1.3698456988010088e-07 6.332823918243208" Properties=species:S:1:pos:R:3:forces:R:3 energy=-40.12560272216797 free_energy=-40.12560272216797 stress="0.0001707849296508357 -1.63563598221117e-08 -2.6564942245954626e-08 -1.63563598221117e-08 0.00017080327961593866 4.391601748920948e-08 -2.6564942245954626e-08 4.391601748920948e-08 0.0001708123309072107" pbc="T T T"
Tl       1.82812870       1.29268198       3.16641167       0.00000027       0.00000052       0.00000096
Tl       5.48438578       3.87804668       9.49923607      -0.00000024      -0.00000078      -0.00000077
Ir      -0.00000014      -0.00000011      -0.00000024       0.00000704       0.00000269       0.00001393
F        1.61133380       1.13938505       6.33282398      -0.00414564      -0.00293158      -0.00000083
F        5.70118091       4.03134352       6.33282377       0.00414050       0.00292789      -0.00000038
F        4.67871910       1.13938509       4.56186826       0.00207376      -0.00293357      -0.00359362
F        2.63379575       4.03134317       8.10377955      -0.00207211       0.00293050       0.00358728
F        2.63379544       4.03134369       4.56186787      -0.00207275       0.00293109      -0.00358996
F        4.67871896       1.13938487       8.10377955       0.00206916      -0.00292671       0.00358341
