9
Lattice="6.171974553104807 -8.149544315112608e-08 3.563391305989493 2.057324884876651 5.818993609800423 3.5633911142923873 2.182426528701033e-08 -2.193478523418739e-07 7.126782574178304" Properties=species:S:1:pos:R:3:forces:R:3 energy=-31.666515350341797 free_energy=-31.666515350341797 stress="-4.4141670514363796e-05 -2.830811363097041e-09 5.810304060105409e-08 -2.830811363097041e-09 -4.410361361806281e-05 -8.728386546863476e-08 5.810304060105409e-08 -8.728386546863476e-08 -4.413672650116496e-05" pbc="T T T"
Tl       2.05732500       1.45474872       3.56339147      -0.00000003      -0.00000013       0.00000019
Tl       6.17197456       4.36424521      10.69017391       0.00000006       0.00000005      -0.00000029
Ir      -0.00000043       0.00000037       0.00000012       0.00001316      -0.00001216       0.00000198
Cl       1.91973233       1.35745591       7.12678165      -0.00359133      -0.00253923       0.00000196
Cl       6.30956754       4.46153748       7.12678184       0.00358677       0.00253841       0.00000112
Cl       5.21210849       1.35745553       5.22592769       0.00179172      -0.00253400      -0.00310302
Cl       3.01719043       4.46153792       9.02763784      -0.00179346       0.00253704       0.00310570
Cl       3.01719150       4.46153658       5.22592854      -0.00180054       0.00254799      -0.00311692
Cl       5.21210845       1.35745550       9.02763700       0.00179361      -0.00253808       0.00310934
