9
Lattice="5.512553815551236 1.9197283827410262e-08 3.1826741337961293 1.8375179410354918 5.197285243566442 3.1826741607832476 3.828912900686345e-08 6.012682041853338e-08 6.365348201273496" Properties=species:S:1:pos:R:3:forces:R:3 energy=-37.027835845947266 free_energy=-37.027835845947266 stress="-0.00023730145767331123 1.0135312145109765e-08 -7.572892535279152e-09 1.0135312145109765e-08 -0.00023731234250590205 -4.0269665380066044e-10 -7.572892535279152e-09 -4.0269665380066044e-10 -0.00023731753753963858" pbc="T T T"
Tl       1.83751803       1.29932111       3.18267390       0.00000034      -0.00000020       0.00000037
Tl       5.51255413       3.89796409       9.54802242       0.00000069      -0.00000059       0.00000068
In      -0.00000000       0.00000005       0.00000004      -0.00000273       0.00000163      -0.00000016
F        1.71644186       1.21370748       6.36534818       0.00546956       0.00386840      -0.00000069
F        5.63363000       3.98357778       6.36534828      -0.00546879      -0.00386775      -0.00000081
F        4.65433258       1.21370760       4.66915624      -0.00273481       0.00386792       0.00473809
F        2.69573906       3.98357748       8.06154025       0.00273478      -0.00386840      -0.00473964
F        2.69573913       3.98357805       4.66915625       0.00273550      -0.00386822       0.00473917
F        4.65433254       1.21370799       8.06154045      -0.00273469       0.00386667      -0.00473702
