9
Lattice="6.587476993803929 -1.1719293653801914e-07 3.8032816094184825 2.1958255577119483 6.210733104857073 3.803281603181063 -3.793801925740596e-08 -3.4465413530051553e-08 7.606563284547563" Properties=species:S:1:pos:R:3:forces:R:3 energy=-24.38881492614746 free_energy=-24.38881492614746 stress="0.00018389515753369778 -1.526042403554584e-08 -6.017162323956882e-09 -1.526042403554584e-08 0.00018389668548479676 7.3483605866897506e-09 -6.017162323956882e-09 7.3483605866897506e-09 0.0001839190226746723" pbc="T T T"
Tl       2.19582562       1.55268330       3.80328156      -0.00000035      -0.00000021       0.00000041
Tl       6.58747692       4.65804962      11.40984488       0.00000034       0.00000004      -0.00000006
In      -0.00000027       0.00000023      -0.00000033       0.00000329      -0.00000055       0.00000365
Br       2.20154129       1.55672525       7.60656321      -0.00340432      -0.00240740       0.00000054
Br       6.58176120       4.65400794       7.60656318       0.00340116       0.00240469      -0.00000002
Br       5.48670586       1.55672503       5.70987303       0.00170289      -0.00240818      -0.00294951
Br       3.29659656       4.65400781       9.50325333      -0.00170143       0.00240745       0.00294891
Br       3.29659658       4.65400792       5.70987324      -0.00170228       0.00240847      -0.00294980
Br       5.48670633       1.55672470       9.50325392       0.00170062      -0.00240439       0.00294575
