9
Lattice="7.016371506100762 -1.1971397633789007e-07 4.05090411515024 2.338790364608373 6.615098410647945 4.05090415768565 -6.939329885245328e-08 3.026472696938109e-09 8.101808350493092" Properties=species:S:1:pos:R:3:forces:R:3 energy=-21.14922523498535 free_energy=-21.14922523498535 stress="9.305183630203828e-05 -2.2822010947720628e-08 2.1339245925844352e-09 -2.2822010947720628e-08 9.308374137617648e-05 1.5239250972243212e-09 2.1339245925844352e-09 1.5239250972243212e-09 9.309274173574522e-05" pbc="T T T"
Tl       2.33879069       1.65377444       4.05090429       0.00000009       0.00000004       0.00000004
Tl       7.01637104       4.96132386      12.15271240       0.00000024      -0.00000004       0.00000017
In       0.00000018       0.00000046       0.00000126      -0.00000005      -0.00000447      -0.00000980
I        2.37539979       1.67966146       8.10180864      -0.00401618      -0.00284135      -0.00000096
I        6.97976150       4.93543680       8.10180834       0.00401980       0.00284216      -0.00000051
I        5.82867176       1.67966136       6.10806140       0.00200760      -0.00284050      -0.00347893
I        3.52649095       4.93543592      10.09555379      -0.00201394       0.00284828       0.00348857
I        3.52649077       4.93543643       6.10806154      -0.00200982       0.00284238      -0.00348264
I        5.82867054       1.67966247      10.09555484       0.00201224      -0.00284661       0.00348404
