9
Lattice="6.367564328838564 -5.0933030580736787e-08 3.676315112136474 2.122521383092078 6.003397147442155 3.6763151326334707 4.440614009439634e-09 2.8243677898467052e-08 7.3526302165815185" Properties=species:S:1:pos:R:3:forces:R:3 energy=-27.36347770690918 free_energy=-27.36347770690918 stress="0.0002076815435430035 -2.736643089917834e-08 1.1921154730032413e-08 -2.736643089917834e-08 0.00020772716379724443 -1.4834022010745684e-08 1.1921154730032413e-08 -1.4834022010745684e-08 0.00020771261188201606" pbc="T T T"
Tl       2.12252132       1.50084925       3.67631512       0.00000012      -0.00000015       0.00000056
Tl       6.36756425       4.50254784      11.02894545      -0.00000014       0.00000007      -0.00000049
In      -0.00000015      -0.00000018      -0.00000026       0.00000035       0.00000079       0.00000471
Cl       2.07084090       1.46430531       7.35262995      -0.00298589      -0.00211108       0.00000107
Cl       6.41924537       4.53909182       7.35263033       0.00298372       0.00210956       0.00000050
Cl       5.33214325       1.46430603       5.46971644       0.00149418      -0.00211343      -0.00258893
Cl       3.15794191       4.53909153       9.23554436      -0.00149162       0.00211060       0.00258505
Cl       3.15794214       4.53909111       5.46971641      -0.00149426       0.00211352      -0.00258875
Cl       5.33214382       1.46430570       9.23554413       0.00149339      -0.00210974       0.00258631
