9
Lattice="6.750221846218758 1.5112946402831016e-08 3.8972424345070067 2.250074051187432 6.36417045403588 3.8972422817416437 7.950551394602578e-08 -1.30879484591667e-07 7.794484731306186" Properties=species:S:1:pos:R:3:forces:R:3 energy=-25.902008056640625 free_energy=-25.902008056640625 stress="0.000121175246022176 1.870378518731286e-08 4.141780607369583e-08 1.870378518731286e-08 0.0001211658091051504 -4.9223665143927064e-08 4.141780607369583e-08 -4.9223665143927064e-08 0.0001211441631312482" pbc="T T T"
Tl       2.25007392       1.59104238       3.89724232      -0.00000006       0.00000021       0.00000007
Tl       6.75022211       4.77312777      11.69172698       0.00000003       0.00000007      -0.00000001
Ir      -0.00000032       0.00000113       0.00000226       0.00000587      -0.00001437      -0.00003127
I        2.19627142       1.55299813       7.79448501      -0.00043210      -0.00030507       0.00000000
I        6.80402414       4.81117190       7.79448477       0.00043441       0.00030729       0.00000090
I        5.65208743       1.55299727       5.79926772       0.00020799      -0.00029426      -0.00036009
I        3.34820976       4.81117143       9.78969997      -0.00022028       0.00031207       0.00038166
I        3.34821035       4.81117209       5.79926874      -0.00021563       0.00030417      -0.00037124
I        5.65208508       1.55299922       9.78969997       0.00021972      -0.00031020       0.00037999
