9
Lattice="6.313882553658126 -1.9882500644381615e-07 3.6453221056151834 2.1046274578738533 5.95278540737592 3.6453218848794364 6.212398439247902e-08 -2.264165864195618e-07 7.290644103628285" Properties=species:S:1:pos:R:3:forces:R:3 energy=-26.49708366394043 free_energy=-26.49708366394043 stress="0.00024639524053782225 -5.080598697304595e-08 -1.1141453093443943e-08 -5.080598697304595e-08 0.0002463674754835665 1.8133597734504292e-08 -1.1141453093443943e-08 1.8133597734504292e-08 0.0002463307464495301" pbc="T T T"
Tl       2.10462765       1.48819604       3.64532201      -0.00000023      -0.00000007       0.00000016
Tl       6.31388235       4.46458849      10.93596558       0.00000031       0.00000023      -0.00000023
Mg       0.00000019       0.00000008       0.00000025       0.00000059       0.00000070      -0.00000382
Cl       2.03151079       1.43649276       7.29064499      -0.00148004      -0.00104736      -0.00000168
Cl       6.38699958       4.51629175       7.29064463       0.00147924       0.00104706      -0.00000042
Cl       5.29812879       1.43649417       5.40466041       0.00073940      -0.00104392      -0.00128016
Cl       3.12038243       4.51629166       9.17662715      -0.00074258       0.00104769       0.00128263
Cl       3.12038119       4.51629132       5.40466003      -0.00073890       0.00104316      -0.00128040
Cl       5.29812725       1.43649370       9.17662734       0.00074214      -0.00104775       0.00128415
