9
Lattice="4.830976136850578 1.2332371260522978e-07 2.789165331643482 1.610325436411105 4.554688695470674 2.7891654335049716 -8.825034471297924e-09 1.1851421404652458e-07 5.578330678572243" Properties=species:S:1:pos:R:3:forces:R:3 energy=-35.714088439941406 free_energy=-35.714088439941406 stress="0.0003358560788910836 -1.7540935814963632e-08 -4.606857828548527e-08 -1.7540935814963632e-08 0.0003356474335305393 4.578268786303852e-08 -4.606857828548527e-08 4.578268786303852e-08 0.0003357807290740311" pbc="T T T"
Tl       1.61032401       1.13867213       2.78916487      -0.00000587       0.00000088      -0.00000057
Tl       4.83097541       3.41601687       8.36749613      -0.00000569       0.00000051       0.00000051
Mg       0.00000019       0.00000007       0.00000004       0.00000099      -0.00000266       0.00000188
F        1.58958801       1.12400767       5.57833114      -0.00651294      -0.00460663       0.00000484
F        4.85171452       3.43068036       5.57833027       0.00651592       0.00460340      -0.00000479
F        4.03618190       1.12400801       4.16578856       0.00326064      -0.00460936      -0.00564043
F        2.40512002       3.43068131       6.99087304      -0.00325605       0.00461017       0.00564019
F        2.40511922       3.43068050       4.16578824      -0.00325559       0.00460668      -0.00564034
F        4.03618290       1.12400898       6.99087372       0.00325854      -0.00460286       0.00563829
