9
Lattice="6.8892061792688075 -7.74417580471656e-08 3.977485095836778 2.2964019985675597 6.495205928376113 3.9774850753568782 1.2644179526673036e-08 -1.6141864649590076e-08 7.954970169773189" Properties=species:S:1:pos:R:3:forces:R:3 energy=-28.145002365112305 free_energy=-28.145002365112305 stress="-0.0001636055385461077 -1.0415055484713776e-08 2.2491952744729815e-09 -1.0415055484713776e-08 -0.0001635981461731717 4.0235246245856615e-09 2.2491952744729815e-09 4.0235246245856615e-09 -0.00016359303845092654" pbc="T T T"
Tl       2.29640207       1.62380146       3.97748511      -0.00000020      -0.00000009       0.00000006
Tl       6.88920612       4.87140437      11.93245524       0.00000012       0.00000021       0.00000008
Mo      -0.00000007       0.00000009       0.00000009       0.00000008      -0.00000022      -0.00000164
I        2.27787084       1.61069790       7.95497017      -0.00084162      -0.00059512       0.00000003
I        6.90773736       4.88450788       7.95497016       0.00084147       0.00059526      -0.00000019
I        5.75027068       1.61069802       5.95017920       0.00042136      -0.00059597      -0.00072978
I        3.43533754       4.88450778       9.95976107      -0.00042200       0.00059669       0.00073069
I        3.43533755       4.88450778       5.95017926      -0.00042124       0.00059582      -0.00072955
I        5.75027066       1.61069805       9.95976106       0.00042203      -0.00059661       0.00073017
