9
Lattice="5.333639502798893 -1.5394354628700117e-07 3.0793782833366454 1.7778797465405898 5.028603415988846 3.0793781838932315 7.853534238352031e-08 -6.625980434608462e-08 6.158756430645924" Properties=species:S:1:pos:R:3:forces:R:3 energy=-42.63182830810547 free_energy=-42.63182830810547 stress="-4.1012579458765686e-05 -2.1277921646856157e-08 3.702452122666955e-09 -2.1277921646856157e-08 -4.102204184164293e-05 -1.082670841867639e-08 3.702452122666955e-09 -1.082670841867639e-08 -4.098656427231617e-05" pbc="T T T"
Tl       1.77787997       1.25715074       3.07937852       0.00000005      -0.00000021      -0.00000024
Tl       5.33363932       3.77145238       9.23813372      -0.00000068       0.00000018       0.00000084
Mn      -0.00000019      -0.00000001       0.00000027      -0.00000496      -0.00000795       0.00000437
F        1.51251309       1.06950770       6.15875614       0.00171933       0.00121707       0.00000157
F        5.59900591       3.95909497       6.15875625      -0.00170992      -0.00121047       0.00000182
F        4.57738266       1.06950870       4.38925339      -0.00085505       0.00121003       0.00148380
F        2.53413647       3.95909538       7.92825983       0.00085804      -0.00121543      -0.00148672
F        2.53413694       3.95909479       4.38925357       0.00085245      -0.00120845       0.00148095
F        4.57738300       1.06950797       7.92825966      -0.00085890       0.00121519      -0.00148624
