9
Lattice="6.205763492782621 9.186257966558657e-08 3.582899477457787 2.0685878902817034 5.850850517168063 3.582899524664384 -1.3003210513299498e-08 4.862139563298777e-08 7.165798977437844" Properties=species:S:1:pos:R:3:forces:R:3 energy=-33.4714241027832 free_energy=-33.4714241027832 stress="6.610908167203888e-05 -1.302888907872557e-08 -1.2736504295673967e-08 -1.302888907872557e-08 6.612337892875075e-05 2.903237117379831e-08 -1.2736504295673967e-08 2.903237117379831e-08 6.611912976950407e-05" pbc="T T T"
Tl       2.06858772       1.46271272       3.58289946      -0.00000001       0.00000008      -0.00000023
Tl       6.20576343       4.38813789      10.74869856       0.00000013       0.00000020       0.00000001
Mn       0.00000015      -0.00000011       0.00000030       0.00000349      -0.00000336      -0.00000646
Cl       1.87879421       1.32850869       7.16579905       0.00324595       0.00229321       0.00000002
Cl       6.39555686       4.52234250       7.16579906      -0.00324517      -0.00229636       0.00000046
Cl       5.26636605       1.32850877       5.20998332      -0.00162308       0.00229426       0.00281228
Cl       3.00798546       4.52234190       9.12161377       0.00161968      -0.00228997      -0.00280263
Cl       3.00798540       4.52234202       5.20998334       0.00162241      -0.00229390       0.00280894
Cl       5.26636628       1.32850818       9.12161497      -0.00162338       0.00229578      -0.00281222
