9
Lattice="6.5203968464087225 -1.7772730014919433e-08 3.764552707894243 2.173465621926664 6.147489192028017 3.7645526676875765 -2.691887767676255e-08 -6.827747778358092e-08 7.5291054624132725" Properties=species:S:1:pos:R:3:forces:R:3 energy=-23.96868133544922 free_energy=-23.96868133544922 stress="0.0001885825040517375 -2.3995202269588845e-08 1.8748785635125387e-08 -2.3995202269588845e-08 0.00018858768453355879 -2.2420890033458818e-08 1.8748785635125387e-08 -2.2420890033458818e-08 0.00018856280075851828" pbc="T T T"
Tl       2.17346554       1.53687233       3.76455269      -0.00000019      -0.00000053      -0.00000010
Tl       6.52039679       4.61061676      11.29365831       0.00000009       0.00000035      -0.00000002
Mg      -0.00000020      -0.00000016      -0.00000061       0.00000180       0.00000164       0.00000298
Br       2.17871510       1.54058431       7.52910547      -0.00314665      -0.00222541       0.00000035
Br       6.51514700       4.60690520       7.52910536       0.00314677       0.00222436       0.00000080
Br       5.43103934       1.54058404       5.65137513       0.00157386      -0.00222531      -0.00272495
Br       3.26282302       4.60690523       9.40683570      -0.00157183       0.00222288       0.00272498
Br       3.26282380       4.60690492       5.65137574      -0.00157483       0.00222515      -0.00272830
Br       5.43103931       1.54058385       9.40683554       0.00157087      -0.00222307       0.00272429
