9
Lattice="5.478978193766805 2.9203226127007147e-08 3.1632895910799452 1.8263261143822835 5.165630189714198 3.163289552524033 9.05884049806544e-08 1.6834500579317786e-08 6.326579025256158" Properties=species:S:1:pos:R:3:forces:R:3 energy=-43.36399459838867 free_energy=-43.36399459838867 stress="-0.00015144712233450264 2.5520575874793394e-08 1.2274971261660994e-08 2.5520575874793394e-08 -0.00015150207036640495 -1.5098452266215645e-08 1.2274971261660994e-08 -1.5098452266215645e-08 -0.00015147922385949641" pbc="T T T"
Tl       1.82632581       1.29140750       3.16328971       0.00000012       0.00000032       0.00000014
Tl       5.47897856       3.87422243       9.48986785       0.00000021      -0.00000000       0.00000014
Mo       0.00000001       0.00000016       0.00000043      -0.00000402      -0.00000213       0.00000588
F        1.64260238       1.16149546       6.32657877       0.00025979       0.00018325       0.00000072
F        5.66270170       4.00413491       6.32657903      -0.00025585      -0.00018117       0.00000025
F        4.65767700       1.16149532       4.58582532      -0.00012971       0.00018382       0.00022507
F        2.64762734       4.00413497       8.06733307       0.00013155      -0.00018674      -0.00022870
F        2.64762733       4.00413467       4.58582532       0.00012924      -0.00018257       0.00022349
F        4.65767735       1.16149570       8.06733314      -0.00013112       0.00018534      -0.00022706
