9
Lattice="6.790739658794329 -3.3160478611905453e-07 3.920635529624336 2.263579397592073 6.402371377991145 3.920635834521822 -2.3456761023037938e-07 2.07557289718483e-07 7.841271465531601" Properties=species:S:1:pos:R:3:forces:R:3 energy=-27.071239471435547 free_energy=-27.071239471435547 stress="-9.551488619763404e-05 -1.3172935631189375e-08 9.557973967844191e-09 -1.3172935631189375e-08 -9.549652895657346e-05 -6.417203657349546e-09 9.557973967844191e-09 -6.417203657349546e-09 -9.54931165324524e-05" pbc="T T T"
Tl       2.26357975       1.60059345       3.92063641      -0.00000011       0.00000020       0.00000004
Tl       6.79073911       4.80177786      11.76190621       0.00000010      -0.00000013       0.00000008
Mn      -0.00000000       0.00000009       0.00000035      -0.00000098      -0.00000055      -0.00000037
I        2.22014306       1.56987919       7.84127055       0.00822904       0.00581851      -0.00000006
I        6.83417568       4.83249194       7.84127151      -0.00822780      -0.00581735       0.00000113
I        5.68066763       1.56987951       5.84333663      -0.00411449       0.00581750       0.00712524
I        3.37365109       4.83249183       9.83920660       0.00411427      -0.00581865      -0.00712540
I        3.37365135       4.83249357       5.84333787       0.00411431      -0.00581772       0.00712519
I        5.68066763       1.56987758       9.83920534      -0.00411437       0.00581813      -0.00712582
