9
Lattice="6.940622429287535 4.3091093432002816e-08 4.007170202382467 2.3135408384213565 6.543681587195393 4.007170223111403 -2.0608791511595167e-08 1.0815027642263889e-08 8.014340440460401" Properties=species:S:1:pos:R:3:forces:R:3 energy=-20.920127868652344 free_energy=-20.920127868652344 stress="-0.00010341721645090729 7.018465364438953e-09 -3.7121210549884154e-09 7.018465364438953e-09 -0.000103414808108937 6.1218213658065235e-12 -3.7121210549884154e-09 6.1218213658065235e-12 -0.00010342063615098596" pbc="T T T"
Tl       2.31354080       1.63592041       4.00717024       0.00000002       0.00000008      -0.00000019
Tl       6.94062240       4.90776124      12.02151063       0.00000012      -0.00000010       0.00000012
Mg       0.00000021       0.00000009      -0.00000004      -0.00000067      -0.00000066       0.00000019
I        2.37522780       1.67953968       8.01434045      -0.00071521      -0.00050579       0.00000013
I        6.87893527       4.86414174       8.01434042       0.00071590       0.00050633      -0.00000005
I        5.75300848       1.67953984       6.06417787       0.00035743      -0.00050563      -0.00061914
I        3.50115475       4.86414186       9.96450308      -0.00035740       0.00050558       0.00061908
I        3.50115476       4.86414193       6.06417780      -0.00035725       0.00050554      -0.00061913
I        5.75300853       1.67953975       9.96450302       0.00035714      -0.00050534       0.00061902
