9
Lattice="6.451948005687418 8.193858711687723e-07 3.725033876338411 2.1506500249697393 6.082955310365438 3.7250340197240472 -4.8798347349611525e-08 1.4110526465803406e-07 7.450067837198092" Properties=species:S:1:pos:R:3:forces:R:3 energy=-30.56006622314453 free_energy=-30.56006622314453 stress="7.140211528167129e-05 1.9685241881006732e-08 -8.908248361194637e-09 1.9685241881006732e-08 7.141954120015725e-05 -8.250122252029257e-10 -8.908248361194637e-09 -8.250122252029257e-10 7.133901090128347e-05" pbc="T T T"
Tl       2.15064944       1.52073916       3.72503405      -0.00000011      -0.00000021      -0.00000001
Tl       6.45194837       4.56221688      11.17510145      -0.00000007       0.00000003      -0.00000020
Mn       0.00000183       0.00000128       0.00000181      -0.00002602      -0.00002173      -0.00002312
Br       1.95559445       1.38281492       7.45006814      -0.00159411      -0.00112934       0.00000118
Br       6.64700083       4.70013994       7.45006812       0.00162457       0.00114858       0.00000055
Br       5.47415053       1.38281621       5.41862737       0.00080046      -0.00113357      -0.00138181
Br       3.12844808       4.70014025       9.48150646      -0.00080709       0.00114091       0.00139734
Br       3.12844798       4.70014022       5.41862838      -0.00080213       0.00113496      -0.00138640
Br       5.47415054       1.38281620       9.48150701       0.00080448      -0.00113969       0.00139257
