9
Lattice="6.55868134252478 -2.4739985958428256e-07 3.7866566246124407 2.1862268514062575 6.183584070944905 3.786656675738859 -5.681795687708952e-08 2.244040242077135e-08 7.573313347636251" Properties=species:S:1:pos:R:3:forces:R:3 energy=-32.79710388183594 free_energy=-32.79710388183594 stress="0.00013793382095173 -1.3015004185490398e-07 1.2971883123213956e-08 -1.3015004185490398e-07 0.00013803201727569103 -2.381623076530559e-08 1.2971883123213956e-08 -2.381623076530559e-08 0.00013811040844302624" pbc="T T T"
Tl       2.18622710       1.54589604       3.78665664      -0.00000021      -0.00000001      -0.00000003
Tl       6.55868089       4.63768766      11.35997003       0.00000005       0.00000001      -0.00000010
Nb      -0.00000049       0.00000058       0.00000152       0.00000415      -0.00000792      -0.00002644
Br       2.11008197       1.49205299       7.57331325      -0.00316073      -0.00223479      -0.00000042
Br       6.63482603       4.69153030       7.57331356       0.00316297       0.00223681      -0.00000109
Br       5.50363998       1.49205374       5.61404215       0.00158186      -0.00223775      -0.00274086
Br       3.24126925       4.69152944       9.53258341      -0.00159403       0.00225306       0.00275886
Br       3.24126852       4.69152998       5.61404249      -0.00158589       0.00224257      -0.00274682
Br       5.50363926       1.49205470       9.53258349       0.00159184      -0.00225201       0.00275698
