9
Lattice="6.250961988226035 -2.140495943912187e-07 3.6089947946318244 2.0836538772643656 5.893463521008104 3.6089946508768085 2.623697387090992e-08 -1.575108313281568e-07 7.2179895438199155" Properties=species:S:1:pos:R:3:forces:R:3 energy=-24.949899673461914 free_energy=-24.949899673461914 stress="-0.00015435875684488565 -3.072906151757593e-09 9.94473214888103e-09 -3.072906151757593e-09 -0.0001543507241876796 -5.323040966342951e-11 9.94473214888103e-09 -5.323040966342951e-11 -0.0001543578109703958" pbc="T T T"
Tl       2.08365393       1.47336599       3.60899487       0.00000003      -0.00000033       0.00000013
Tl       6.25096189       4.42009715      10.82698407       0.00000005      -0.00000004       0.00000022
Ni      -0.00000078       0.00000003       0.00000176       0.00000845       0.00000285      -0.00002168
Br       2.00117296       1.41504287       7.21798959       0.00699779       0.00494877      -0.00000051
Br       6.33344390       4.47842051       7.21798936      -0.00700787      -0.00495386       0.00000017
Br       5.25037560       1.41504223       5.34206103      -0.00350372       0.00495610       0.00606856
Br       3.08424072       4.47841997       9.09391750       0.00349763      -0.00494501      -0.00605926
Br       3.08424028       4.47842065       5.34206079       0.00350434      -0.00495464       0.00606972
Br       5.25037498       1.41504320       9.09391705      -0.00349671       0.00494581      -0.00605723
