9
Lattice="6.0977930282341966 1.7878968615453444e-07 3.520562319112601 2.032597797378796 5.749052413591519 3.520562400975926 9.464500445370327e-08 1.6718575639141254e-07 7.041124474295319" Properties=species:S:1:pos:R:3:forces:R:3 energy=-27.252206802368164 free_energy=-27.252206802368164 stress="2.1616478989017196e-05 3.135160797640424e-09 -4.940667319708325e-10 3.135160797640424e-09 2.1493651729542762e-05 9.086781993516979e-09 -4.940667319708325e-10 9.086781993516979e-09 2.156487971660681e-05" pbc="T T T"
Tl       2.03259793       1.43726284       3.52056259      -0.00000057      -0.00000051       0.00000068
Tl       6.09779321       4.31178989      10.56168742      -0.00000021       0.00000023      -0.00000019
Ni      -0.00000016      -0.00000055       0.00000116      -0.00000225       0.00000444      -0.00001578
Cl       1.90921630       1.35001949       7.04112537       0.00482029       0.00341263      -0.00000352
Cl       6.22117359       4.39903265       7.04112546      -0.00481606      -0.00340906      -0.00000111
Cl       5.14318435       1.35001850       5.17399136      -0.00241336       0.00341412       0.00417861
Cl       2.98720645       4.39903259       8.90825644       0.00240730      -0.00340700      -0.00417200
Cl       2.98720709       4.39903624       5.17399075       0.00241239      -0.00342026       0.00418389
Cl       5.14318504       1.35001930       8.90825633      -0.00240736       0.00340536      -0.00417066
