9
Lattice="6.6117081489791625 1.0355544173937853e-07 3.8172712732550584 2.2039027081464706 6.233578188822526 3.8172714565286903 -7.359841983559788e-08 1.724213573495982e-07 7.634542673986472" Properties=species:S:1:pos:R:3:forces:R:3 energy=-22.383121490478516 free_energy=-22.383121490478516 stress="-0.00010033287253463641 8.661815154020758e-10 3.0106526160977864e-09 8.661815154020758e-10 -0.00010033136641141027 4.6552326438131786e-09 3.0106526160977864e-09 4.6552326438131786e-09 -0.00010033864964498207" pbc="T T T"
Tl       2.20390261       1.55839479       3.81727136       0.00000007       0.00000007       0.00000008
Tl       6.61170823       4.67518376      11.45181417      -0.00000017      -0.00000019       0.00000012
Ni      -0.00000011      -0.00000007       0.00000044       0.00000014       0.00000107      -0.00000088
I        2.21346652       1.56515805       7.63454251       0.00062838       0.00044432      -0.00000039
I        6.60214453       4.66842064       7.63454256      -0.00062951      -0.00044465       0.00000015
I        5.50497464       1.56515766       5.73418939      -0.00031451       0.00044477       0.00054483
I        3.31063604       4.66842053       9.53489593       0.00031473      -0.00044413      -0.00054552
I        3.31063608       4.66842060       5.73418926       0.00031503      -0.00044550       0.00054610
I        5.50497455       1.56515792       9.53489605      -0.00031418       0.00044425      -0.00054458
