9
Lattice="5.409837024624919 -9.033350719958369e-08 3.1233707836669593 1.803278967783715 5.100442711728816 3.123370706170446 1.3115342771781885e-08 -8.563951752791044e-08 6.2467415446174135" Properties=species:S:1:pos:R:3:forces:R:3 energy=-47.99407196044922 free_energy=-47.99407196044922 stress="0.0001230156049132347 6.353748460696806e-08 -1.3477792215610407e-08 6.353748460696806e-08 0.00012297190551180393 -1.5143388765181953e-08 -1.3477792215610407e-08 -1.5143388765181953e-08 0.00012289959704503417" pbc="T T T"
Tl       1.80327904       1.27511051       3.12337094      -0.00000013      -0.00000030      -0.00000016
Tl       5.40983715       3.82533229       9.37011283      -0.00000055       0.00000015      -0.00000049
Nb       0.00000000       0.00000003       0.00000007      -0.00000483      -0.00000863      -0.00000400
F        1.64092201       1.16030666       6.24674162      -0.00151002      -0.00106758      -0.00000050
F        5.57219373       3.94013570       6.24674172       0.00151759       0.00107276       0.00000018
F        4.58937612       1.16030661       4.54445033       0.00075348      -0.00106451      -0.00130451
F        2.62373967       3.94013601       7.94903222      -0.00075522       0.00106815       0.00130841
F        2.62373993       3.94013585       4.54445043      -0.00075427       0.00106657      -0.00130546
F        4.58937638       1.16030645       7.94903211       0.00075404      -0.00106657       0.00130671
