9
Lattice="4.901793923684894 -2.9379404617826084e-08 2.8300519795438586 1.6339312746081989 4.621455309877645 2.8300519892219405 -4.41733124726132e-08 -1.9382116174525807e-08 5.660104035598161" Properties=species:S:1:pos:R:3:forces:R:3 energy=-34.231651306152344 free_energy=-34.231651306152344 stress="-0.0005251717520877719 6.449715428402669e-09 -1.3872361925848509e-08 6.449715428402669e-09 -0.0005251753027550876 4.161715594364068e-08 -1.3872361925848509e-08 4.161715594364068e-08 -0.0005250886897556484" pbc="T T T"
Tl       1.63393141       1.15536401       2.83005210       0.00000078      -0.00000088       0.00000007
Tl       4.90179385       3.46609154       8.49015609       0.00000069       0.00000099      -0.00000010
Ni       0.00000049      -0.00000092      -0.00000077      -0.00001452       0.00002668       0.00002651
F        1.51597559       1.07195634       5.66010379      -0.00454448      -0.00321374      -0.00000112
F        5.01974987       3.54949905       5.66010388       0.00454380       0.00320913      -0.00000071
F        4.14380583       1.07195658       4.14292578       0.00227917      -0.00322239      -0.00394692
F        2.39191873       3.54949959       7.17728300      -0.00226578       0.00320157       0.00392472
F        2.39191897       3.54949908       4.14292534      -0.00227169       0.00321063      -0.00393642
F        4.14380602       1.07195584       7.17728277       0.00227199      -0.00321198       0.00393347
