9
Lattice="7.034127470196305 -1.0858857931760726e-07 4.061155352106478 2.3447090899089678 6.631838936056686 4.061155290522975 -6.467121112323491e-08 -1.2115348409498544e-07 8.122310816226737" Properties=species:S:1:pos:R:3:forces:R:3 energy=-28.965171813964844 free_energy=-28.965171813964844 stress="3.970009493059479e-05 7.069204777110372e-09 9.822151092464537e-09 7.069204777110372e-09 3.968892997363582e-05 -9.242109300089396e-09 9.822151092464537e-09 -9.242109300089396e-09 3.970024044974707e-05" pbc="T T T"
Tl       2.34470925       1.65795980       4.06115504       0.00000008       0.00000067      -0.00000048
Tl       7.03412741       4.97387897      12.18346604       0.00000033      -0.00000061       0.00000012
Nb      -0.00000016      -0.00000001      -0.00000184       0.00000233       0.00000004       0.00001990
I        2.28856015       1.61825625       8.12231075      -0.00049448      -0.00035005       0.00000033
I        7.09027652       5.01358262       8.12231062       0.00049236       0.00034830       0.00000036
I        5.88984713       1.61825635       6.04310702       0.00024893      -0.00035213      -0.00043116
I        3.48898866       5.01358303      10.20151550      -0.00024339       0.00034419       0.00042238
I        3.48898942       5.01358198       6.04310738      -0.00025015       0.00035425      -0.00043449
I        5.88984753       1.61825588      10.20151534       0.00024396      -0.00034460       0.00042307
