9
Lattice="6.394848769324146 3.827306640797453e-07 3.6920685434307194 2.13161671119575 6.029122172087104 3.692068380769997 -4.411391271343216e-08 -2.304116848902612e-07 7.384137163269339" Properties=species:S:1:pos:R:3:forces:R:3 energy=-23.795269012451172 free_energy=-23.795269012451172 stress="-5.5982714002311695e-06 2.4181938229617117e-08 -3.355756916789687e-08 2.4181938229617117e-08 -5.69432404518011e-06 2.03615186933348e-08 -3.355756916789687e-08 2.03615186933348e-08 -5.750615855504293e-06" pbc="T T T"
Tl       2.13161596       1.50728053       3.69206913      -0.00000006      -0.00000018      -0.00000007
Tl       6.39484913       4.52184099      11.07620445      -0.00000037       0.00000015      -0.00000047
N       -0.00000188       0.00000045       0.00000013       0.00001392      -0.00000287      -0.00000422
Cl       1.76923639       1.25103766       7.38413754       0.00044161       0.00031728      -0.00000324
Cl       6.75722978       4.77808476       7.38413696      -0.00044873      -0.00031950      -0.00000551
Cl       5.51023167       1.25103645       5.22426988      -0.00023029       0.00033018       0.00039853
Cl       3.01623653       4.77808278       9.54400407       0.00021649      -0.00031141      -0.00039016
Cl       3.01623278       4.77808722       5.22426896       0.00023130      -0.00033092       0.00040168
Cl       5.51023187       1.25103792       9.54400532      -0.00022369       0.00031729      -0.00039686
