9
Lattice="4.832377753199077 1.2065958869801953e-07 2.789974629786575 1.6107927053553157 4.5560091266194025 2.789974617321717 8.532182931569048e-08 4.5065303669615267e-08 5.579949111791437" Properties=species:S:1:pos:R:3:forces:R:3 energy=-31.373394012451172 free_energy=-31.373394012451172 stress="2.931625203927979e-05 8.462981071488684e-08 -6.940156449530832e-09 8.462981071488684e-08 2.9155042284401134e-05 -2.3613594635207846e-08 -6.940156449530832e-09 -2.3613594635207846e-08 2.9166036256356165e-05" pbc="T T T"
Tl       1.61079274       1.13900229       2.78997452       0.00000034      -0.00000025       0.00000001
Tl       4.83237805       3.41700701       8.36992386       0.00000027       0.00000012      -0.00000025
N       -0.00000003      -0.00000003      -0.00000000      -0.00000481       0.00000325       0.00000144
F        1.40023424       0.99011487       5.57994894      -0.00001618      -0.00001334      -0.00000017
F        5.04293624       3.56589526       5.57994925       0.00001857       0.00000857      -0.00000062
F        4.13226108       0.99011415       4.00261220       0.00000683      -0.00000625      -0.00000552
F        2.31090898       3.56589534       7.15728637      -0.00000419       0.00000468       0.00000697
F        2.31090958       3.56589428       4.00261230      -0.00000567       0.00000741      -0.00000893
F        4.13226143       0.99011422       7.15728654       0.00000507      -0.00000406       0.00000720
