9
Lattice="6.1561074986663735 -2.751381668582184e-07 3.5542305273044623 2.0520355474170144 5.804033747692312 3.55423057245739 -5.194726277976074e-08 1.8568587496757202e-08 7.1084611445842825" Properties=species:S:1:pos:R:3:forces:R:3 energy=-28.925207138061523 free_energy=-28.925207138061523 stress="0.00012507991050370038 -1.7155916509636882e-07 -2.348850358657728e-08 -1.7155916509636882e-07 0.00012518935545813292 1.7653770001402336e-08 -2.348850358657728e-08 1.7653770001402336e-08 0.00012531042739283293" pbc="T T T"
Tl       2.05203585       1.45100866       3.55423092      -0.00000008      -0.00000003      -0.00000003
Tl       6.15610719       4.35302492      10.66269186       0.00000012       0.00000009      -0.00000008
Pt      -0.00000015      -0.00000008      -0.00000107       0.00000292       0.00000574       0.00001998
Cl       1.91931224       1.35715837       7.10846108      -0.00260441      -0.00184064      -0.00000050
Cl       6.28883164       4.44687528       7.10846141       0.00259706       0.00183727      -0.00000095
Cl       5.19645005       1.35715945       5.21640503       0.00131360      -0.00185599      -0.00227418
Cl       3.01169193       4.44687426       9.00051749      -0.00130665       0.00184865       0.00226220
Cl       3.01169230       4.44687391       5.21640461      -0.00130936       0.00185269      -0.00226857
Cl       5.19645091       1.35715912       9.00051760       0.00130681      -0.00184782       0.00226227
