9
Lattice="6.825195551549946 3.9890196753978435e-08 3.9405284481582465 2.275065207852572 6.434856053735542 3.940528471724925 -2.5894712442432826e-08 1.0552860445152261e-08 7.8810569411674125" Properties=species:S:1:pos:R:3:forces:R:3 energy=-21.716108322143555 free_energy=-21.716108322143555 stress="0.0002050420007435605 1.8148639258086519e-09 -2.2878527961012196e-09 1.8148639258086519e-09 0.00020502819097600877 -1.6116040724156733e-09 -2.2878527961012196e-09 -1.6116040724156733e-09 0.00020502530969679356" pbc="T T T"
Tl       2.27506516       1.60871417       3.94052841      -0.00000002      -0.00000020      -0.00000004
Tl       6.82519554       4.82614195      11.82158541       0.00000011       0.00000019       0.00000000
P       -0.00000004       0.00000000      -0.00000002      -0.00000001       0.00000026       0.00000057
I        2.27202605       1.60656490       7.88105694       0.00692195       0.00489475       0.00000015
I        6.82823481       4.82829124       7.88105695      -0.00692216      -0.00489487      -0.00000013
I        5.68918260       1.60656491       5.90816067      -0.00346103       0.00489509       0.00599512
I        3.41107812       4.82829122       9.85395321       0.00346090      -0.00489547      -0.00599542
I        3.41107812       4.82829122       5.90816067       0.00346133      -0.00489504       0.00599528
I        5.68918257       1.60656482       9.85395324      -0.00346112       0.00489538      -0.00599556
