9
Lattice="6.641519003747123 -2.1352643061142922e-07 3.8344827661586334 2.2138395036006604 6.261684264850383 3.8344827020734265 6.028474853369172e-09 -7.422523460807886e-08 7.668965521875644" Properties=species:S:1:pos:R:3:forces:R:3 energy=-24.313655853271484 free_energy=-24.313655853271484 stress="7.495006866520271e-05 -8.487071490037579e-09 2.176274049858762e-09 -8.487071490037579e-09 7.496013859054074e-05 -2.671939114406996e-09 2.176274049858762e-09 -2.671939114406996e-09 7.497103797504678e-05" pbc="T T T"
Tl       2.21383987       1.56542108       3.83448243       0.00000039       0.00000050      -0.00000097
Tl       6.64151876       4.69626283      11.50344846      -0.00000024      -0.00000038       0.00000012
Pb      -0.00000035      -0.00000084       0.00000035       0.00000303       0.00000569      -0.00000424
Br       2.31801338       1.63908276       7.66896591      -0.00029465      -0.00020801       0.00000008
Br       6.53734589       4.62260164       7.66896573       0.00029022       0.00020468      -0.00000007
Br       5.48251244       1.63908232       5.84194105       0.00014639      -0.00020687      -0.00025308
Br       3.37284635       4.62260121       9.49598974      -0.00014726       0.00020769       0.00025452
Br       3.37284593       4.62260168       5.84194065      -0.00014572       0.00020625      -0.00025279
Br       5.48251175       1.63908323       9.49598963       0.00014772      -0.00020957       0.00025639
