9
Lattice="6.690136494987588 9.288939758283349e-08 3.8625520100075907 2.230045584686567 6.307520906887634 3.862552012119974 2.4040420154999813e-08 1.9586319042427933e-08 7.725103978375953" Properties=species:S:1:pos:R:3:forces:R:3 energy=-22.365459442138672 free_energy=-22.365459442138672 stress="-2.0200703147565946e-05 2.0867714223271605e-09 -4.0416447966151736e-10 2.0867714223271605e-09 -2.0208832211210392e-05 8.002943197027435e-09 -4.0416447966151736e-10 8.002943197027435e-09 -2.02161209017504e-05" pbc="T T T"
Tl       2.23004557       1.57687993       3.86255198      -0.00000011       0.00000003      -0.00000008
Tl       6.69013654       4.73064080      11.58765594      -0.00000003      -0.00000011      -0.00000005
Pd      -0.00000005      -0.00000021       0.00000015      -0.00000028       0.00000073      -0.00000053
I        2.23463170       1.58012316       7.72510427      -0.00145371      -0.00102839      -0.00000063
I        6.68555036       4.72739813       7.72510391       0.00145389       0.00102829       0.00000035
I        5.57282148       1.58012325       5.79779985       0.00072651      -0.00102796      -0.00125853
I        3.34736080       4.72739788       9.65240796      -0.00072671       0.00102766       0.00125902
I        3.34736069       4.72739790       5.79779975      -0.00072619       0.00102702      -0.00125796
I        5.57282128       1.58012324       9.65240819       0.00072666      -0.00102729       0.00125838
