9
Lattice="5.403937559846822 1.1305942428840957e-07 3.119964970298525 1.8013125424848466 5.094881531803213 3.119965115890408 -5.460516349450617e-08 1.397012444170957e-07 6.239930035175952" Properties=species:S:1:pos:R:3:forces:R:3 energy=-37.233741760253906 free_energy=-37.233741760253906 stress="9.585131920175627e-05 -1.6564916549555164e-08 -7.825618553169988e-08 -1.6564916549555164e-08 9.589586989022791e-05 1.2757649869854504e-07 -7.825618553169988e-08 1.2757649869854504e-07 9.592132846591994e-05" pbc="T T T"
Tl       1.80131253       1.27372038       3.11996513      -0.00000095       0.00000017       0.00000002
Tl       5.40393731       3.82116113       9.35989402      -0.00000004      -0.00000000       0.00000140
Pt      -0.00000004       0.00000026       0.00000012       0.00000912      -0.00000373      -0.00001595
F        1.61252792       1.14022987       6.23993050      -0.00410344      -0.00290154      -0.00000082
F        5.59272230       3.95465197       6.23993049       0.00409891       0.00289978      -0.00000062
F        4.59767384       1.14022950       4.51645568       0.00205123      -0.00290211      -0.00355473
F        2.60757660       3.95465197       7.96340488      -0.00205727       0.00291023       0.00356397
F        2.60757595       3.95465253       4.51645484      -0.00204758       0.00289626      -0.00354601
F        4.59767370       1.14022960       7.96340494       0.00204995      -0.00289908       0.00355273
