9
Lattice="6.110585630236696 -2.2411714050105135e-07 3.5279485697991846 2.036861684703808 5.761115077241893 3.527948536443747 1.3007809663457436e-08 -3.165418884864654e-08 7.055897117068468" Properties=species:S:1:pos:R:3:forces:R:3 energy=-27.436126708984375 free_energy=-27.436126708984375 stress="0.00022012768022250384 -3.6540509285032385e-08 -3.907182077877991e-10 -3.6540509285032385e-08 0.00022012159752193838 -7.905060606105963e-09 -3.907182077877991e-10 -7.905060606105963e-09 0.00022015774447936565" pbc="T T T"
Tl       2.03686186       1.44027868       3.52794844       0.00000026      -0.00000014       0.00000003
Tl       6.11058545       4.32083613      10.58384587      -0.00000009       0.00000012       0.00000000
Pd       0.00000005      -0.00000014      -0.00000052      -0.00000547      -0.00000169       0.00001307
Cl       1.92607062       1.36193712       7.05589736      -0.00496240      -0.00350764      -0.00000050
Cl       6.22137617       4.39917757       7.05589697       0.00496833       0.00351146       0.00000028
Cl       5.14754955       1.36193787       5.19597547       0.00248599      -0.00351495      -0.00430569
Cl       2.99989741       4.39917741       8.91581915      -0.00248252       0.00350918       0.00429860
Cl       2.99989798       4.39917711       5.19597526      -0.00248675       0.00351399      -0.00430547
Cl       5.14755007       1.36193750       8.91581907       0.00248261      -0.00351031       0.00429963
