9
Lattice="5.2736405903546295 -1.1348661940889583e-07 3.0447378870824204 1.757880143966444 4.9720359172270685 3.044737793243687 -3.219906019193079e-08 -1.3769658837723156e-07 6.089475829935143" Properties=species:S:1:pos:R:3:forces:R:3 energy=-41.81622314453125 free_energy=-41.81622314453125 stress="-1.6161173334694467e-05 2.33717525333077e-08 -4.5479676913373623e-08 2.33717525333077e-08 -1.6228241292992607e-05 3.402548642839065e-08 -4.5479676913373623e-08 3.402548642839065e-08 -1.617431735212449e-05" pbc="T T T"
Tl       1.75788039       1.24300860       3.04473753       0.00000051       0.00000053       0.00000028
Tl       5.27364079       3.72902664       9.13421315      -0.00000017       0.00000042       0.00000051
P       -0.00000009       0.00000013       0.00000001       0.00000255      -0.00000354       0.00000821
F        1.34889442       0.95381228       6.08947551       0.00045165       0.00031914      -0.00000004
F        5.68262616       4.01822365       6.08947570      -0.00045088      -0.00032161       0.00000066
F        4.59919335       0.95381210       4.21291510      -0.00022693       0.00032210       0.00039133
F        2.43232724       4.01822333       7.96603683       0.00022553      -0.00031923      -0.00039127
F        2.43232723       4.01822382       4.21291502       0.00022629      -0.00032179       0.00038944
F        4.59919336       0.95381225       7.96603711      -0.00022854       0.00032383      -0.00039917
