9
Lattice="6.756848049939108 2.57420365079532e-08 3.901067986596377 2.252282777359742 6.370417197862784 3.9010678657391797 3.929919252813709e-08 -1.2023046842337996e-07 7.802135905124426" Properties=species:S:1:pos:R:3:forces:R:3 energy=-23.315637588500977 free_energy=-23.315637588500977 stress="-8.560768037568778e-06 3.9984495714406876e-09 1.03800932294007e-08 3.9984495714406876e-09 -8.55479265737813e-06 -5.5984075153503454e-09 1.03800932294007e-08 -5.5984075153503454e-09 -8.536903806088958e-06" pbc="T T T"
Tl       2.25228287       1.59260428       3.90106790       0.00000006       0.00000026       0.00000027
Tl       6.75684789       4.77781289      11.70320390      -0.00000001      -0.00000023      -0.00000005
Pt       0.00000062       0.00000055      -0.00000009      -0.00000461      -0.00000501      -0.00000276
I        2.21837432       1.56862740       7.80213626       0.00053635       0.00037882      -0.00000145
I        6.79075593       4.80178920       7.80213598      -0.00053054      -0.00037479       0.00000060
I        5.64766161       1.56862717       5.82223644      -0.00026893       0.00037912       0.00046321
I        3.36146951       4.80178949       9.78203502       0.00026692      -0.00037672      -0.00046073
I        3.36146991       4.80179010       5.82223664       0.00026699      -0.00037856       0.00046144
I        5.64766087       1.56862732       9.78203502      -0.00026628       0.00037722      -0.00046062
