9
Lattice="6.503391214866334 1.7808509366846767e-07 3.7547348215800525 2.1677970496286156 6.131456941628998 3.7547351504854967 -1.6601005230872873e-07 2.8543855028884483e-07 7.509469930698129" Properties=species:S:1:pos:R:3:forces:R:3 energy=-27.40323829650879 free_energy=-27.40323829650879 stress="-3.463051689323038e-05 4.5788802083279734e-08 2.117267960954905e-08 4.5788802083279734e-08 -3.4620625228853896e-05 -1.4529427438958464e-08 2.117267960954905e-08 -1.4529427438958464e-08 -3.4695916838245466e-05" pbc="T T T"
Tl       2.16779736       1.53286385       3.75473560       0.00000016      -0.00000005       0.00000033
Tl       6.50339137       4.59859273      11.26420569       0.00000034       0.00000005       0.00000017
P       -0.00000016       0.00000014       0.00000006      -0.00000030       0.00000357      -0.00000212
Cl       1.86044753       1.31553652       7.50946959       0.00056341       0.00039617       0.00000019
Cl       6.81074127       4.81592243       7.50946968      -0.00056819      -0.00040151       0.00000120
Cl       5.57316790       1.31553448       5.36592911      -0.00028649       0.00040516       0.00049585
Cl       3.09801996       4.81592204       9.65301107       0.00028721      -0.00040220      -0.00049777
Cl       3.09802014       4.81592209       5.36592893       0.00028687      -0.00040297       0.00049543
Cl       5.57316691       1.31553566       9.65301027      -0.00028293       0.00040189      -0.00049343
