9
Lattice="5.551377663639108 -1.4165477004296248e-07 3.205089345072689 1.8504591436823767 5.233888968709271 3.2050892480385116 2.049328765187892e-08 -1.0435119834892974e-07 6.4101786546499575" Properties=species:S:1:pos:R:3:forces:R:3 energy=-37.11432647705078 free_energy=-37.11432647705078 stress="-0.0001910225983010605 8.034344745055932e-08 1.0486770563034042e-08 8.034344745055932e-08 -0.00019108798005618155 -1.9919726312878083e-08 1.0486770563034042e-08 -1.9919726312878083e-08 -0.00019114774477202445" pbc="T T T"
Tl       1.85045930       1.30847201       3.20508948       0.00000034       0.00000007       0.00000039
Tl       5.55137793       3.92541673       9.61526839      -0.00000062      -0.00000049       0.00000004
Pb       0.00000002       0.00000003       0.00000030      -0.00000321      -0.00000482       0.00000928
F        1.72452700       1.21942467       6.41017824       0.00359160       0.00253943       0.00000151
F        5.67730960       4.01446394       6.41017804      -0.00358661      -0.00253581       0.00000080
F        4.68911400       1.21942473       4.69857326      -0.00179658       0.00254098       0.00311379
F        2.71272228       4.01446468       8.12178402       0.00179970      -0.00254606      -0.00311865
F        2.71272286       4.01446404       4.69857325       0.00179598      -0.00253930       0.00311151
F        4.68911439       1.21942403       8.12178387      -0.00180072       0.00254589      -0.00311880
