9
Lattice="6.38898193046839 7.264389165502444e-08 3.688680454915178 2.129660651694786 6.023590062073625 3.688680559330181 -1.353446197240844e-07 3.2178610186709204e-08 7.377361144254106" Properties=species:S:1:pos:R:3:forces:R:3 energy=-27.183080673217773 free_energy=-27.183080673217773 stress="0.0001895642199087888 3.627262756822347e-08 -1.9955892938128272e-08 3.627262756822347e-08 0.00018956890562549233 1.634525403915177e-08 -1.9955892938128272e-08 1.634525403915177e-08 0.00018956624262500554" pbc="T T T"
Tl       2.12966058       1.50589754       3.68868052      -0.00000019       0.00000002       0.00000001
Tl       6.38898178       4.51769258      11.06604165       0.00000013      -0.00000019      -0.00000003
Pb       0.00000061       0.00000013       0.00000006      -0.00001024      -0.00000261      -0.00000428
Cl       2.11121607       1.49285535       7.37736122      -0.00143727      -0.00101597      -0.00000045
Cl       6.40742610       4.53073463       7.37736116       0.00144495       0.00102124      -0.00000036
Cl       5.33337393       1.49285505       5.51704749       0.00071982      -0.00101616      -0.00124652
Cl       3.18526847       4.53073513       9.23767465      -0.00071917       0.00101713       0.00124702
Cl       3.18526823       4.53073542       5.51704700      -0.00071735       0.00101340      -0.00124170
Cl       5.33337401       1.49285482       9.23767492       0.00071938      -0.00101679       0.00124632
