9
Lattice="6.351894416226251 2.5833532615686082e-08 3.667267928340083 2.1172981639204718 5.988623453872323 3.6672679269157977 2.442040888109164e-09 -1.7598817115224093e-11 7.334535852450434" Properties=species:S:1:pos:R:3:forces:R:3 energy=-26.033889770507812 free_energy=-26.033889770507812 stress="-0.00023189332569018006 -5.305308636849304e-09 -2.8613085234496793e-09 -5.305308636849304e-09 -0.00023188270279206336 -9.86532411317853e-10 -2.8613085234496793e-09 -9.86532411317853e-10 -0.00023188603518065065" pbc="T T T"
Tl       2.11729813       1.49715586       3.66726792       0.00000008      -0.00000010      -0.00000002
Tl       6.35189442       4.49146761      11.00180378       0.00000002       0.00000013       0.00000007
Pt       0.00000008       0.00000003      -0.00000015       0.00000015      -0.00000232      -0.00000209
Br       2.04149994       1.44355841       7.33453586      -0.00684699      -0.00484194       0.00000005
Br       6.42769257       4.54506499       7.33453587       0.00684849       0.00484275       0.00000006
Br       5.33114449       1.44355841       5.43525867       0.00342353      -0.00484202      -0.00592973
Br       3.13804809       4.54506512       9.23381312      -0.00342489       0.00484348       0.00593172
Br       3.13804810       4.54506509       5.43525868      -0.00342435       0.00484284      -0.00593077
Br       5.33114451       1.44355840       9.23381310       0.00342401      -0.00484281       0.00593084
