9
Lattice="5.301058436413659 3.068682348517764e-08 3.060567493465653 1.7670195300660456 4.997885650267279 3.0605674547895747 1.6180443407580792e-08 -3.5927017723916824e-08 6.121134958905978" Properties=species:S:1:pos:R:3:forces:R:3 energy=-35.57160568237305 free_energy=-35.57160568237305 stress="0.00021518519497476518 9.574353754260301e-08 2.0420564794676466e-08 9.574353754260301e-08 0.00021511423983611166 -3.4301776974388076e-09 2.0420564794676466e-08 -3.4301776974388076e-09 0.0002150362270185724" pbc="T T T"
Tl       1.76701941       1.24947134       3.06056741       0.00000046      -0.00000005      -0.00000029
Tl       5.30105860       3.74841435       9.18170204      -0.00000034      -0.00000019       0.00000047
Pd       0.00000012      -0.00000017      -0.00000013      -0.00000053       0.00000715      -0.00000035
F        1.60654621       1.13599943       6.12113545      -0.00417430      -0.00295135      -0.00000127
F        5.46153195       3.86188610       6.12113524       0.00417098       0.00294962      -0.00000121
F        4.49778613       1.13599875       4.45187660       0.00208075      -0.00294355      -0.00360707
F        2.57029261       3.86188636       7.79039326      -0.00208298       0.00294470       0.00360504
F        2.57029186       3.86188702       4.45187668      -0.00207961       0.00294196      -0.00360485
F        4.49778507       1.13599936       7.79039301       0.00208546      -0.00294831       0.00360956
