9
Lattice="6.416609382196042 -6.868155702850816e-08 3.704631149156607 2.1388697727217205 6.049637297651591 3.7046310739683252 -3.3234002328910833e-08 -1.1558641772574084e-07 7.40926235587618" Properties=species:S:1:pos:R:3:forces:R:3 energy=-24.420438766479492 free_energy=-24.420438766479492 stress="8.64029279910028e-05 3.14403197920754e-10 2.0086468044411276e-09 3.14403197920754e-10 8.643175533507019e-05 5.295514693415271e-09 2.0086468044411276e-09 5.295514693415271e-09 8.642239845357835e-05" pbc="T T T"
Tl       2.13886985       1.51240924       3.70463103       0.00000004      -0.00000019       0.00000015
Tl       6.41660929       4.53722775      11.11389351      -0.00000017      -0.00000011      -0.00000025
P        0.00000011       0.00000065       0.00000055       0.00000031      -0.00000137      -0.00000136
Br       2.09096036       1.47853225       7.40926247      -0.00101793      -0.00071983      -0.00000011
Br       6.46451868       4.57110470       7.40926233       0.00101790       0.00072031       0.00000038
Br       5.37112924       1.47853231       5.51545579       0.00050908      -0.00072053      -0.00088178
Br       3.18434985       4.57110469       9.30306831      -0.00050888       0.00072055       0.00088240
Br       3.18435003       4.57110457       5.51545612      -0.00050949       0.00072096      -0.00088200
Br       5.37112905       1.47853214       9.30306811       0.00050926      -0.00071985       0.00088257
