9
Lattice="7.167908955025305 1.2296346051556594e-07 4.138394059829386 2.389303168045164 6.757969324879306 4.138393943599026 3.3207953706439113e-08 -1.188709697253944e-07 8.276788062140907" Properties=species:S:1:pos:R:3:forces:R:3 energy=-21.553470611572266 free_energy=-21.553470611572266 stress="6.339235551422462e-05 -1.0705617503603548e-09 -4.319693491794396e-09 -1.0705617503603548e-09 6.339043466141447e-05 -2.6651456597193146e-09 -4.319693491794396e-09 -2.6651456597193146e-09 6.338796811178327e-05" pbc="T T T"
Tl       2.38930360       1.68949307       4.13839414       0.00000175       0.00000172      -0.00000010
Tl       7.16790845       5.06847630      12.41518181      -0.00000169      -0.00000147       0.00000038
Pb      -0.00000004      -0.00000005       0.00000165      -0.00000116       0.00000035      -0.00000802
I        2.57285833       1.81928502       8.27678814      -0.00225492      -0.00159383       0.00000018
I        6.98435377       4.93868418       8.27678834       0.00225601       0.00159487      -0.00000014
I        5.88147984       1.81928537       6.36655412       0.00112735      -0.00159255      -0.00195239
I        3.67573291       4.93868309      10.18702093      -0.00112938       0.00159472       0.00195535
I        3.67573241       4.93868340       6.36655352      -0.00112595       0.00159314      -0.00195050
I        5.88147930       1.81928691      10.18702159       0.00112797      -0.00159703       0.00195526
