9
Lattice="6.166646593750639 -6.144978179203712e-08 3.560314961556456 2.0555489771000777 5.813969974056766 3.560314666324884 1.9957208750960915e-07 -2.2046449050756418e-07 7.1206295774438475" Properties=species:S:1:pos:R:3:forces:R:3 energy=-32.280540466308594 free_energy=-32.280540466308594 stress="-6.853224476799369e-05 3.142579174664206e-08 3.253319746931993e-08 3.142579174664206e-08 -6.855904939584434e-05 -6.501629457034142e-08 3.253319746931993e-08 -6.501629457034142e-08 -6.859985296614468e-05" pbc="T T T"
Tl       2.05554878       1.45349255       3.56031485       0.00000019       0.00000001      -0.00000030
Tl       6.16664687       4.36047707      10.68094442      -0.00000011      -0.00000016      -0.00000046
Ru       0.00000034      -0.00000059      -0.00000188      -0.00000762       0.00000654       0.00003655
Cl       1.92352783       1.36013932       7.12062935       0.00051355       0.00036302       0.00000146
Cl       6.29866795       4.45383043       7.12062945      -0.00051069      -0.00036101       0.00000064
Cl       5.20488284       1.36013944       5.22613855      -0.00025254       0.00035685       0.00043812
Cl       3.01731219       4.45383149       9.01512211       0.00026663      -0.00037800      -0.00046289
Cl       3.01731323       4.45382999       5.22613876       0.00025214      -0.00035621       0.00043848
Cl       5.20488307       1.36013910       9.01512102      -0.00026159       0.00036904      -0.00045174
