9
Lattice="6.166071609260119 -3.1551291950324836e-08 3.5599831804141804 2.0553571511008317 5.813428659362438 3.559983218933109 5.127402877652664e-09 5.080162330088311e-08 7.11996635194737" Properties=species:S:1:pos:R:3:forces:R:3 energy=-30.484167098999023 free_energy=-30.484167098999023 stress="-1.2100264939363115e-05 -3.6195931585325525e-08 -8.041057597552026e-09 -3.6195931585325525e-08 -1.203461488330504e-05 6.569595090155644e-09 -8.041057597552026e-09 6.569595090155644e-09 -1.1996941793768201e-05" pbc="T T T"
Tl       2.05535706       1.45335716       3.55998309      -0.00000013      -0.00000011      -0.00000004
Tl       6.16607159       4.36007152      10.67994968       0.00000001      -0.00000001       0.00000001
Rh       0.00000001      -0.00000080       0.00000159       0.00000156       0.00001669      -0.00003227
Cl       1.92355748       1.36016034       7.11996634      -0.00276199      -0.00195345       0.00000017
Cl       6.29787236       4.45326816       7.11996627       0.00275201       0.00194748       0.00000042
Cl       5.20429279       1.36016035       5.22583297       0.00137843      -0.00194991      -0.00238904
Cl       3.01713558       4.45326814       9.01409922      -0.00138271       0.00195716       0.00239916
Cl       3.01713548       4.45326880       5.22583271      -0.00137413       0.00194393      -0.00238250
Cl       5.20429266       1.36016101       9.01409923       0.00138696      -0.00196190       0.00240423
