9
Lattice="5.494284987790604 1.471196484416044e-07 3.17212715557233 1.831428452688274 5.180061753092974 3.17212718203992 1.4107878406286104e-07 1.3217373550887725e-07 6.344254066789054" Properties=species:S:1:pos:R:3:forces:R:3 energy=-41.76236343383789 free_energy=-41.76236343383789 stress="-0.0002252203121315688 -2.0322357130453383e-08 3.031966899769145e-09 -2.0322357130453383e-08 -0.00022523269581142813 -1.6613319608893562e-09 3.031966899769145e-09 -1.6613319608893562e-09 -0.0002252019039588049" pbc="T T T"
Tl       1.83142853       1.29501584       3.17212697       0.00000010      -0.00000028      -0.00000002
Tl       5.49428538       3.88504641       9.51638195      -0.00000045       0.00000046      -0.00000003
Ru      -0.00000013       0.00000010      -0.00000023      -0.00000027      -0.00000148      -0.00000201
F        1.60180155       1.13264493       6.34425430       0.00365649       0.00258560      -0.00000066
F        5.72391185       4.04741697       6.34425436      -0.00365493      -0.00258525      -0.00000016
F        4.69338432       1.13264496       4.55932794      -0.00182771       0.00258503       0.00316600
F        2.63232918       4.04741711       8.12918019       0.00182719      -0.00258417      -0.00316392
F        2.63232949       4.04741707       4.55932810       0.00182666      -0.00258426       0.00316495
F        4.69338431       1.13264475       8.12918014      -0.00182707       0.00258441      -0.00316411
