9
Lattice="6.366927184158764 -4.4433458074814726e-08 3.675947230027588 2.122308954517957 6.002796749029444 3.6759473425693465 -7.11347711187006e-08 8.753499821967644e-08 7.351894583264282" Properties=species:S:1:pos:R:3:forces:R:3 energy=-29.25176429748535 free_energy=-29.25176429748535 stress="-0.00027240379131399095 -2.8564446807877175e-08 -2.4208448579088326e-08 -2.8564446807877175e-08 -0.00027238158509135246 2.711997737492311e-08 -2.4208448579088326e-08 2.711997737492311e-08 -0.00027236592723056674" pbc="T T T"
Tl       2.12230899       1.50069926       3.67594731      -0.00000007       0.00000008      -0.00000003
Tl       6.36692712       4.50209748      11.02784181      -0.00000004       0.00000009      -0.00000023
Ru      -0.00000034      -0.00000024      -0.00000109       0.00000605       0.00000329       0.00001480
Br       2.04359683       1.44504116       7.35189459      -0.00605382      -0.00428134       0.00000035
Br       6.44563943       4.55775580       7.35189464       0.00604901       0.00427662      -0.00000007
Br       5.34512838       1.44504154       5.44575460       0.00303019      -0.00428502      -0.00524712
Br       3.14410752       4.55775555       9.25803505      -0.00302628       0.00427928       0.00524185
Br       3.14410750       4.55775550       5.44575437      -0.00302878       0.00428345      -0.00524630
Br       5.34512882       1.44504109       9.25803540       0.00302377      -0.00427658       0.00523692
