9
Lattice="6.377972682208214 1.2515418006762793e-07 3.6823242440955224 2.125991059232982 6.0132104554086405 3.68232416239991 3.4890059378517126e-08 -7.538532798429657e-08 7.364648427759712" Properties=species:S:1:pos:R:3:forces:R:3 energy=-27.665382385253906 free_energy=-27.665382385253906 stress="0.00010393845150247216 3.4486244970821645e-08 6.885799042066765e-09 3.4486244970821645e-08 0.00010393288539489731 -5.504940503442413e-09 6.885799042066765e-09 -5.504940503442413e-09 0.00010388996452093124" pbc="T T T"
Tl       2.12599097       1.50330262       3.68232415      -0.00000014       0.00000001       0.00000015
Tl       6.37797285       4.50990788      11.04697273       0.00000019      -0.00000020      -0.00000020
Rh      -0.00000019       0.00000001       0.00000029       0.00000346       0.00000191      -0.00000152
Br       2.04163530       1.44365434       7.36464821      -0.00590689      -0.00417721      -0.00000019
Br       6.46232861       4.56955621       7.36464827       0.00590426       0.00417554      -0.00000006
Br       5.35715563       1.44365406       5.45043171       0.00295039      -0.00417301      -0.00511025
Br       3.14680847       4.56955626       9.27886511      -0.00295149       0.00417431       0.00511164
Br       3.14680834       4.56955629       5.45043204      -0.00295124       0.00417342      -0.00511120
Br       5.35715517       1.44365433       9.27886489       0.00295142      -0.00417473       0.00511170
