9
Lattice="5.38178352375546 4.302375769224967e-08 3.1071742291019886 1.7939278370735467 5.073994276684919 3.1071743065965083 1.3393143603284402e-08 1.0438146882216642e-07 6.2143484350063725" Properties=species:S:1:pos:R:3:forces:R:3 energy=-39.04556655883789 free_energy=-39.04556655883789 stress="-2.2239926238398766e-06 -3.1475422268556486e-09 -3.2653371118129826e-09 -3.1475422268556486e-09 -2.2172487206262304e-06 6.762419069161751e-09 -3.2653371118129826e-09 6.762419069161751e-09 -2.2321050892060157e-06" pbc="T T T"
Tl       1.79392797       1.26849883       3.10717462       0.00000042       0.00000004      -0.00000024
Tl       5.38178377       3.80549564       9.32152234      -0.00000031       0.00000001       0.00000028
Rh      -0.00000002       0.00000006      -0.00000013      -0.00000265      -0.00000155       0.00000042
F        1.60212904       1.13287645       6.21434864       0.00001934       0.00001332      -0.00000032
F        5.57358187       3.94111796       6.21434881      -0.00001577      -0.00001207      -0.00000036
F        4.58071870       1.13287658       4.49465848      -0.00000887       0.00001268       0.00001644
F        2.59499266       3.94111803       7.93403792       0.00000863      -0.00001271      -0.00001526
F        2.59499245       3.94111789       4.49465895       0.00000875      -0.00001308       0.00001600
F        4.58071912       1.13287645       7.93403827      -0.00000945       0.00001337      -0.00001685
