9
Lattice="7.267735304382469 -1.1649837169365835e-07 4.196028868336446 2.4225782114798373 6.852086659599515 4.19602906488726 -7.040829170983489e-08 1.909383904524688e-07 8.392057858623641" Properties=species:S:1:pos:R:3:forces:R:3 energy=-22.713027954101562 free_energy=-22.713027954101562 stress="4.879442712990567e-05 -3.718030683330653e-08 1.3666353382291163e-08 -3.718030683330653e-08 4.882416396867484e-05 -1.6745294928455223e-08 1.3666353382291163e-08 -1.6745294928455223e-08 4.8843783588381484e-05" pbc="T T T"
Tl       2.42257780       1.71302202       4.19602896      -0.00000101       0.00000073      -0.00000052
Tl       7.26773569       5.13906496      12.58808657       0.00000071      -0.00000015       0.00000008
Sr       0.00000027      -0.00000019       0.00000019      -0.00000187       0.00000097       0.00000072
I        2.61710081       1.85057031       8.39205781      -0.00139629      -0.00098666      -0.00000022
I        7.07321262       5.00151633       8.39205802       0.00139789       0.00098721       0.00000072
I        5.95918454       1.85057048       6.46250469       0.00069939      -0.00098953      -0.00120936
I        3.73112885       5.00151638      10.32161135      -0.00069860       0.00098821       0.00120822
I        3.73112871       5.00151619       6.46250472      -0.00069882       0.00098887      -0.00120824
I        5.95918450       1.85057044      10.32161091       0.00069863      -0.00098955       0.00120866
