9
Lattice="5.63602772981469 2.6195550503776337e-08 3.253962040724512 1.8786758401289247 5.313697908639115 3.253962204414864 -7.942687323145643e-08 1.4431567222041074e-07 6.507924219020371" Properties=species:S:1:pos:R:3:forces:R:3 energy=-35.56623077392578 free_energy=-35.56623077392578 stress="-0.00018721050582826138 7.538604762657997e-08 -2.543824884071455e-08 7.538604762657997e-08 -0.00018718226056080312 -1.814316696879814e-08 -2.543824884071455e-08 -1.814316696879814e-08 -0.00018719735089689493" pbc="T T T"
Tl       1.87867628       1.32842472       3.25396148       0.00000170       0.00000095      -0.00000124
Tl       5.63602657       3.98527377       9.76188752      -0.00000298       0.00000087       0.00000138
Sr       0.00000022      -0.00000054      -0.00000074      -0.00000455       0.00000690       0.00000972
F        1.90299269       1.34561863       6.50792480       0.00400019       0.00282791       0.00000181
F        5.61171105       3.96807886       6.50792348      -0.00399995      -0.00282767      -0.00000450
F        4.68453127       1.34561877       4.90200186      -0.00200038       0.00282773       0.00346318
F        2.83017218       3.96807998       8.11384749       0.00200427      -0.00283414      -0.00347021
F        2.83017211       3.96807905       4.90200144       0.00200327      -0.00283077       0.00346428
F        4.68453173       1.34561894       8.11384646      -0.00200172       0.00282797      -0.00346446
