9
Lattice="5.510931672577041 -1.770919777050013e-07 3.1817377946441385 1.8369771174454625 5.195755844797566 3.181737690345225 -3.57852671493504e-08 -1.5304354414712707e-07 6.363475651270132" Properties=species:S:1:pos:R:3:forces:R:3 energy=-39.25804138183594 free_energy=-39.25804138183594 stress="0.0004601606051437557 -9.671954614987044e-08 -3.79158251462286e-08 -9.671954614987044e-08 0.0004602355766110122 1.845590702487243e-08 -3.79158251462286e-08 1.845590702487243e-08 0.00046028170618228614" pbc="T T T"
Tl       1.83697720       1.29893923       3.18173729       0.00000030       0.00000013       0.00000051
Tl       5.51093133       3.89681659       9.54521401       0.00000003      -0.00000005       0.00000010
Sb       0.00000013      -0.00000019      -0.00000012       0.00000391      -0.00000321      -0.00000368
F        1.65636528       1.17122691       6.36347555      -0.00528546      -0.00373784       0.00000097
F        5.69154365       4.02452875       6.36347521       0.00528447       0.00373700       0.00000041
F        4.68274897       1.17122687       4.61619234       0.00264602      -0.00374185      -0.00458258
F        2.66515994       4.02452824       8.11075882      -0.00264835       0.00374497       0.00458610
F        2.66515989       4.02452865       4.61619225      -0.00264594       0.00374207      -0.00458278
F        4.68274858       1.17122707       8.11075928       0.00264501      -0.00374123       0.00458114
