9
Lattice="6.334609507632324 -3.9931219896695835e-08 3.657288399118753 2.111536491264279 5.972327079310559 3.6572883534485525 1.2223882062974418e-08 -4.729064389059766e-08 7.314576777065197" Properties=species:S:1:pos:R:3:forces:R:3 energy=-29.05284309387207 free_energy=-29.05284309387207 stress="0.0001802045153453946 -8.009438445810702e-09 9.623251528978471e-09 -8.009438445810702e-09 0.0001802252809284255 2.463113324413513e-10 9.623251528978471e-09 2.463113324413513e-10 0.00018017391266766936" pbc="T T T"
Tl       2.11153650       1.49308206       3.65728832      -0.00000000       0.00000024      -0.00000037
Tl       6.33460949       4.47924511      10.97186502      -0.00000011       0.00000028       0.00000037
Sn      -0.00000015       0.00000038      -0.00000031       0.00000337      -0.00000454       0.00001060
Cl       2.01970344       1.42814604       7.31457646      -0.00252976      -0.00178914       0.00000074
Cl       6.42644288       4.54418091       7.31457630       0.00252832       0.00178850       0.00000126
Cl       5.32475769       1.42814616       5.40640254       0.00126632      -0.00179109      -0.00219076
Cl       3.12138798       4.54418094       9.22275170      -0.00126258       0.00178752       0.00218690
Cl       3.12138836       4.54418047       5.40640262      -0.00126801       0.00179339      -0.00219377
Cl       5.32475781       1.42814586       9.22275150       0.00126251      -0.00178509       0.00218486
