9
Lattice="6.557637966437684 8.200112885021776e-08 3.786053907028092 2.1858794318897923 6.182600203401741 3.78605385085323 -1.579213060155806e-08 -7.996648528749046e-08 7.572107841408913" Properties=species:S:1:pos:R:3:forces:R:3 energy=-25.6075496673584 free_energy=-25.6075496673584 stress="0.00023163111472968012 1.9847096410785525e-08 -2.6792830176702864e-09 1.9847096410785525e-08 0.00023160717682912946 2.454815684060918e-09 -2.6792830176702864e-09 2.454815684060918e-09 0.00023159034026321024" pbc="T T T"
Tl       2.18587934       1.54565005       3.78605384      -0.00000002      -0.00000005      -0.00000041
Tl       6.55763794       4.63695016      11.35816179       0.00000008       0.00000023       0.00000022
Sn       0.00000056       0.00000019      -0.00000053      -0.00000661      -0.00000128       0.00000591
Br       2.17189379       1.53576059       7.57210787      -0.00451405      -0.00319188       0.00000012
Br       6.57162315       4.64683935       7.57210765       0.00451916       0.00319512       0.00000018
Br       5.47169124       1.53576053       5.66696887       0.00225853      -0.00319346      -0.00391123
Br       3.27182609       4.64683978       9.47724724      -0.00225611       0.00319025       0.00390718
Br       3.27182635       4.64683952       5.66696884      -0.00225779       0.00319263      -0.00391035
Br       5.47169108       1.53576063       9.47724680       0.00225675      -0.00319157       0.00390848
