9
Lattice="6.601620899967802 7.921554579290154e-08 3.81144748378854 2.2005404226401235 6.224067636615798 3.811447400709505 7.278171009651474e-08 -5.028624269714277e-08 7.62289484151551" Properties=species:S:1:pos:R:3:forces:R:3 energy=-22.159751892089844 free_energy=-22.159751892089844 stress="0.00010751897207228467 1.4607716813941352e-08 -1.6718926243441956e-09 1.4607716813941352e-08 0.00010750574438134208 -1.6982573125545741e-09 -1.6718926243441956e-09 -1.6982573125545741e-09 0.00010749893408501521" pbc="T T T"
Tl       2.20053988       1.55601675       3.81144751      -0.00000006      -0.00000010       0.00000033
Tl       6.60162150       4.66805083      11.43434222      -0.00000007      -0.00000027      -0.00000019
Se      -0.00000022      -0.00000060       0.00000046       0.00000129       0.00000171      -0.00000084
Br       2.13917015       1.51262165       7.62289450      -0.00185818      -0.00131416       0.00000044
Br       6.66299090       4.71144566       7.62289458       0.00185783       0.00131391       0.00000010
Br       5.53203651       1.51262126       5.66402265       0.00092785      -0.00131264      -0.00160749
Br       3.27012514       4.71144697       9.58176719      -0.00092812       0.00131200       0.00160758
Br       3.27012516       4.71144693       5.66402279      -0.00092806       0.00131220      -0.00160744
Br       5.53203655       1.51262118       9.58176700       0.00092753      -0.00131265       0.00160751
