9
Lattice="5.177884923484541 3.681776633444334e-08 2.9894532960032816 1.7259616691018211 4.881756742292439 2.98945330773237 4.3981635955326774e-08 4.5464886204148824e-08 5.978906515828027" Properties=species:S:1:pos:R:3:forces:R:3 energy=-34.98725891113281 free_energy=-34.98725891113281 stress="0.00029050931334495544 1.755119249935433e-08 -4.813843101914017e-09 1.755119249935433e-08 0.0002904986613430083 1.936424709469975e-08 -4.813843101914017e-09 1.936424709469975e-08 0.0002904881548602134" pbc="T T T"
Tl       1.72596186       1.22043935       2.98945323      -0.00000009      -0.00000063       0.00000019
Tl       5.17788470       3.66131751       8.96836005       0.00000101      -0.00000002       0.00000010
S        0.00000002      -0.00000003      -0.00000022      -0.00000235       0.00000187       0.00000079
F        1.52615335       1.07915384       5.97890669      -0.00033522      -0.00023790       0.00000010
F        5.37769309       3.80260333       5.97890684       0.00033620       0.00023729       0.00000051
F        4.41480854       1.07915345       4.31114043       0.00016734      -0.00023713      -0.00029048
F        2.48903844       3.80260286       7.64667202      -0.00016687       0.00023703       0.00028858
F        2.48903837       3.80260329       4.31114091      -0.00016683       0.00023568      -0.00028828
F        4.41480827       1.07915360       7.64667268       0.00016686      -0.00023621       0.00028846
