9
Lattice="5.506948104723138 4.755012677785977e-08 3.17943793484932 1.835649365188373 5.192000189055998 3.1794380177857864 -4.8862156832786595e-08 6.702521936587292e-08 6.3588759543303475" Properties=species:S:1:pos:R:3:forces:R:3 energy=-39.258140563964844 free_energy=-39.258140563964844 stress="0.00020939587557222694 -1.1478789474494988e-08 4.383343465974576e-09 -1.1478789474494988e-08 0.00020945559663232416 2.4425791167459465e-08 4.383343465974576e-09 2.4425791167459465e-08 0.00020946067525073886" pbc="T T T"
Tl       1.83564938       1.29799973       3.17943842       0.00000017      -0.00000021      -0.00000002
Tl       5.50694848       3.89400020       9.53831416      -0.00000014      -0.00000013       0.00000068
Sb       0.00000015      -0.00000023       0.00000068       0.00000197      -0.00000449      -0.00000173
F        1.65602503       1.17098695       6.35887516      -0.00297375      -0.00210340       0.00000057
F        5.68657186       4.02101371       6.35887518       0.00297421       0.00210409       0.00000072
F        4.67893509       1.17098739       4.61359781       0.00148770      -0.00210527      -0.00257763
F        2.66366134       4.02101423       8.10415371      -0.00148820       0.00210591       0.00257948
F        2.66366225       4.02101280       4.61359829      -0.00148862       0.00210600      -0.00257823
F        4.67893592       1.17098629       8.10415427       0.00148661      -0.00210255       0.00257602
