9
Lattice="7.09443053426375 4.245177821791957e-07 4.095971088109439 2.364810468212591 6.688693133586828 4.0959712788334945 -7.039015978376847e-08 1.8381483362270928e-07 8.191942298138358" Properties=species:S:1:pos:R:3:forces:R:3 energy=-22.023189544677734 free_energy=-22.023189544677734 stress="-1.7462998584960587e-06 3.287457417400219e-08 -4.227677319335044e-09 3.287457417400219e-08 -1.7711397504172055e-06 8.613666224732697e-09 -4.227677319335044e-09 8.613666224732697e-09 -1.7930184412762173e-06" pbc="T T T"
Tl       2.36481021       1.67217346       4.09597104      -0.00000056       0.00000015       0.00000003
Tl       7.09443061       5.01652034      12.28791365       0.00000053      -0.00000036      -0.00000006
Sb       0.00000006      -0.00000069       0.00000001      -0.00000075       0.00000463       0.00000241
I        2.43879295       1.72448730       8.19194245      -0.00259236      -0.00183266       0.00000024
I        7.02044818       4.96420646       8.19194216       0.00259125       0.00183167      -0.00000018
I        5.87503354       1.72448737       6.20802743       0.00129569      -0.00183181      -0.00224365
I        3.58420731       4.96420674      10.17585746      -0.00129432       0.00182925       0.00224093
I        3.58420662       4.96420665       6.20802729      -0.00129350       0.00182975      -0.00224086
I        5.87503426       1.72448736      10.17585719       0.00129401      -0.00183067       0.00224109
