9
Lattice="6.385619860040837 -2.781662022440475e-08 3.686739275437827 2.1285399300124284 6.020419791905395 3.68673927042995 3.826214092270167e-08 2.092202192563718e-08 7.373478484603726" Properties=species:S:1:pos:R:3:forces:R:3 energy=-21.755937576293945 free_energy=-21.755937576293945 stress="6.911902892170474e-05 5.603566055611964e-09 -2.749161454040916e-10 5.603566055611964e-09 6.910639785928652e-05 6.13290196405103e-10 -2.749161454040916e-10 6.13290196405103e-10 6.914012919878587e-05" pbc="T T T"
Tl       2.12853971       1.50510469       3.68673924       0.00000003      -0.00000002       0.00000007
Tl       6.38561995       4.51531493      11.06021801       0.00000016       0.00000005       0.00000003
S       -0.00000028      -0.00000025      -0.00000030       0.00000059       0.00000052       0.00000060
Br       2.09639480       1.48237514       7.37347867      -0.00119936      -0.00084872      -0.00000037
Br       6.41776523       4.53804534       7.37347853       0.00119866       0.00084687      -0.00000007
Br       5.33742302       1.48237437       5.50227043       0.00059910      -0.00084670      -0.00103867
Br       3.17673714       4.53804511       9.24468628      -0.00059906       0.00084776       0.00103956
Br       3.17673703       4.53804542       5.50227052      -0.00059902       0.00084716      -0.00103953
Br       5.33742270       1.48237434       9.24468656       0.00059897      -0.00084681       0.00103841
