9
Lattice="5.426258345877521 -2.170578212771492e-08 3.1328516788914564 1.808752755412676 5.115925529063239 3.132851689425781 -9.058893145164683e-08 -5.115412270873526e-08 6.265703514687441" Properties=species:S:1:pos:R:3:forces:R:3 energy=-35.777557373046875 free_energy=-35.777557373046875 stress="5.0501326768426225e-05 -6.994171020124895e-09 -1.0914382286841828e-08 -6.994171020124895e-09 5.051251719123684e-05 2.0247799881190076e-08 -1.0914382286841828e-08 2.0247799881190076e-08 5.052493725088425e-05" pbc="T T T"
Tl       1.80875263       1.27898121       3.13285185       0.00000017       0.00000000      -0.00000024
Tl       5.42625798       3.83694442       9.39855511       0.00000027      -0.00000011       0.00000018
Se      -0.00000002      -0.00000011       0.00000016      -0.00000024       0.00000287      -0.00000949
F        1.59623362       1.12870755       6.26570364      -0.00275669      -0.00194913      -0.00000008
F        5.63877732       3.98721773       6.26570371       0.00275645       0.00194851      -0.00000002
F        4.62814156       1.12870754       4.51523014       0.00137873      -0.00194952      -0.00238624
F        2.60686953       3.98721799       8.01617643      -0.00137964       0.00195035       0.00239050
F        2.60686965       3.98721811       4.51523016      -0.00137778       0.00194725      -0.00238428
F        4.62814175       1.12870741       8.01617644       0.00137870      -0.00195038       0.00238952
