9
Lattice="5.481913867697798 -3.816924909029083e-07 3.1649842277296374 1.8273043576003287 5.168396890536188 3.164984063362449 -5.079042524729102e-08 -2.372221636950979e-07 6.329968543430908" Properties=species:S:1:pos:R:3:forces:R:3 energy=-46.32113265991211 free_energy=-46.32113265991211 stress="8.559531852370128e-05 -2.3781213442930493e-08 8.2712103832705e-09 -2.3781213442930493e-08 8.563692244933918e-05 -2.0912905185355157e-08 8.2712103832705e-09 -2.0912905185355157e-08 8.556841930840164e-05" pbc="T T T"
Tl       1.82730467       1.29209899       3.16498430       0.00000052       0.00000114       0.00000104
Tl       5.48191349       3.87629704       9.49495378       0.00000103       0.00000013      -0.00000024
Sc      -0.00000020       0.00000005      -0.00000069      -0.00000021      -0.00000058       0.00001428
F        1.66128828       1.17470817       6.32996807      -0.00286043      -0.00202215       0.00000092
F        5.64793026       3.99368810       6.32996811       0.00285846       0.00202131      -0.00000021
F        4.65126895       1.17470839       4.60370278       0.00143245      -0.00202551      -0.00248033
F        2.65794837       3.99368863       8.05623409      -0.00142804       0.00201857       0.00247234
F        2.65794916       3.99368811       4.60370252      -0.00143301       0.00202680      -0.00248230
F        4.65126976       1.17470759       8.05623454       0.00142846      -0.00201979       0.00247437
