9
Lattice="5.484466681559277 -7.415907539156001e-08 3.1664583703990563 1.8281555181442568 5.1708048089019245 3.1664583226943037 -1.77462920784157e-08 -7.097469078837741e-08 6.332916771535573" Properties=species:S:1:pos:R:3:forces:R:3 energy=-40.07563400268555 free_energy=-40.07563400268555 stress="-0.00014494845527224243 1.4438596984689411e-08 2.7598332508205203e-09 1.4438596984689411e-08 -0.00014492933405563235 -2.532143028588507e-08 2.7598332508205203e-09 -2.532143028588507e-08 -0.0001449220726499334" pbc="T T T"
Tl       1.82815553       1.29270131       3.16645835      -0.00000016       0.00000036       0.00000029
Tl       5.48446675       3.87810338       9.49937523       0.00000015      -0.00000064       0.00000018
Sn       0.00000007      -0.00000005      -0.00000000       0.00000451      -0.00000707      -0.00000806
F        1.63837634       1.15850710       6.33291683       0.00142342       0.00100610      -0.00000010
F        5.67424575       4.01229765       6.33291677      -0.00142390      -0.00100639      -0.00000008
F        4.66527909       1.15850685       4.58533357      -0.00071512       0.00101086       0.00123832
F        2.64734334       4.01229759       8.08049981       0.00071090      -0.00100407      -0.00123000
F        2.64734333       4.01229786       4.58533369       0.00071220      -0.00100607       0.00123245
F        4.66527848       1.15850689       8.08049974      -0.00071216       0.00100678      -0.00123322
