9
Lattice="6.615403733339378 5.7725600390509044e-08 3.8194051949477417 2.205134666767148 6.237062286182379 3.8194051350827274 2.8403454413726287e-08 -5.3235194009950317e-08 7.6388103406993" Properties=species:S:1:pos:R:3:forces:R:3 energy=-25.130874633789062 free_energy=-25.130874633789062 stress="5.225858694757335e-05 2.2752349337906708e-08 -2.742676530331778e-09 2.2752349337906708e-08 5.224272535997443e-05 2.960356182413193e-09 -2.742676530331778e-09 2.960356182413193e-09 5.223001790000126e-05" pbc="T T T"
Tl       2.20513451       1.55926586       3.81940537       0.00000014      -0.00000003      -0.00000010
Tl       6.61540391       4.67779644      11.45821527      -0.00000012       0.00000007       0.00000051
Sb       0.00000096      -0.00000014       0.00000099      -0.00000972      -0.00000003      -0.00001054
Br       2.23341391       1.57926211       7.63881032      -0.00077988      -0.00055185       0.00000067
Br       6.58712385       4.65779974       7.63881026       0.00078562       0.00055530       0.00000038
Br       5.49869695       1.57926214       5.75359829       0.00039068      -0.00055197      -0.00067539
Br       3.32184142       4.65780029       9.52402221      -0.00039090       0.00055316       0.00067771
Br       3.32184134       4.65780044       5.75359792      -0.00038782       0.00054962      -0.00067233
Br       5.49869683       1.57926227       9.52402209       0.00039194      -0.00055426       0.00067911
