9
Lattice="6.23357539689803 -2.671710110202042e-09 3.598956506007174 2.077858457249064 5.877071133214784 3.5989565161650146 -4.184540112246008e-08 -1.7148394777148993e-08 7.197913084492572" Properties=species:S:1:pos:R:3:forces:R:3 energy=-25.29030990600586 free_energy=-25.29030990600586 stress="7.634476787643507e-05 -5.901905186789236e-09 -3.792257174950464e-09 -5.901905186789236e-09 7.633997302036732e-05 1.2010684002916605e-08 -3.792257174950464e-09 1.2010684002916605e-08 7.637871021870524e-05" pbc="T T T"
Tl       2.07785884       1.46926794       3.59895647       0.00000001      -0.00000018       0.00000019
Tl       6.23357524       4.40780321      10.79686987      -0.00000008       0.00000012      -0.00000024
Se      -0.00000129       0.00000015       0.00000035       0.00001594       0.00000043      -0.00000225
Cl       1.98572727       1.40412067       7.19791326      -0.00131939      -0.00093128      -0.00000028
Cl       6.32570750       4.47295055       7.19791330       0.00131039       0.00092714      -0.00000000
Cl       5.24071194       1.40412067       5.31864694       0.00065590      -0.00092872      -0.00113924
Cl       3.07072207       4.47295012       9.07717849      -0.00066040       0.00093152       0.00114252
Cl       3.07072190       4.47295051       5.31864681      -0.00065893       0.00092997      -0.00114040
Cl       5.24071174       1.40412069       9.07717895       0.00065656      -0.00092909       0.00113972
