9
Lattice="7.023173654962162 -6.767584172997098e-08 4.05483124636834 2.3410578281404026 6.6215115054433324 4.054831234316041 7.65500472988362e-09 -9.34807811802254e-09 8.109662479477796" Properties=species:S:1:pos:R:3:forces:R:3 energy=-22.096420288085938 free_energy=-22.096420288085938 stress="-0.00022616151545662433 -5.257262181146416e-09 -1.4191258168594345e-09 -5.257262181146416e-09 -0.0002261645277030766 5.808373781945875e-09 -1.4191258168594345e-09 5.808373781945875e-09 -0.00022615946363657713" pbc="T T T"
Tl       2.34105784       1.65537765       4.05483124      -0.00000055       0.00000035      -0.00000025
Tl       7.02317366       4.96613378      12.16449373       0.00000037      -0.00000032       0.00000018
Sn      -0.00000006      -0.00000009       0.00000001       0.00000019       0.00000088       0.00000048
I        2.42212096       1.71269794       8.10966248       0.00569654       0.00402812      -0.00000029
I        6.94211062       4.90881353       8.10966247      -0.00569697      -0.00402852       0.00000021
I        5.81211316       1.71269808       6.15244958      -0.00284828       0.00402823       0.00493307
I        3.55211830       4.90881338      10.06687539       0.00284853      -0.00402869      -0.00493354
I        3.55211832       4.90881341       6.15244954       0.00284825      -0.00402824       0.00493331
I        5.81211316       1.71269802      10.06687539      -0.00284810       0.00402815      -0.00493333
