9
Lattice="6.374044753299412 -4.147591184504375e-07 3.680056861965546 2.124681291744453 6.009507388770417 3.680056691618183 2.5535664511951215e-07 -2.8067525771061703e-08 7.360113281640473" Properties=species:S:1:pos:R:3:forces:R:3 energy=-28.161544799804688 free_energy=-28.161544799804688 stress="-8.40090579004027e-05 -1.206933433195445e-07 2.469100834900928e-08 -1.206933433195445e-07 -8.388362766709179e-05 -3.032313244943907e-08 2.469100834900928e-08 -3.032313244943907e-08 -8.380138024222106e-05" pbc="T T T"
Tl       2.12468145       1.50237682       3.68005679       0.00000024      -0.00000040      -0.00000091
Tl       6.37404474       4.50713036      11.04017018       0.00000018      -0.00000022      -0.00000092
Sb       0.00000146      -0.00000248      -0.00001141      -0.00002033       0.00003193       0.00014806
Cl       2.06245180       1.45837393       7.36011328       0.00644377       0.00455343      -0.00000702
Cl       6.43627412       4.55113279       7.36011371      -0.00644193      -0.00455693      -0.00000685
Cl       5.34281616       1.45837757       5.46619775      -0.00319544       0.00451846       0.00552876
Cl       3.15590715       4.55113426       9.25403551       0.00323350      -0.00457327      -0.00560738
Cl       3.15590921       4.55113007       5.46619728       0.00320280      -0.00452932       0.00553799
Cl       5.34281905       1.45837448       9.25403428      -0.00322290       0.00455632      -0.00559185
