9
Lattice="6.32466015413748 3.88140498162306e-08 3.651544379681397 2.10822005627808 5.962946875904996 3.6515444345794053 -7.079499628303426e-08 1.717637987842237e-08 7.303088881983425" Properties=species:S:1:pos:R:3:forces:R:3 energy=-35.38392639160156 free_energy=-35.38392639160156 stress="0.00011478154920041561 7.232264565004698e-09 8.061080691845746e-09 7.232264565004698e-09 0.00011476385407149792 6.88110413094023e-09 8.061080691845746e-09 6.88110413094023e-09 0.00011475320934550837" pbc="T T T"
Tl       2.10821999       1.49073655       3.65154437      -0.00000026      -0.00000005       0.00000016
Tl       6.32465997       4.47221024      10.95463331       0.00000016      -0.00000007      -0.00000013
Sc      -0.00000017      -0.00000051       0.00000090       0.00000302       0.00000580      -0.00001068
Cl       2.02917542       1.43484370       7.30308886      -0.00029466      -0.00020780       0.00000046
Cl       6.40370498       4.52810334       7.30308885       0.00029103       0.00020571      -0.00000069
Cl       5.31007278       1.43484360       5.40886185       0.00014458      -0.00020362      -0.00025117
Cl       3.12280779       4.52810339       9.19731539      -0.00014730       0.00020711       0.00025479
Cl       3.12280743       4.52810364       5.40886177      -0.00014398       0.00020269      -0.00024933
Cl       5.31007240       1.43484380       9.19731548       0.00014723      -0.00020954       0.00025655
