9
Lattice="6.591678078024382 -2.3648665680325666e-07 3.805707278249853 2.1972258658236505 6.2146936568695565 3.805707169516314 7.723618233670701e-08 -7.855657911423057e-08 7.611414422722784" Properties=species:S:1:pos:R:3:forces:R:3 energy=-32.00666046142578 free_energy=-32.00666046142578 stress="9.263233368983492e-05 -1.9259942973803845e-08 -4.9248840561233465e-09 -1.9259942973803845e-08 9.263872925657779e-05 -3.178927787672592e-09 -4.9248840561233465e-09 -3.178927787672592e-09 9.266384586226195e-05" pbc="T T T"
Tl       2.19722627       1.55367344       3.80570722       0.00000006       0.00000035      -0.00000016
Tl       6.59167797       4.66102002      11.41712169       0.00000020      -0.00000037       0.00000028
Sc      -0.00000063      -0.00000050       0.00000078       0.00000641       0.00000420      -0.00000781
Br       2.15753157       1.52560533       7.61141411      -0.00071639      -0.00050680       0.00000090
Br       6.63137290       4.68908861       7.61141433       0.00071048       0.00050168       0.00000048
Br       5.51291218       1.52560519       5.67418489       0.00035733      -0.00050454      -0.00061822
Br       3.27599186       4.68908815       9.54864371      -0.00035898       0.00050674       0.00062181
Br       3.27599179       4.68908809       5.67418479      -0.00035729       0.00050597      -0.00061944
Br       5.51291223       1.52560508       9.54864389       0.00035819      -0.00050728       0.00062209
