9
Lattice="6.260062781372616 -2.8439709544562768e-08 3.614249119700517 2.086687569966743 5.902043270745153 3.6142491145233997 1.1829881615660207e-07 7.730916513922765e-08 7.228498034501107" Properties=species:S:1:pos:R:3:forces:R:3 energy=-24.598613739013672 free_energy=-24.598613739013672 stress="7.510870545957005e-06 -1.2643456948069343e-08 -3.3845928282261184e-09 -1.2643456948069343e-08 7.451697001670254e-06 5.263215197004456e-09 -3.3845928282261184e-09 5.263215197004456e-09 7.571642981929472e-06" pbc="T T T"
Tl       2.08668761       1.47551018       3.61424900      -0.00000006      -0.00000033      -0.00000002
Tl       6.26006311       4.42653274      10.84274734       0.00000030       0.00000031       0.00000004
S        0.00000015      -0.00000144      -0.00000011      -0.00000093       0.00001310      -0.00000073
Cl       1.93452577       1.36791593       7.22849833      -0.00073721      -0.00052293      -0.00000086
Cl       6.41222392       4.53412817       7.22849827       0.00073954       0.00051773      -0.00000024
Cl       5.29279973       1.36791612       5.28959884       0.00036956      -0.00052375      -0.00064193
Cl       3.05395109       4.53412753       9.16739689      -0.00037104       0.00052097       0.00064495
Cl       3.05395097       4.53412802       5.28959900      -0.00037028       0.00051893      -0.00064319
Cl       5.29279955       1.36791622       9.16739739       0.00037010      -0.00052398       0.00064194
