9
Lattice="6.37385813004806 3.308009500675559e-07 3.679948367109855 2.1246196476297703 6.00933111944451 3.679948438011333 -5.174513267282236e-08 5.0246925619773146e-08 7.359896823844849" Properties=species:S:1:pos:R:3:forces:R:3 energy=-28.161561965942383 free_energy=-28.161561965942383 stress="0.0001397416490362957 1.3207271365445195e-07 -3.1338818207160557e-09 1.3207271365445195e-07 0.000139670490170829 5.649233969506895e-09 -3.1338818207160557e-09 5.649233969506895e-09 0.0001395510189468041" pbc="T T T"
Tl       2.12461955       1.50233287       3.67994846       0.00000015      -0.00000002      -0.00000030
Tl       6.37385826       4.50699864      11.03984534      -0.00000017       0.00000022       0.00000032
Sb       0.00000016       0.00000130       0.00000099      -0.00000251      -0.00001829      -0.00001050
Cl       2.06529891       1.46038698       7.35989693      -0.00512103      -0.00362053      -0.00000025
Cl       6.43317820       4.54894420       7.35989669       0.00512786       0.00362692       0.00000066
Cl       5.34120963       1.46038553       5.46854746       0.00255318      -0.00361011      -0.00442173
Cl       3.15726852       4.54894460       9.25124475      -0.00255824       0.00361963       0.00443215
Cl       3.15726824       4.54894568       5.46854813      -0.00255483       0.00361470      -0.00442538
Cl       5.34120939       1.46038624       9.25124566       0.00255557      -0.00361259       0.00442507
