9
Lattice="6.614849461120863 5.185721360925494e-07 3.819084673744692 2.2049503566545785 6.236539524582402 3.8190845917034606 -2.0956213908238414e-08 -1.1529782739403969e-07 7.638169383786578" Properties=species:S:1:pos:R:3:forces:R:3 energy=-25.130844116210938 free_energy=-25.130844116210938 stress="0.00011610938963713124 8.584704147551747e-08 6.105067562600652e-09 8.584704147551747e-08 0.00011604384781094268 1.4612290266668992e-09 6.105067562600652e-09 1.4612290266668992e-09 0.00011597908451221883" pbc="T T T"
Tl       2.20494983       1.55913487       3.81908483      -0.00000033       0.00000010      -0.00000099
Tl       6.61484965       4.67740512      11.45725373       0.00000004      -0.00000012      -0.00000029
Sb       0.00000045      -0.00000040      -0.00001005      -0.00000378       0.00000289       0.00009983
Br       2.23458884       1.58009301       7.63816955      -0.00541745      -0.00383105      -0.00000444
Br       6.58521034       4.65644696       7.63816951       0.00541947       0.00383152      -0.00000333
Br       5.49755518       1.58009347       5.75429565       0.00271519      -0.00384072      -0.00470732
Br       3.32224254       4.65644996       9.52204797      -0.00269284       0.00380874       0.00466063
Br       3.32224521       4.65644651       5.75429583      -0.00271484       0.00383842      -0.00470591
Br       5.49755714       1.58009021       9.52204761       0.00269454      -0.00380977       0.00466179
