9
Lattice="7.059739016693949 -1.5482895363606336e-08 4.075942327941375 2.3532463212807886 6.655985949141145 4.075942333171649 -1.0570771885888273e-08 -1.0689178569130894e-09 8.15188467419182" Properties=species:S:1:pos:R:3:forces:R:3 energy=-30.584819793701172 free_energy=-30.584819793701172 stress="0.00012176642485428602 -1.2448529318476176e-08 -4.424046462503384e-09 -1.2448529318476176e-08 0.0001217865792568773 4.136066156235074e-09 -4.424046462503384e-09 4.136066156235074e-09 0.00012179477926110849" pbc="T T T"
Tl       2.35324646       1.66399653       4.07594244       0.00000033      -0.00000014       0.00000028
Tl       7.05973893       4.99198950      12.22782702      -0.00000003       0.00000036      -0.00000010
Ta      -0.00000063       0.00000023       0.00000048       0.00000811      -0.00000225      -0.00000627
I        2.28192743       1.61356709       8.15188470      -0.00250132      -0.00177009      -0.00000025
I        7.13105807       5.04241959       8.15188470       0.00249641       0.00176468      -0.00000039
I        5.91877537       1.61356643       6.05214924       0.00124864      -0.00176559      -0.00216179
I        3.49421024       5.04241878      10.25161911      -0.00125228       0.00177208       0.00217085
I        3.49421011       5.04241908       6.05214977      -0.00124965       0.00176837      -0.00216627
I        5.91877538       1.61356652      10.25161987       0.00124983      -0.00176743       0.00216392
