9
Lattice="6.98690692773353 1.2244233237027945e-08 4.033892887753816 2.32896906908307 6.587319202493359 4.033892746369992 1.272664479302203e-07 -8.316793281847731e-08 8.067785555075442" Properties=species:S:1:pos:R:3:forces:R:3 energy=-28.05638885498047 free_energy=-28.05638885498047 stress="-3.130887489533052e-05 1.0078029966109625e-08 1.2793497816687704e-08 1.0078029966109625e-08 -3.1297910027205944e-05 -1.4253290103738436e-08 1.2793497816687704e-08 -1.4253290103738436e-08 -3.1303789000958204e-05" pbc="T T T"
Tl       2.32896882       1.64682958       4.03389276      -0.00000052      -0.00000003       0.00000045
Tl       6.98690714       4.94048964      12.10167838       0.00000036       0.00000018      -0.00000025
Ti       0.00000054       0.00000038       0.00000021      -0.00000404      -0.00000359      -0.00000036
I        2.25140558       1.59198438       8.06778548       0.00192259       0.00135821       0.00000017
I        7.06447005       4.99533434       8.06778564      -0.00191722      -0.00135451      -0.00000029
I        5.86120472       1.59198416       5.98366732      -0.00096156       0.00135882       0.00166465
I        3.45467154       4.99533481      10.15190379       0.00096114      -0.00135875      -0.00166494
I        3.45467165       4.99533486       5.98366772       0.00095919      -0.00135638       0.00166221
I        5.86120443       1.59198438      10.15190344      -0.00095992       0.00135603      -0.00166160
