9
Lattice="6.218623950265584 1.1520931598889278e-08 3.59032400543015 2.0728745838925464 5.862974953611463 3.590324138898604 -1.622107390345965e-07 4.87645656413645e-08 7.180648291817629" Properties=species:S:1:pos:R:3:forces:R:3 energy=-35.67687225341797 free_energy=-35.67687225341797 stress="1.2552548469102476e-05 -2.472687832266729e-08 -1.7326822643326523e-08 -2.472687832266729e-08 1.2566477380460128e-05 3.864562891919832e-09 -1.7326822643326523e-08 3.864562891919832e-09 1.2559358765429351e-05" pbc="T T T"
Tl       2.07287434       1.46574394       3.59032391       0.00000045       0.00000021       0.00000041
Tl       6.21862370       4.39723093      10.77097204      -0.00000041      -0.00000003      -0.00000021
Ti      -0.00000061      -0.00000028      -0.00000026       0.00000646       0.00000403       0.00000561
Cl       1.93545903       1.36857600       7.18064798      -0.00073767      -0.00052141       0.00000087
Cl       6.35603984       4.49439904       7.18064803       0.00073075       0.00051688       0.00000066
Cl       5.25089411       1.36857656       5.26648057       0.00037039      -0.00052299      -0.00063878
Cl       3.04060388       4.49439909       9.09481655      -0.00036746       0.00051898       0.00063494
Cl       3.04060443       4.49439866       5.26648039      -0.00036948       0.00052238      -0.00063786
Cl       5.25089458       1.36857618       9.09481664       0.00036699      -0.00051819       0.00063431
