9
Lattice="6.482282966514255 7.606285821973175e-08 3.742547448046082 2.160761052579381 6.111554669166043 3.7425474618530155 -3.05447677205367e-09 1.4750075713674032e-08 7.485094901382681" Properties=species:S:1:pos:R:3:forces:R:3 energy=-31.895723342895508 free_energy=-31.895723342895508 stress="5.133273225510493e-05 1.775505076295758e-08 -1.5573229372733977e-09 1.775505076295758e-08 5.129107739776373e-05 1.1034951841182306e-09 -1.5573229372733977e-09 1.1034951841182306e-09 5.125260940985754e-05" pbc="T T T"
Tl       2.16076103       1.52788863       3.74254726       0.00000050       0.00000032      -0.00000012
Tl       6.48228299       4.58366608      11.22764249      -0.00000031      -0.00000020      -0.00000013
Ti       0.00000020      -0.00000000      -0.00000035      -0.00000211      -0.00000046       0.00000133
Br       2.07339991       1.46611470       7.48509492       0.00048574       0.00034486      -0.00000025
Br       6.56964453       4.64544017       7.48509493      -0.00048678      -0.00034500      -0.00000011
Br       5.44558292       1.46611457       5.53816334      -0.00024350       0.00034644       0.00042512
Br       3.19746085       4.64543984       9.43202686       0.00024483      -0.00034601      -0.00042594
Br       3.19746076       4.64544027       5.53816307       0.00024546      -0.00034679       0.00042617
Br       5.44558289       1.46611479       9.43202661      -0.00024379       0.00034697      -0.00042622
