9
Lattice="5.405823669558596 1.1870747104194742e-07 3.121053611343044 1.8019412625559208 5.096659862926677 3.1210537370014495 -5.78440411942653e-08 1.129973348854189e-07 6.242107322875002" Properties=species:S:1:pos:R:3:forces:R:3 energy=-48.40937805175781 free_energy=-48.40937805175781 stress="6.439932622015476e-05 -2.5260456837372658e-08 -6.957552756148289e-09 -2.5260456837372658e-08 6.437316915253177e-05 2.0696582225809834e-08 -6.957552756148289e-09 2.0696582225809834e-08 6.436183321056888e-05" pbc="T T T"
Tl       1.80194198       1.27416522       3.12105346      -0.00000003      -0.00000033       0.00000008
Tl       5.40582327       3.82249529       9.36316043       0.00000013      -0.00000009       0.00000090
Ti       0.00000001      -0.00000007       0.00000036       0.00000274      -0.00000007      -0.00000470
F        1.54787251       1.09451098       6.24210722       0.00293183       0.00207418       0.00000027
F        5.65989235       4.00214900       6.24210710      -0.00293382      -0.00207618       0.00000104
F        4.63188709       1.09451096       4.46155061      -0.00146591       0.00207407       0.00254162
F        2.57587768       4.00214884       8.02266442       0.00146523      -0.00207232      -0.00253793
F        2.57587760       4.00214874       4.46155052       0.00146574      -0.00207459       0.00254076
F        4.63188711       1.09451133       8.02266463      -0.00146599       0.00207529      -0.00254213
