9
Lattice="5.440474990070427 -6.50756965269721e-08 3.1410598701495256 1.8134916950396984 5.12932880240282 3.1410597090048995 6.944902313933413e-08 -1.4825312815416787e-07 6.2821196200097384" Properties=species:S:1:pos:R:3:forces:R:3 energy=-50.84617614746094 free_energy=-50.84617614746094 stress="-0.0003964180941693485 -6.466554935968816e-08 -3.37973276032244e-08 -6.466554935968816e-08 -0.000396403280319646 4.2229448382613555e-08 -3.37973276032244e-08 4.2229448382613555e-08 -0.00039634323911741376" pbc="T T T"
Tl       1.81349176       1.28233202       3.14105992      -0.00000093      -0.00000097       0.00000070
Tl       5.44047546       3.84699652       9.42317947       0.00000060       0.00000004      -0.00000030
Ta      -0.00000011       0.00000007      -0.00000017      -0.00000293       0.00000415      -0.00001286
F        1.59722482       1.12940838       6.28211985       0.00199509       0.00141084      -0.00000001
F        5.65674210       3.99992024       6.28211954      -0.00199509      -0.00141072       0.00000023
F        4.64186247       1.12940843       4.52429705      -0.00099504       0.00140715       0.00172377
F        2.61210393       3.99991974       8.03994209       0.00099331      -0.00140476      -0.00172043
F        2.61210393       3.99992046       4.52429687       0.00099885      -0.00141203       0.00172937
F        4.64186254       1.12940850       8.03994213      -0.00099349       0.00140536      -0.00172102
