9
Lattice="6.541025637193412 2.567953449196033e-07 3.7764627826503694 2.1803420002444085 6.166938074692323 3.7764629921056487 -5.7256282229845604e-08 2.1604301762298554e-07 7.552925664471517" Properties=species:S:1:pos:R:3:forces:R:3 energy=-34.72797393798828 free_energy=-34.72797393798828 stress="5.765068999608047e-05 5.2487926893718395e-08 -2.708404522877572e-08 5.2487926893718395e-08 5.7655164710013196e-05 3.774484369500897e-08 -2.708404522877572e-08 3.774484369500897e-08 5.7579560234444216e-05" pbc="T T T"
Tl       2.18034206       1.54173458       3.77646257       0.00000009       0.00000043      -0.00000020
Tl       6.54102566       4.62520372      11.32938884      -0.00000015      -0.00000068       0.00000017
Ta       0.00000081       0.00000113       0.00000035      -0.00001344      -0.00001700      -0.00000352
Br       2.09058669       1.47826897       7.55292529      -0.00139076      -0.00098532       0.00000051
Br       6.63077933       4.68866915       7.55292569       0.00141087       0.00099832       0.00000050
Br       5.49573216       1.47826941       5.58696424       0.00069675      -0.00098822      -0.00120747
Br       3.22563583       4.68866940       9.51888695      -0.00070055       0.00099057       0.00121301
Br       3.22563558       4.68866904       5.58696407      -0.00069772       0.00098690      -0.00120762
Br       5.49573242       1.47826892       9.51888763       0.00069480      -0.00098509       0.00120461
