9
Lattice="5.425902907468996 -3.086557701744075e-08 3.1326467453464617 1.8086342685461185 5.1155907040733375 3.1326467537351945 -7.387808850601023e-08 -4.196554608947355e-08 6.265293618653521" Properties=species:S:1:pos:R:3:forces:R:3 energy=-44.484962463378906 free_energy=-44.484962463378906 stress="6.036016930011101e-05 1.3724985592489247e-08 8.017164709883673e-09 1.3724985592489247e-08 6.0371821746230125e-05 7.731013162981526e-09 8.017164709883673e-09 7.731013162981526e-09 6.040903099346906e-05" pbc="T T T"
Tl       1.80863489       1.27889814       3.13264660      -0.00000032       0.00000066       0.00000051
Tl       5.42590300       3.83669230       9.39794162       0.00000077      -0.00000020      -0.00000018
V       -0.00000027      -0.00000015      -0.00000036       0.00000478       0.00000297      -0.00000201
F        1.54993120       1.09596725       6.26529366      -0.00534847      -0.00378184      -0.00000028
F        5.68460603       4.01962330       6.26529317       0.00534394       0.00377974      -0.00000007
F        4.65093705       1.09596710       4.47492647       0.00267233      -0.00378051      -0.00463049
F        2.58359960       4.01962368       8.05566048      -0.00267334       0.00378092       0.00463110
F        2.58360004       4.01962367       4.47492632      -0.00267294       0.00377983      -0.00463033
F        4.65093701       1.09596700       8.05566060       0.00267324      -0.00378163       0.00463179
