9
Lattice="6.8747924551060935 -2.2541764379200532e-08 3.9691633483881628 2.2915974717669423 6.48161647417322 3.9691633345592066 2.6813771681433034e-08 2.023246581478937e-09 7.938326650333482" Properties=species:S:1:pos:R:3:forces:R:3 energy=-27.654848098754883 free_energy=-27.654848098754883 stress="-0.0001796508877305314 -3.6173664064165223e-09 1.513705827349554e-09 -3.6173664064165223e-09 -0.00017964726430363953 3.550463034684981e-09 1.513705827349554e-09 3.550463034684981e-09 -0.0001796550495782867" pbc="T T T"
Tl       2.29159755       1.62040405       3.96916323       0.00000028      -0.00000015      -0.00000018
Tl       6.87479245       4.86121243      11.90749004      -0.00000027       0.00000032       0.00000012
V       -0.00000009      -0.00000003       0.00000010       0.00000029       0.00000011      -0.00000006
I        2.20369966       1.55825098       7.93832671      -0.00266503      -0.00188357      -0.00000026
I        6.96269024       4.92336552       7.93832670       0.00266454       0.00188369       0.00000005
I        5.77294266       1.55825100       5.87762321       0.00133192      -0.00188403      -0.00230749
I        3.39344742       4.92336538       9.99903001      -0.00133196       0.00188430       0.00230762
I        3.39344735       4.92336547       5.87762331      -0.00133182       0.00188386      -0.00230758
I        5.77294258       1.55825105       9.99903006       0.00133190      -0.00188451       0.00230789
