9
Lattice="6.155722050824044 6.831162554534383e-08 3.554008065905623 2.0519073963445145 5.803670783933604 3.5540080976627237 5.2158618604284344e-08 7.577599983919143e-08 7.108016041469957" Properties=species:S:1:pos:R:3:forces:R:3 energy=-34.777931213378906 free_energy=-34.777931213378906 stress="6.875019607832655e-05 1.3225268880034946e-08 1.521105019719471e-08 1.3225268880034946e-08 6.873148959130049e-05 -1.4282761640060926e-08 1.521105019719471e-08 -1.4282761640060926e-08 6.872714584460482e-05" pbc="T T T"
Tl       2.05190732       1.45091772       3.55400801      -0.00000014      -0.00000017      -0.00000016
Tl       6.15572212       4.35275323      10.66202411       0.00000009       0.00000012       0.00000006
V       -0.00000031      -0.00000024       0.00000015       0.00000772       0.00000286       0.00000225
Cl       1.90128994       1.34441494       7.10801662      -0.00085983      -0.00060798      -0.00000132
Cl       6.30634025       4.45925622       7.10801601       0.00085160       0.00060190       0.00000024
Cl       5.20507765       1.34441438       5.20057315       0.00042558      -0.00060190      -0.00073829
Cl       3.00255198       4.45925613       9.01545878      -0.00042620       0.00060461       0.00073966
Cl       3.00255210       4.45925657       5.20057328      -0.00042722       0.00060426      -0.00074169
Cl       5.20507698       1.34441476       9.01545859       0.00042839      -0.00060375       0.00073940
