9
Lattice="5.571303028764672 6.658501688167022e-08 3.2165931630953044 1.8571009978992226 5.252674784430586 3.2165932920741205 -1.1296861506936184e-07 7.808525857373439e-08 6.433186521857967" Properties=species:S:1:pos:R:3:forces:R:3 energy=-46.3019905090332 free_energy=-46.3019905090332 stress="7.18716109986417e-05 -4.713472634421123e-08 -1.4294967876082865e-08 -4.713472634421123e-08 7.190681208157912e-05 8.568627585248123e-09 -1.4294967876082865e-08 8.568627585248123e-09 7.187719893408939e-05" pbc="T T T"
Tl       1.85710159       1.31316909       3.21659315       0.00000175       0.00000001       0.00000057
Tl       5.57130311       3.93950640       9.64977981      -0.00000007       0.00000001       0.00000039
Y        0.00000006      -0.00000016       0.00000035       0.00000135       0.00000647      -0.00000801
F        1.77501946       1.25512822       6.43318656      -0.00189760      -0.00134200       0.00000021
F        5.65338475       3.99754662       6.43318673       0.00189278       0.00133914      -0.00000058
F        4.68379280       1.25512823       4.75380501       0.00094891      -0.00134215      -0.00164288
F        2.74461079       3.99754646       8.11256781      -0.00094916       0.00134254       0.00164485
F        2.74461066       3.99754647       4.75380498      -0.00094783       0.00133958      -0.00164083
F        4.68379247       1.25512845       8.11256773       0.00095007      -0.00134367       0.00164697
