9
Lattice="6.4561337383950335 -2.488965970783586e-07 3.727450588714574 2.1520444502499267 6.086901075244472 3.7274504060752713 -2.119785352694005e-08 -2.3867576542485495e-07 7.45490121414493" Properties=species:S:1:pos:R:3:forces:R:3 energy=-36.02762985229492 free_energy=-36.02762985229492 stress="0.00029038861976005137 -3.773124035433284e-08 5.40208278110299e-09 -3.773124035433284e-08 0.00029039845685474575 -5.0363023973432064e-08 5.40208278110299e-09 -5.0363023973432064e-08 0.0002904488064814359" pbc="T T T"
Tl       2.15204442       1.52172529       3.72745045       0.00000020      -0.00000005      -0.00000004
Tl       6.45613367       4.56517552      11.18235163       0.00000007       0.00000031      -0.00000002
Y       -0.00000044      -0.00000073       0.00000064       0.00000583       0.00001423      -0.00001251
Cl       2.13684082       1.51097393       7.45490169      -0.00556487      -0.00393506      -0.00000021
Cl       6.47133892       4.57592708       7.45490081       0.00555332       0.00392698       0.00000046
Cl       5.38771365       1.51097361       5.57800893       0.00278063      -0.00393309      -0.00481716
Cl       3.22046454       4.57592611       9.33179361      -0.00278161       0.00393488       0.00481729
Cl       3.22046442       4.57592695       5.57800814      -0.00277976       0.00393108      -0.00481313
Cl       5.38771273       1.51097450       9.33179297       0.00278629      -0.00393927       0.00482555
