9
Lattice="6.7266920943077855 -3.379468563110153e-08 3.883657550182945 2.2422306432465926 6.341986180960692 3.883657590009803 1.2537473941596501e-08 5.7643102158061855e-08 7.7673150786503555" Properties=species:S:1:pos:R:3:forces:R:3 energy=-32.71443176269531 free_energy=-32.71443176269531 stress="0.00016644246352370828 -4.9617052688688545e-09 -2.1585957465930505e-09 -4.9617052688688545e-09 0.00016643840353935957 -2.512878238825067e-10 -2.1585957465930505e-09 -2.512878238825067e-10 0.00016643019625917077" pbc="T T T"
Tl       2.24223055       1.58549676       3.88365765       0.00000043       0.00000015       0.00000023
Tl       6.72669208       4.75648954      11.65097252      -0.00000063      -0.00000012      -0.00000017
Y       -0.00000015       0.00000051      -0.00000014       0.00000151      -0.00000537       0.00000136
Br       2.26884529       1.60431602       7.76731505      -0.00262928      -0.00185950       0.00000031
Br       6.70007705       4.73766994       7.76731516       0.00263169       0.00186036      -0.00000031
Br       5.59226928       1.60431597       5.84853550       0.00131496      -0.00185981      -0.00227720
Br       3.37665370       4.73767004       9.68609460      -0.00131644       0.00186144       0.00227989
Br       3.37665381       4.73766977       5.84853555      -0.00131650       0.00186164      -0.00228015
Br       5.59226942       1.60431632       9.68609488       0.00131425      -0.00185881       0.00227607
