9
Lattice="7.185845137747094 -2.0397244244139624e-07 4.148749590185644 2.3952815123140088 6.774879539429438 4.148749603974869 -1.421281032375118e-08 6.838280771883633e-09 8.297499204988574" Properties=species:S:1:pos:R:3:forces:R:3 energy=-28.87191390991211 free_energy=-28.87191390991211 stress="4.6174649469321594e-05 3.16179948889328e-09 -1.0299248565104335e-08 3.16179948889328e-09 4.616318256012164e-05 4.064739655973426e-09 -1.0299248565104335e-08 4.064739655973426e-09 4.615040961652994e-05" pbc="T T T"
Tl       2.39528183       1.69372037       4.14875034       0.00000153       0.00000007       0.00000243
Tl       7.18584465       5.08115922      12.44624792      -0.00000169       0.00000001      -0.00000239
Y        0.00000070       0.00000149      -0.00000083      -0.00000530      -0.00001050       0.00000454
I        2.45346925       1.73486469       8.29749900      -0.00413273      -0.00292198       0.00000089
I        7.12765637       5.04001357       8.29749929       0.00414148       0.00292718      -0.00000082
I        5.95910935       1.73486461       6.27351590       0.00206769      -0.00292439      -0.00358026
I        3.62201750       5.04001445      10.32148256      -0.00206759       0.00292498       0.00358083
I        3.62201683       5.04001418       6.27351678      -0.00207029       0.00292696      -0.00358292
I        5.95911008       1.73486480      10.32148263       0.00206693      -0.00292235       0.00357769
