9
Lattice="7.189874883698794 -1.635945443597561e-07 4.151076378332123 2.3966246410891014 6.778679429057193 4.151076665688711 -1.1619543261055036e-07 2.6977595277392506e-07 8.302152957920532" Properties=species:S:1:pos:R:3:forces:R:3 energy=-28.871870040893555 free_energy=-28.871870040893555 stress="0.00018669015844352543 -1.4278080051610686e-08 -2.8368591031835422e-08 -1.4278080051610686e-08 0.00018669287965167314 3.678668747397751e-08 -2.8368591031835422e-08 3.678668747397751e-08 0.0001867082028184086" pbc="T T T"
Tl       2.39662499       1.69466972       4.15107681       0.00000066      -0.00000072       0.00000124
Tl       7.18987466       5.08400986      12.45322907      -0.00000037       0.00000037      -0.00000122
Y       -0.00000101       0.00000052       0.00000042       0.00000705      -0.00000485      -0.00000336
I        2.45412596       1.73532969       8.30215278      -0.00584383      -0.00413335      -0.00000086
I        7.13237333       5.04335013       8.30215344       0.00584235       0.00413277       0.00000082
I        5.96281104       1.73533002       6.27641266       0.00292340      -0.00413423      -0.00506275
I        3.62368890       5.04334883      10.32789263      -0.00292733       0.00413829       0.00506892
I        3.62368784       5.04335004       6.27641316      -0.00292245       0.00413412      -0.00506220
I        5.96281189       1.73532936      10.32789306       0.00292049      -0.00413238       0.00505938
