9
Lattice="5.573420454303238 -9.811665943192616e-08 3.217815727467655 1.8578067424006537 5.254671327544151 3.2178156983607407 -5.669773848101751e-08 -7.573986637362551e-08 6.435631553138616" Properties=species:S:1:pos:R:3:forces:R:3 energy=-46.30197525024414 free_energy=-46.30197525024414 stress="0.00022333704691845924 -1.228523149876537e-08 3.8453289441520155e-09 -1.228523149876537e-08 0.00022333279775921255 -5.629827626307815e-08 3.8453289441520155e-09 -5.629827626307815e-08 0.00022341942531056702" pbc="T T T"
Tl       1.85780705       1.31366736       3.21781599       0.00000015       0.00000072       0.00000031
Tl       5.57342003       3.94100283       9.65344747       0.00000015      -0.00000105       0.00000005
Y       -0.00000003      -0.00000014       0.00000026       0.00000161       0.00001407      -0.00001319
F        1.77515312       1.25522187       6.43563168      -0.00270924      -0.00191507      -0.00000129
F        5.65607529       3.99944895       6.43563192       0.00269940       0.00190952      -0.00000039
F        4.68584384       1.25522275       4.75514283       0.00135398      -0.00191328      -0.00234437
F        2.74538308       3.99944853       8.11611976      -0.00135535       0.00191662       0.00234658
F        2.74538311       3.99944906       4.75514286      -0.00135006       0.00190961      -0.00234085
F        4.68584333       1.25522339       8.11611914       0.00135925      -0.00192130       0.00235334
