9
Lattice="6.454164581185006 6.275099494637763e-08 3.7263137117352563 2.1513881669121617 6.085045205874859 3.7263138606540407 -2.1048230417817622e-07 3.3554203298920514e-08 7.452627788036213" Properties=species:S:1:pos:R:3:forces:R:3 energy=-36.027679443359375 free_energy=-36.027679443359375 stress="0.00017245007620658726 -4.5566867612478745e-08 -7.251493627791206e-09 -4.5566867612478745e-08 0.00017247126379515976 2.336967952487612e-08 -7.251493627791206e-09 2.336967952487612e-08 0.00017253040277864784" pbc="T T T"
Tl       2.15138784       1.52126125       3.72631364      -0.00000011       0.00000019       0.00000035
Tl       6.45416452       4.56378383      11.17894170       0.00000032      -0.00000024       0.00000014
Y        0.00000034      -0.00000014      -0.00000003       0.00000094       0.00000024       0.00000699
Cl       2.13640801       1.51066925       7.45262708      -0.00269282      -0.00190467       0.00000007
Cl       6.46914495       4.57437658       7.45262723       0.00269106       0.00190265       0.00000044
Cl       5.38595928       1.51066985       5.57649895       0.00135125      -0.00190973      -0.00233975
Cl       3.21959204       4.57437619       9.32875678      -0.00134810       0.00190760       0.00233641
Cl       3.21959286       4.57437557       5.57649868      -0.00134865       0.00190835      -0.00233687
Cl       5.38596028       1.51066879       9.32875744       0.00134592      -0.00190441       0.00233248
