9
Lattice="6.464688367176074 -1.1867960843911863e-07 3.732389555031369 2.1548961104212156 6.094966456063079 3.7323893819623053 9.845592447754278e-08 -1.4234654245385945e-07 7.464778939532061" Properties=species:S:1:pos:R:3:forces:R:3 energy=-21.674104690551758 free_energy=-21.674104690551758 stress="0.00010370501695433632 -8.65150839857165e-10 6.993185142079028e-09 -8.65150839857165e-10 0.00010369990195613354 -5.330238472822657e-09 6.993185142079028e-09 -5.330238472822657e-09 0.00010367960931034759" pbc="T T T"
Tl       2.15489619       1.52374149       3.73238942       0.00000015       0.00000022       0.00000009
Tl       6.46468826       4.57122470      11.19716852      -0.00000005       0.00000010       0.00000005
Zn       0.00000030       0.00000068      -0.00000071       0.00000162      -0.00000266       0.00000476
Br       2.11493277       1.49548340       7.46477878      -0.00110367      -0.00078154       0.00000085
Br       6.50465228       4.59948289       7.46477856       0.00110263       0.00077969       0.00000124
Br       5.40722176       1.49548331       5.56397445       0.00055301      -0.00078169      -0.00095528
Br       3.21236209       4.59948304       9.36558340      -0.00054993       0.00077945       0.00095490
Br       3.21236257       4.59948276       5.56397500      -0.00055341       0.00078383      -0.00095820
Br       5.40722229       1.49548244       9.36558395       0.00054967      -0.00077713       0.00095183
