9
Lattice="4.871504329597647 1.0049466168902119e-07 2.8125644441827045 1.623834901134329 4.592898183371781 2.8125643924731834 6.489798501632439e-08 -1.7441119191087366e-08 5.625128775958897" Properties=species:S:1:pos:R:3:forces:R:3 energy=-32.17934799194336 free_energy=-32.17934799194336 stress="0.0001293982204515487 -5.293844296261341e-08 -1.4319293306641612e-08 -5.293844296261341e-08 0.0001293515379074961 -4.2294072244430936e-08 -1.4319293306641612e-08 -4.2294072244430936e-08 0.00012938195141032338" pbc="T T T"
Tl       1.62383461       1.14822546       2.81256570      -0.00000121       0.00000451       0.00000690
Tl       4.87150414       3.44467465       8.43769537      -0.00000101       0.00000403       0.00000910
Zn      -0.00000064      -0.00000022      -0.00000019       0.00000836       0.00000238       0.00000286
F        1.61355653       1.14095614       5.62512849      -0.00031745      -0.00022775      -0.00000372
F        4.88178400       3.45194174       5.62512808       0.00031185       0.00021803      -0.00000378
F        4.06472656       1.14095608       4.20994480       0.00015667      -0.00022209      -0.00027359
F        2.43061246       3.45194167       7.04031173      -0.00015867       0.00022411       0.00027126
F        2.43061336       3.45194150       4.20994408      -0.00015530       0.00022095      -0.00027740
F        4.06472626       1.14095614       7.04031227       0.00015715      -0.00022423       0.00026876
