9
Lattice="6.291593890688042 -1.2404762071154258e-08 3.632452917490833 2.0971977825875423 5.9317715553283445 3.6324532106919234 3.5397119614427415e-07 6.09391941728275e-07 7.2649052218856" Properties=species:S:1:pos:R:3:forces:R:3 energy=-23.800752639770508 free_energy=-23.800752639770508 stress="0.00011201756569789723 -4.932060093665314e-09 -6.247570460971019e-09 -4.932060093665314e-09 0.00011196229024790227 8.955403529853356e-09 -6.247570460971019e-09 8.955403529853356e-09 0.00011202223686268553" pbc="T T T"
Tl       2.09719744       1.48294371       3.63245246      -0.00000000      -0.00000005      -0.00000025
Tl       6.29159348       4.44882875      10.89735791       0.00000017       0.00000040       0.00000005
Zn       0.00000004      -0.00000008       0.00000090      -0.00000133      -0.00000078      -0.00000706
Cl       1.99961556       1.41394060       7.26490545       0.00045836       0.00032568      -0.00000153
Cl       6.38917658       4.51783136       7.26490698      -0.00045472      -0.00032428      -0.00000115
Cl       5.29178733       1.41393971       5.36417094      -0.00023043       0.00032815       0.00039700
Cl       3.09700559       4.51783159       9.16564002       0.00022656      -0.00032270      -0.00039053
Cl       3.09700587       4.51783207       5.36417144       0.00022966      -0.00032902       0.00039533
Cl       5.29178640       1.41394087       9.16563984      -0.00022814       0.00032276      -0.00039199
