9
Lattice="6.691167561841078 1.7795420306635773e-09 3.863147494367777 2.2303891527816644 6.308493505159438 3.8631475570272196 -6.150157902575639e-09 7.239302243535248e-08 7.726294999387949" Properties=species:S:1:pos:R:3:forces:R:3 energy=-29.093647003173828 free_energy=-29.093647003173828 stress="1.0572698556643445e-05 -3.949427895832969e-09 4.70004124508705e-09 -3.949427895832969e-09 1.0579805348243099e-05 6.855666589977716e-10 4.70004124508705e-09 6.855666589977716e-10 1.0574174666544423e-05" pbc="T T T"
V        2.23038903       1.57712359       3.86314748      -0.00000028       0.00000005      -0.00000015
V        6.69116757       4.73137012      11.58944274      -0.00000008      -0.00000017       0.00000034
As      -0.00000001       0.00000008      -0.00000006       0.00000022      -0.00000047       0.00000094
I        2.30974968       1.63323971       7.72629494       0.00004318       0.00003062       0.00000019
I        6.61180722       4.67525387       7.72629489      -0.00004364      -0.00003122       0.00000010
I        5.53629264       1.63323979       5.86344946      -0.00002107       0.00003032       0.00003737
I        3.38526398       4.67525377       9.58914060       0.00002183      -0.00003070      -0.00003774
I        3.38526406       4.67525372       5.86344934       0.00002162      -0.00002939       0.00003692
I        5.53629268       1.63323967       9.58914081      -0.00002181       0.00003096      -0.00003793
