9
Lattice="5.500046424858564 8.487823440786093e-08 3.1754534332288293 1.8333487160439688 5.18549480393796 3.1754537316025653 -2.5414888520670115e-07 1.8572139927274926e-07 6.350907306656274" Properties=species:S:1:pos:R:3:forces:R:3 energy=-41.98095703125 free_energy=-41.98095703125 stress="0.00033319558133371174 -9.205847106841247e-08 -7.111033539786149e-08 -9.205847106841247e-08 0.0003331754414830357 4.228241579085079e-08 -7.111033539786149e-08 4.228241579085079e-08 0.0003331596089992672" pbc="T T T"
V        1.83334918       1.29637287       3.17545526       0.00000501      -0.00000339       0.00001088
V        5.50004467       3.88912123       9.52636000      -0.00001250      -0.00000425      -0.00000848
As      -0.00000004       0.00000002       0.00000008      -0.00000424      -0.00000545      -0.00000083
S        1.89826642       1.34227794       6.35090805      -0.00537026      -0.00380093       0.00000370
S        5.43512859       3.84321603       6.35090927       0.00538123       0.00380009       0.00001417
S        4.55091194       1.34227811       4.81940093       0.00268316      -0.00380689      -0.00466222
S        2.78248238       3.84321928       7.88241107      -0.00268996       0.00382245       0.00464952
S        2.78248422       3.84321579       4.81939905      -0.00267839       0.00379574      -0.00466913
S        4.55091175       1.34227943       7.88241414       0.00268626      -0.00379741       0.00466216
