9
Lattice="4.326180072324445 1.1693873038936207e-07 2.497721191713696 1.442060106396889 4.078761719719608 2.497721240145562 4.0348843058983026e-08 8.784762160360027e-08 4.99544231354113" Properties=species:S:1:pos:R:3:forces:R:3 energy=-56.07503890991211 free_energy=-56.07503890991211 stress="-6.0597285482799634e-05 -2.748445737665861e-08 3.851040375479897e-08 -2.748445737665861e-08 -6.073812619433738e-05 -1.3873481030657331e-08 3.851040375479897e-08 -1.3873481030657331e-08 -6.068952279747464e-05" pbc="T T T"
V        1.44205880       1.01969003       2.49772186      -0.00001660      -0.00000619       0.00000901
V        4.32617997       3.05907204       7.49316395      -0.00000443       0.00000802       0.00000639
As      -0.00000004      -0.00000003      -0.00000005       0.00000450       0.00000235      -0.00000055
O        1.46328261       1.03469684       4.99544180      -0.00673282      -0.00476730      -0.00000810
O        4.30495805       3.04406472       4.99544272       0.00673902       0.00476253       0.00000445
O        3.59453933       1.03469765       3.76496109       0.00337583      -0.00476563      -0.00583637
O        2.17370123       3.04406489       6.22592345      -0.00336921       0.00476670       0.00583220
O        2.17370171       3.04406503       3.76496104      -0.00336576       0.00476897      -0.00583637
O        3.59453902       1.03469666       6.22592338       0.00336993      -0.00476921       0.00582898
