9
Lattice="5.714818148521193 6.815001927079608e-08 3.2994518028605415 1.904939436541363 5.387982426276209 3.29945182113624 -5.413732555452794e-08 -1.589776732390584e-08 6.598903699489611" Properties=species:S:1:pos:R:3:forces:R:3 energy=-35.662105560302734 free_energy=-35.662105560302734 stress="2.2637204892816953e-05 3.118674385405029e-08 -3.435362438963807e-09 3.118674385405029e-08 2.269154356326908e-05 -3.07752543449169e-08 -3.435362438963807e-09 -3.07752543449169e-08 2.2669006284559146e-05" pbc="T T T"
V        1.90494048       1.34699560       3.29945144       0.00000548      -0.00000140      -0.00000109
V        5.71481865       4.04098728       9.89835315       0.00000466       0.00000157      -0.00001030
As       0.00000015      -0.00000004      -0.00000013      -0.00000394      -0.00000005       0.00000407
Cl       1.93918413       1.37121044       6.59890402       0.00291817       0.00206445       0.00000173
Cl       5.68057292       4.01677212       6.59890452      -0.00291800      -0.00206213       0.00000237
Cl       4.74522556       1.37120985       4.97883474      -0.00146214       0.00206343       0.00253204
Cl       2.87453153       4.01677230       8.21897318       0.00146167      -0.00206937      -0.00253023
Cl       2.87453087       4.01677202       4.97883493       0.00145713      -0.00206226       0.00252837
Cl       4.74522588       1.37121032       8.21897340      -0.00146319       0.00206577      -0.00252698
