9
Lattice="6.037353399040419 8.590721944325414e-08 3.485667604742866 2.0124512015010625 5.692071401876064 3.485667626404797 -1.1750571718846564e-07 -5.655878036201023e-08 6.9713354130116265" Properties=species:S:1:pos:R:3:forces:R:3 energy=-32.52964782714844 free_energy=-32.52964782714844 stress="0.00014630482473876327 2.2681932776436042e-08 3.4015876781978704e-09 2.2681932776436042e-08 0.00014631394878961146 1.219874423696865e-09 3.4015876781978704e-09 1.219874423696865e-09 0.00014629749057348818" pbc="T T T"
V        2.01245118       1.42301723       3.48566778       0.00000072      -0.00000245      -0.00000082
V        6.03735380       4.26905373      10.45700312       0.00000261       0.00000119      -0.00000134
As      -0.00000003      -0.00000012      -0.00000024      -0.00000110       0.00000126      -0.00000029
Br       2.07230814       1.46534316       6.97133494       0.00248073       0.00175370      -0.00000179
Br       5.97749635       4.22672869       6.97133524      -0.00248164      -0.00175326       0.00000146
Br       5.00119963       1.46534282       5.28033906      -0.00124031       0.00175503       0.00214949
Br       3.04860457       4.22672813       8.66233177       0.00123971      -0.00175470      -0.00214848
Br       3.04860487       4.22672909       5.28033916       0.00123999      -0.00175486       0.00215026
Br       5.00119932       1.46534299       8.66233171      -0.00124067       0.00175410      -0.00214846
