9
Lattice="2.6114529235589337 -1.2571256590022772 2.301034669976702 -0.9008270441230756 1.5506393775986353 3.7408398544308055 -3.066599458508854 -1.4979900388176295 4.808424474838711" Properties=species:S:1:pos:R:3:forces:R:3 energy=-43842540.0 free_energy=-43842540.0 stress="1501671.5 349581.71875 438411.53125 349581.71875 84249.1640625 231776.921875 438411.53125 231776.921875 636433.125" pbc="T T T"
V       -0.65690883       1.03233864       0.94183712 -400590816.00000000 -16438047.00000000 -198702240.00000000
V       -1.29034916      -1.79490502       7.96727995 394358720.00000000 20889018.00000000 203999184.00000000
As      -0.71409874      -0.41863583      -1.14659022 -6245258.00000000 20794150.00000000 -15691171.00000000
F       -2.63179589      -0.73122470       4.56511208 -8576523.00000000 -3044808.50000000 -1597550.50000000
F       -0.50244099      -1.15053883       5.31639599 -196209.14062500 -224000.45312500 -162107.32812500
F        2.06835070      -1.40395664       3.97256702 -2552718.25000000 -1075796.12500000 -1165212.12500000
F       -0.74998458      -0.02428919       5.73774296 -771455.37500000 -681480.18750000 -397203.87500000
F       -4.67617344       0.06637928       4.52559575 12350342.00000000 5730251.00000000 3272361.25000000
F       -1.17153496      -2.85252198       5.49413089 12223932.00000000 -25949268.00000000 10443916.00000000
