9
Lattice="4.198190806979142 0.017568866412511944 2.412537990985666 1.4156519226689483 3.952231481114499 2.41302783848037 0.09311329688252375 0.06519384359912145 4.665236910973679" Properties=species:S:1:pos:R:3:forces:R:3 energy=-102.44549560546875 free_energy=-102.44549560546875 stress="-0.00045643647899851203 0.00023183535085991025 0.0001547220890643075 0.00023183535085991025 0.00010944573296001181 -5.5780001275707036e-05 0.0001547220890643075 -5.5780001275707036e-05 -0.0002573964884504676" pbc="T T T"
V        1.42343108       1.00300769       2.38155105       0.00095154       0.00309205      -0.00095296
V        4.28667691       3.02753767       7.10926072       0.00121719      -0.00279292       0.00018764
As       0.01849310      -0.02616078      -0.00001093      -0.00120211       0.00007796      -0.00009976
F        1.90688163       1.18228533       4.68582506      -0.00144386       0.00057220       0.00206298
F        3.95635997       2.63171158       4.80496063      -0.00025749      -0.00073242      -0.00022259
F        3.22606158       1.24344320       3.80951852       0.00210476       0.00311661       0.00022316
F        2.21533989       2.79247293       5.55781114      -0.00051117      -0.00215530       0.00438499
F        2.33537216       2.87754524       3.93317849      -0.00050354      -0.00245476      -0.00300217
F        3.45922456       1.40813887       5.68112530      -0.00035286       0.00126457      -0.00255775
