9
Lattice="5.436507327411386 5.446037677300819e-08 3.1387688649395624 1.8121691848338852 5.125588117959929 3.1387688227623403 -5.446583975069641e-08 -9.01695031582724e-08 6.277537824216733" Properties=species:S:1:pos:R:3:forces:R:3 energy=-39.95566177368164 free_energy=-39.95566177368164 stress="6.633724115090445e-05 4.571968403865867e-08 2.455153635949614e-09 4.571968403865867e-08 6.634217425016686e-05 -2.2894727891298317e-08 2.455153635949614e-09 -2.2894727891298317e-08 6.627494440181181e-05" pbc="T T T"
V        1.81217083       1.28139763       3.13876784       0.00000700       0.00000244      -0.00000469
V        5.43650730       3.84418943       9.41630790      -0.00000115      -0.00000665       0.00000329
As      -0.00000022      -0.00000002       0.00000019       0.00000368       0.00000230       0.00000001
Se       2.05341624       1.45198534       6.27753784       0.00145477       0.00103047      -0.00000145
Se       5.19525983       3.67360330       6.27753702      -0.00146016      -0.00103259      -0.00000268
Se       4.40979920       1.45198469       4.91707879      -0.00073351       0.00103456       0.00126666
Se       2.83887731       3.67360304       7.63799613       0.00072989      -0.00103012      -0.00126222
Se       2.83887710       3.67360395       4.91707967       0.00073166      -0.00103325       0.00126472
Se       4.40979824       1.45198498       7.63799671      -0.00073203       0.00103286      -0.00126374
