9
Lattice="6.037325293164617 -2.3569313527340427e-07 3.4856512514472677 2.0124415663952813 5.692044897377865 3.4856512094957695 -1.026701703365824e-07 -1.239786550732126e-07 6.97130268072451" Properties=species:S:1:pos:R:3:forces:R:3 energy=-32.52964782714844 free_energy=-32.52964782714844 stress="0.0001428268733434379 -7.16994241756197e-09 2.563351753082088e-09 -7.16994241756197e-09 0.00014283458585850894 8.215876867723182e-09 2.563351753082088e-09 8.215876867723182e-09 0.00014284813369158655" pbc="T T T"
V        2.01244165       1.42301034       3.48565072       0.00000021      -0.00000164      -0.00000099
V        6.03732565       4.26903370      10.45695448       0.00000086       0.00000110       0.00000053
As       0.00000004       0.00000000       0.00000018      -0.00000088       0.00000132      -0.00000139
Br       2.07228111       1.46532377       6.97130253       0.00266965       0.00188715       0.00000036
Br       5.97748549       4.22672075       6.97130265      -0.00267079      -0.00188741      -0.00000022
Br       5.00118458       1.46532397       5.28029932      -0.00133354       0.00188684       0.00231175
Br       3.04858199       4.22672055       8.66230549       0.00133327      -0.00188592      -0.00231218
Br       3.04858210       4.22672085       5.28029937       0.00133514      -0.00188668       0.00231358
Br       5.00118443       1.46532412       8.66230580      -0.00133381       0.00188524      -0.00231135
