9
Lattice="4.410071204783596 2.3680810091698916e-07 2.5461549541283377 1.4700238614731318 4.157854378910088 2.5461551216514713 -2.3430088929017072e-07 3.949737443977396e-08 5.092310314077658" Properties=species:S:1:pos:R:3:forces:R:3 energy=-50.480751037597656 free_energy=-50.480751037597656 stress="-7.945219113025814e-05 -1.4118560898168653e-07 1.2702322749191808e-07 -1.4118560898168653e-07 -7.94337538536638e-05 -2.3483270883417617e-09 1.2702322749191808e-07 -2.3483270883417617e-09 -7.972765888553113e-05" pbc="T T T"
V        1.47002741       1.03946631       2.54615227       0.00002656       0.00001958      -0.00001201
V        4.41007221       3.11839211       7.63846839       0.00000846       0.00001143       0.00001094
B       -0.00000083       0.00000009      -0.00000205       0.00000687      -0.00000220       0.00002584
F        1.31848749       0.93231088       5.09230994      -0.00288897      -0.00204118       0.00000966
F        4.56160674       3.22554292       5.09230964       0.00287346       0.00203307       0.00000010
F        3.75082632       0.93231251       3.68799915       0.00144858      -0.00205238      -0.00250360
F        2.12926587       3.22554215       6.49662254      -0.00144728       0.00201995       0.00248626
F        2.12926803       3.22554117       3.68799876      -0.00145308       0.00204599      -0.00250372
F        3.75082634       0.93231063       6.49662288       0.00142540      -0.00203443       0.00248690
