9
Lattice="6.370069544909652 -8.450481136747363e-08 3.6777613318253275 2.1233563874182115 6.005759325152774 3.677761414755485 -1.2165694551433559e-07 1.5543879001380185e-08 7.35552287436668" Properties=species:S:1:pos:R:3:forces:R:3 energy=-29.387771606445312 free_energy=-29.387771606445312 stress="0.00017244426999241114 8.461882305965673e-10 -2.103724278113006e-10 8.461882305965673e-10 0.00017246331844944507 -2.346919814044668e-08 -2.103724278113006e-10 -2.346919814044668e-08 0.00017245592607650906" pbc="T T T"
V        2.12335652       1.50143989       3.67776164       0.00000103       0.00000101       0.00000038
V        6.37006966       4.50431946      11.03328445       0.00000055       0.00000027       0.00000063
B        0.00000036       0.00000040       0.00000055       0.00000107      -0.00000027       0.00000123
I        2.03242311       1.43714047       7.35552242       0.00020885       0.00014840       0.00000017
I        6.46100246       4.56861865       7.35552252      -0.00021084      -0.00014855       0.00000046
I        5.35385766       1.43714029       5.43789141      -0.00010471       0.00014715       0.00018130
I        3.13956784       4.56861887       9.27315400       0.00010490      -0.00014867      -0.00018269
I        3.13956808       4.56861901       5.43789166       0.00010387      -0.00014746       0.00018072
I        5.35385754       1.43714003       9.27315383      -0.00010476       0.00014812      -0.00018226
