9
Lattice="5.9718373015771435 -3.046194003781465e-08 3.447841909961224 1.9906124534009957 5.630302076816896 3.447841826369358 8.97587051611141e-08 -3.890967564906281e-08 6.895683664455817" Properties=species:S:1:pos:R:3:forces:R:3 energy=-31.916790008544922 free_energy=-31.916790008544922 stress="-0.00023744182544760406 -5.82316772579361e-09 7.255244849346809e-09 -5.82316772579361e-09 -0.00023746551596559584 5.035123873398106e-09 7.255244849346809e-09 5.035123873398106e-09 -0.00023742123448755592" pbc="T T T"
V        1.99061276       1.40757512       3.44784180       0.00000087      -0.00000226      -0.00000073
V        5.97183735       4.22272665      10.34352571       0.00000019       0.00000100       0.00000055
C        0.00000126      -0.00000187      -0.00000037       0.00000062      -0.00000021       0.00000122
Br       1.98853339       1.40610528       6.89568383      -0.00700346      -0.00495028      -0.00000159
Br       5.97391613       4.22419672       6.89568358       0.00700328       0.00495225      -0.00000049
Br       4.97757038       1.40610565       5.16996260       0.00350076      -0.00495054      -0.00606501
Br       2.98487892       4.22419698       8.62140530      -0.00350276       0.00495146       0.00606546
Br       2.98487891       4.22419765       5.16996234      -0.00350146       0.00495178      -0.00606424
Br       4.97757028       1.40610589       8.62140491       0.00350200      -0.00495298       0.00606468
