9
Lattice="5.6586941373050035 -1.1486918938171003e-07 3.2670486981670472 1.886231287348832 5.335068084493415 3.267048669507043 -6.632102861365307e-08 -8.199724432124832e-08 6.5340975112055055" Properties=species:S:1:pos:R:3:forces:R:3 energy=-33.69403076171875 free_energy=-33.69403076171875 stress="3.882673991029151e-05 1.3300328838283804e-08 -8.589241318190943e-09 1.3300328838283804e-08 3.8768801459809765e-05 -1.6646129807895704e-08 -8.589241318190943e-09 -1.6646129807895704e-08 3.875581387546845e-05" pbc="T T T"
V        1.88623120       1.33376683       3.26704904       0.00000050       0.00000109       0.00000073
V        5.65869423       4.00130087       9.80114724       0.00000089      -0.00000094       0.00000560
C       -0.00000050      -0.00000005       0.00000009      -0.00000217      -0.00000018       0.00000017
Cl       1.89355984       1.33894927       6.53409754       0.00090072       0.00063963      -0.00000064
Cl       5.65136573       3.99611891       6.53409724      -0.00090331      -0.00063870      -0.00000148
Cl       4.71191423       1.33894908       4.90691939      -0.00045022       0.00063920       0.00078065
Cl       2.83301120       3.99611891       8.16127479       0.00045212      -0.00063933      -0.00078437
Cl       2.83301124       3.99611898       4.90691951       0.00045297      -0.00063870       0.00078233
Cl       4.71191416       1.33894872       8.16127486      -0.00045136       0.00063801      -0.00078278
