9
Lattice="2.6683594044825196 0.18797023044895947 1.281279432446045 0.11790712120111992 2.2290483759863897 0.6652121263865384 -0.22203774959616931 -0.05615258112125789 3.429533452448524" Properties=species:S:1:pos:R:3:forces:R:3 energy=-15762053.0 free_energy=-15762053.0 stress="4707699.0 786892.5 1684884.375 786892.5 3725969.0 1602625.75 1684884.375 1602625.75 3017152.25" pbc="T T T"
V        0.26483126      -2.23023727       6.90608601 1981149.75000000 -1273032.12500000 -3303332.75000000
V        1.90954185       0.10735534      10.45136231 259667312.00000000 93459248.00000000 264386704.00000000
C       -1.02021381      -0.69161039       5.34601136 3131630.50000000 1680286.75000000  167413.15625000
F       -0.59090401      -1.20560985       9.24730263 12560518.00000000 -5745182.00000000 -16360874.00000000
F        1.32523309      -1.09246217       9.60050092 2759734.00000000 9926026.00000000 21682136.00000000
F        1.03046689      -1.10603288       9.92017810 9791934.00000000 5515841.00000000 -13397574.00000000
F        1.51467687      -1.06891393      10.32088403  303642.00000000 -5293776.50000000 -11670829.00000000
F       -0.75284627      -0.09254167       9.16877197 -276517056.00000000 -86988352.00000000 -251067312.00000000
F       -0.06301527      -0.98872681       8.95023976 -13678894.00000000 -11281068.00000000 9563580.00000000
