9
Lattice="6.439566375388022 6.120302240742226e-08 3.7178853367211824 2.1465221833820096 6.071281403934107 3.717885335768801 -2.090672736190139e-08 -1.5949807764405398e-08 7.435770709653943" Properties=species:S:1:pos:R:3:forces:R:3 energy=-29.320819854736328 free_energy=-29.320819854736328 stress="1.9581035303417593e-05 4.055815683301489e-09 -1.5719450185969208e-09 4.055815683301489e-09 1.9590512238210067e-05 7.4227588520159316e-09 -1.5719450185969208e-09 7.4227588520159316e-09 1.9613071344792843e-05" pbc="T T T"
V        2.14652221       1.51782008       3.71788534       0.00000087      -0.00000042      -0.00000068
V        6.43956660       4.55346085      11.15365618       0.00000000      -0.00000015       0.00000034
C       -0.00000001      -0.00000021      -0.00000032      -0.00000005      -0.00000095      -0.00000128
I        2.17136068       1.53538404       7.43577065       0.00235829       0.00166827      -0.00000001
I        6.41472763       4.53589776       7.43577059      -0.00235960      -0.00166789       0.00000060
I        5.35388604       1.53538403       5.59833888      -0.00117838       0.00166786       0.00204346
I        3.23220230       4.53589778       9.27320268       0.00117955      -0.00166771      -0.00204292
I        3.23220258       4.53589764       5.59833882       0.00117917      -0.00166756       0.00204319
I        5.35388614       1.53538380       9.27320268      -0.00117987       0.00166863      -0.00204292
