9
Lattice="5.920033127583863 -5.334260509899788e-08 3.4179326561672805 1.9733443098940195 5.581460708898235 3.417932683317881 -3.7068582219559316e-08 7.041131260589755e-09 6.835865376539211" Properties=species:S:1:pos:R:3:forces:R:3 energy=-35.069583892822266 free_energy=-35.069583892822266 stress="0.00018300197552889585 -1.1743058081492563e-08 5.146634673991457e-09 -1.1743058081492563e-08 0.00018303495016880333 -1.0849924514388931e-08 5.146634673991457e-09 -1.0849924514388931e-08 0.00018301131785847247" pbc="T T T"
V        1.97334458       1.39536562       3.41793300       0.00000049       0.00000140       0.00000195
V        5.92003313       4.18609523      10.25379865       0.00000001      -0.00000082       0.00000150
Co      -0.00000002      -0.00000000       0.00000004       0.00000071       0.00000102      -0.00000198
Br       1.97051966       1.39336822       6.83586518       0.00250384       0.00177187      -0.00000101
Br       5.92285762       4.18809248       6.83586498      -0.00250569      -0.00177258      -0.00000109
Br       4.93477305       1.39336797       5.12445279      -0.00125319       0.00177208       0.00216872
Br       2.95860422       4.18809260       8.54727772       0.00125273      -0.00177101      -0.00216853
Br       2.95860441       4.18809258       5.12445275       0.00125330      -0.00177218       0.00216886
Br       4.93477299       1.39336793       8.54727770      -0.00125226       0.00177026      -0.00216843
