9
Lattice="5.507618401990834 6.911666064177008e-08 3.1798250034101097 1.8358728573203773 5.192632490141419 3.1798250181447787 4.137643123457664e-08 4.730374697039579e-08 6.359649935154134" Properties=species:S:1:pos:R:3:forces:R:3 energy=-38.35532760620117 free_energy=-38.35532760620117 stress="0.00013304590538609773 1.1881038375349817e-08 1.0318029985967314e-08 1.1881038375349817e-08 0.0001330976519966498 -9.400364042733145e-09 1.0318029985967314e-08 -9.400364042733145e-09 0.00013306857727002352" pbc="T T T"
V        1.83587310       1.29815854       3.17982452       0.00000258       0.00000237      -0.00000227
V        5.50761807       3.89447450       9.53947550      -0.00000316      -0.00000023       0.00000213
Co      -0.00000003       0.00000004      -0.00000026       0.00000017      -0.00000278       0.00000452
Cl       1.83444031       1.29714517       6.35964997       0.00082207       0.00057840       0.00000156
Cl       5.50905099       3.89548710       6.35964978      -0.00081858      -0.00057730      -0.00000087
Cl       4.59039813       1.29714545       4.76849696      -0.00040968       0.00057831       0.00070886
Cl       2.75309321       3.89548718       7.95080312       0.00040988      -0.00058035      -0.00071004
Cl       2.75309300       3.89548712       4.76849712       0.00040907      -0.00057814       0.00070733
Cl       4.59039845       1.29714537       7.95080308      -0.00041226       0.00057983      -0.00071140
