9
Lattice="5.9541562617016535 -6.765850744065262e-08 3.437633595310331 1.9847187474698462 5.613631986555817 3.437633495962759 3.706549191671809e-08 -9.546616591129946e-08 6.87526712642135" Properties=species:S:1:pos:R:3:forces:R:3 energy=-39.825035095214844 free_energy=-39.825035095214844 stress="0.00033764145337045193 -1.0607119627081829e-08 5.2494737445840656e-09 -1.0607119627081829e-08 0.00033762725070118904 -5.797285984598943e-10 5.2494737445840656e-09 -5.797285984598943e-10 0.0003376358945388347" pbc="T T T"
V        1.98471829       1.40340768       3.43763337      -0.00000151      -0.00000171      -0.00000099
V        5.95415627       4.21022398      10.31290022       0.00000028       0.00000038       0.00000019
Cr       0.00000007      -0.00000012      -0.00000027       0.00000062      -0.00000171       0.00000525
Br       1.97816747       1.39877565       6.87526729       0.00026162       0.00018549      -0.00000035
Br       5.96070747       4.21485630       6.87526722      -0.00025977      -0.00018430      -0.00000012
Br       4.96507256       1.39877541       5.15077698      -0.00013062       0.00018295       0.00022468
Br       2.97380278       4.21485660       8.59975739       0.00013091      -0.00018428      -0.00022501
Br       2.97380270       4.21485647       5.15077718       0.00012914      -0.00018223       0.00022253
Br       4.96507256       1.39877534       8.59975740      -0.00013063       0.00018544      -0.00022646
