9
Lattice="6.506587779143902 7.164341934292432e-09 3.7565801723154637 2.1688625968609703 6.134469796107996 3.756580177410449 1.0509705015053435e-08 1.3671565583623702e-08 7.513160326427573" Properties=species:S:1:pos:R:3:forces:R:3 energy=-35.54734802246094 free_energy=-35.54734802246094 stress="0.0001480280770920217 2.0452204374521443e-09 5.867035746121019e-09 2.0452204374521443e-09 0.00014801490760874003 1.188088205594795e-08 5.867035746121019e-09 1.188088205594795e-08 0.00014802375517319888" pbc="T T T"
V        2.16886254       1.53361721       3.75658020       0.00000004      -0.00000051      -0.00000034
V        6.50658775       4.60085253      11.26974036       0.00000035       0.00000048      -0.00000032
Cr      -0.00000003      -0.00000029       0.00000020      -0.00000051       0.00000164      -0.00000028
I        2.16045094       1.52766940       7.51316040       0.00147399       0.00104172      -0.00000042
I        6.51499947       4.60680059       7.51316037      -0.00147384      -0.00104322       0.00000000
I        5.42636247       1.52766956       5.62758528      -0.00073709       0.00104222       0.00127663
I        3.24908798       4.60680023       9.39873532       0.00073644      -0.00104179      -0.00127608
I        3.24908796       4.60680049       5.62758522       0.00073697      -0.00104268       0.00127796
I        5.42636247       1.52766956       9.39873540      -0.00073644       0.00104205      -0.00127727
