9
Lattice="5.649472088990817 2.580251996424286e-08 3.2617243279878645 1.8831573717494765 5.3263735601460445 3.2617243549633588 -6.147971189563283e-08 -1.0434625244005157e-08 6.5234487624617135" Properties=species:S:1:pos:R:3:forces:R:3 energy=-42.69696044921875 free_energy=-42.69696044921875 stress="0.0001884288212750107 -1.1623110474090481e-08 -8.228314918312662e-09 -1.1623110474090481e-08 0.00018844807345885783 1.1268615374149249e-08 -8.228314918312662e-09 1.1268615374149249e-08 0.00018843378347810358" pbc="T T T"
V        1.88315764       1.33159416       3.26172421       0.00000172       0.00000204      -0.00000092
V        5.64947209       3.99477965       9.78517317       0.00000065      -0.00000334       0.00000178
Cr      -0.00000004      -0.00000013       0.00000019       0.00000069       0.00000155      -0.00000103
Cl       1.87004190       1.32231934       6.52344876       0.00030790       0.00021902       0.00000024
Cl       5.66258743       4.00405436       6.52344863      -0.00031103      -0.00021969       0.00000029
Cl       4.71445126       1.32231962       4.88122793      -0.00015395       0.00021831       0.00026681
Cl       2.81817795       4.00405418       8.16566944       0.00015398      -0.00021934      -0.00026700
Cl       2.81817815       4.00405392       4.88122796       0.00015416      -0.00021894       0.00026725
Cl       4.71445119       1.32231922       8.16566946      -0.00015419       0.00022030      -0.00026728
