9
Lattice="4.4412901443096935 -5.592852672107829e-08 2.564180035681623 1.4804299948298725 4.1872883768045845 2.5641800366228886 2.676393570899778e-08 2.007776118087922e-08 5.128360025006754" Properties=species:S:1:pos:R:3:forces:R:3 energy=-49.63439178466797 free_energy=-49.63439178466797 stress="0.000907886540517211 4.3840362451419423e-08 2.7193005625036903e-09 4.3840362451419423e-08 0.0009079469018615782 4.186894386748463e-08 2.7193005625036903e-09 4.186894386748463e-08 0.0009078802540898323" pbc="T T T"
V        1.48043025       1.04682198       2.56418003       0.00000099      -0.00000185       0.00000046
V        4.44128997       3.14046621       7.69254019      -0.00000220      -0.00000006       0.00000053
Fe       0.00000003      -0.00000013      -0.00000005      -0.00000217       0.00000387      -0.00000155
F        1.54314199       1.09116602       5.12835997      -0.00700578      -0.00495489      -0.00000013
F        4.37857811       3.09612239       5.12836007       0.00700597       0.00495468       0.00000066
F        3.66971912       1.09116589       3.90058039       0.00350539      -0.00495546      -0.00606813
F        2.25200085       3.09612238       6.35613986      -0.00350440       0.00495410       0.00606714
F        2.25200119       3.09612223       3.90057989      -0.00350061       0.00495252      -0.00606748
F        3.66971914       1.09116625       6.35614016       0.00350266      -0.00495303       0.00606863
