9
Lattice="5.97592395513561 -2.8571268106249326e-08 3.4502012824717743 1.9919746362000355 5.6341551417636815 3.4502012626823007 -1.3720351337874462e-09 -2.520720904100949e-08 6.900402567319952" Properties=species:S:1:pos:R:3:forces:R:3 energy=-37.542213439941406 free_energy=-37.542213439941406 stress="-2.6061878088512458e-05 4.1155279184579285e-09 -2.2519884623761754e-08 4.1155279184579285e-09 -2.6085315766977146e-05 -3.7607570391173795e-08 -2.2519884623761754e-08 -3.7607570391173795e-08 -2.610024057503324e-05" pbc="T T T"
V        1.99197465       1.40853904       3.45020157       0.00000011      -0.00000068      -0.00000061
V        5.97592474       4.22561616      10.35060368       0.00000160      -0.00000049       0.00000011
Fe      -0.00000012      -0.00000001       0.00000004      -0.00000282      -0.00000342      -0.00000466
Br       1.85738454       1.31336926       6.90040255       0.00112037       0.00079458      -0.00000017
Br       6.11051388       4.32078565       6.90040240      -0.00111650      -0.00078921      -0.00000085
Br       5.04723151       1.31336906       5.05874343      -0.00056167       0.00079372       0.00097320
Br       2.92066687       4.32078600       8.74206154       0.00055864      -0.00079171      -0.00097005
Br       2.92066666       4.32078590       5.05874363       0.00055962      -0.00079378       0.00097152
Br       5.04723159       1.31336922       8.74206169      -0.00055918       0.00079079      -0.00096845
