9
Lattice="5.667106170789644 1.2816236623642198e-08 3.271905321624753 1.8890353551243735 5.342999052218106 3.271905403415832 -3.382248618577249e-08 7.625708746691024e-08 6.5438107018317675" Properties=species:S:1:pos:R:3:forces:R:3 energy=-35.907291412353516 free_energy=-35.907291412353516 stress="0.00039163234760053456 -1.361802581811844e-08 -1.0636596492474837e-08 -1.361802581811844e-08 0.00039161407039500773 -1.317973286063534e-08 -1.0636596492474837e-08 -1.317973286063534e-08 0.00039160429150797427" pbc="T T T"
V        1.88903483       1.33574968       3.27190539      -0.00000130       0.00000049       0.00000185
V        5.66710614       4.00724908       9.81571627      -0.00000167      -0.00000140       0.00000171
Ga      -0.00000010      -0.00000002       0.00000014       0.00000233       0.00000203       0.00000417
Cl       1.90800040       1.34915987       6.54381056       0.00152718       0.00108093       0.00000061
Cl       5.64814150       3.99383949       6.54381069      -0.00153127      -0.00108323      -0.00000081
Cl       4.71310621       1.34916021       4.92428204      -0.00076085       0.00108172       0.00132354
Cl       2.84303519       3.99383918       8.16333936       0.00076590      -0.00108336      -0.00132762
Cl       2.84303546       3.99383907       4.92428201       0.00076444      -0.00107957       0.00132324
Cl       4.71310638       1.34916003       8.16333928      -0.00076458       0.00108244      -0.00132672
