9
Lattice="6.596104011218655 1.6918291539222428e-08 3.8082624650744576 2.1987013296011244 6.218866552172389 3.8082625056433175 -1.6787195663738263e-08 3.781620151340032e-08 7.6165249592252104" Properties=species:S:1:pos:R:3:forces:R:3 energy=-28.47089385986328 free_energy=-28.47089385986328 stress="0.00015038417768664658 2.9810429680310335e-09 -2.4229893647031986e-09 2.9810429680310335e-09 0.0001503803359810263 -2.877854843319483e-09 -2.4229893647031986e-09 -2.877854843319483e-09 0.0001503720850450918" pbc="T T T"
V        2.19870140       1.55471658       3.80826240       0.00000085      -0.00000106      -0.00000022
V        6.59610385       4.66414991      11.42478740      -0.00000098      -0.00000038       0.00000018
Ga      -0.00000008       0.00000018      -0.00000001       0.00000065      -0.00000065      -0.00000023
I        2.24991096       1.59092742       7.61652517       0.00156156       0.00110364       0.00000031
I        6.54489431       4.62793920       7.61652492      -0.00156114      -0.00110426       0.00000019
I        5.47114870       1.59092742       5.75674251      -0.00078114       0.00110430       0.00135323
I        3.32365687       4.62793909       9.47630725       0.00078071      -0.00110332      -0.00135128
I        3.32365692       4.62793910       5.75674272       0.00078069      -0.00110348       0.00135075
I        5.47114835       1.59092751       9.47630742      -0.00078119       0.00110523      -0.00135270
