9
Lattice="5.252528828355565 -1.509593891094475e-08 3.032548888801865 1.7508428635032005 4.952131956518416 3.032549001470559 -8.000476993168254e-08 8.141848296772656e-08 6.065097916176069" Properties=species:S:1:pos:R:3:forces:R:3 energy=-41.26198959350586 free_energy=-41.26198959350586 stress="-2.796756007228396e-06 2.1779213099648587e-08 -2.387910846834984e-08 2.1779213099648587e-08 -2.9037255444563925e-06 2.8749541414185842e-08 -2.387910846834984e-08 2.8749541414185842e-08 -2.880123702198034e-06" pbc="T T T"
V        1.75084234       1.23803248       3.03254879      -0.00000254      -0.00000007       0.00000008
V        5.25252849       3.71409914       9.09764665      -0.00000001       0.00000008      -0.00000062
Ga       0.00000020       0.00000059       0.00000041       0.00000328      -0.00000658      -0.00000728
S        1.84711579       1.30610837       6.06509795      -0.00448295      -0.00317154      -0.00000101
S        5.15625606       3.64602356       6.06509818       0.00448580       0.00317182       0.00000085
S        4.32897141       1.30610812       4.63219763       0.00224019      -0.00316687      -0.00387931
S        2.67440033       3.64602343       7.49799759      -0.00224576       0.00317443       0.00388680
S        2.67440036       3.64602400       4.63219783      -0.00224106       0.00316902      -0.00388145
S        4.32897153       1.30610834       7.49799823       0.00224289      -0.00317053       0.00388207
