9
Lattice="5.447966174568944 -2.2162418352369688e-08 3.1453849211621927 1.8159886703239794 5.13639200921077 3.145384979423839 -9.953848428058333e-08 9.713820604906909e-10 6.290770014730098" Properties=species:S:1:pos:R:3:forces:R:3 energy=-38.05065155029297 free_energy=-38.05065155029297 stress="8.09673383628251e-06 -1.989914721889363e-08 9.29076193756373e-09 -1.989914721889363e-08 8.02476097305771e-06 2.2288690004756972e-08 9.29076193756373e-09 2.2288690004756972e-08 8.017645086511038e-06" pbc="T T T"
V        1.81598856       1.28409908       3.14538483      -0.00000033       0.00000608       0.00000082
V        5.44796579       3.85229364       9.43615448      -0.00000195      -0.00000125      -0.00000202
Ga       0.00000002       0.00000054       0.00000121       0.00000045      -0.00000606      -0.00002415
Se       2.00641047       1.41874642       6.29077011      -0.00155234      -0.00109890      -0.00000158
Se       5.25754421       3.71764522       6.29077071       0.00155687       0.00110088       0.00000095
Se       4.44476145       1.41874641       4.88298723       0.00077370      -0.00109237      -0.00133781
Se       2.81919388       3.71764470       7.69855214      -0.00078553       0.00110684       0.00135571
Se       2.81919356       3.71764488       4.88298659      -0.00077327       0.00109142      -0.00134411
Se       4.44476096       1.41874707       7.69855237       0.00078247      -0.00110663       0.00135221
