9
Lattice="6.596103947408137 -4.81729179743042e-08 3.8082624327464876 2.1987012932857657 6.2188662911552965 3.808262393080897 8.849597663083367e-09 -4.232259754671232e-08 7.616524850165027" Properties=species:S:1:pos:R:3:forces:R:3 energy=-28.47089195251465 free_energy=-28.47089195251465 stress="0.0001503855746705085 -9.449572235809e-10 -2.661006970328117e-10 -9.449572235809e-10 0.00015039263234939426 2.1348354195538377e-09 -2.661006970328117e-10 2.1348354195538377e-09 0.00015040257130749524" pbc="T T T"
V        2.19870129       1.55471667       3.80826252       0.00000044      -0.00000029       0.00000078
V        6.59610365       4.66414961      11.42478719      -0.00000116       0.00000049       0.00000073
Ga       0.00000004      -0.00000012      -0.00000023      -0.00000048      -0.00000028      -0.00000032
I        2.24991094       1.59092705       7.61652489       0.00156150       0.00110393       0.00000001
I        6.54489424       4.62793899       7.61652480      -0.00156113      -0.00110401      -0.00000017
I        5.47114857       1.59092727       5.75674255      -0.00078056       0.00110422       0.00135161
I        3.32365686       4.62793925       9.47630721       0.00078068      -0.00110399      -0.00135174
I        3.32365697       4.62793887       5.75674241       0.00078090      -0.00110399       0.00135080
I        5.47114843       1.59092720       9.47630737      -0.00078023       0.00110390      -0.00135172
