9
Lattice="4.527965311091325 5.376072682644721e-07 2.6142220935226463 1.5093221621683277 4.269007972068553 2.614222292806263 1.6172598866917203e-07 3.5842912681202885e-07 5.228443906927619" Properties=species:S:1:pos:R:3:forces:R:3 energy=-46.93553924560547 free_energy=-46.93553924560547 stress="0.00014148793707136065 -1.15949783108249e-08 3.042870133640463e-08 -1.15949783108249e-08 0.000141414551762864 3.6961768756782476e-08 3.042870133640463e-08 3.6961768756782476e-08 0.00014141613792162389" pbc="T T T"
V        1.50932091       1.06725332       2.61422240      -0.00000789       0.00000915       0.00000165
V        4.52796586       3.20175499       7.84266472       0.00000012      -0.00000938      -0.00001348
Ga      -0.00000000       0.00000014      -0.00000024       0.00000336      -0.00000231       0.00000169
F        1.51390265       1.07049179       5.22844427       0.00723106       0.00512095       0.00000100
F        4.52338593       3.19851696       5.22844564      -0.00723517      -0.00512491       0.00000654
F        3.77101413       1.07049141       3.92529985      -0.00361574       0.00512077       0.00626957
F        2.26627341       3.19851796       6.53158837       0.00362194      -0.00511941      -0.00626883
F        2.26627294       3.19851688       3.92530013       0.00361663      -0.00511749       0.00626719
F        3.77101471       1.07049211       6.53158823      -0.00361402       0.00512266      -0.00626501
