9
Lattice="5.985029434162978 -5.2548845778369277e-08 3.4554582875845665 1.995009773738528 5.642739628478302 3.4554582669828933 8.282081891088226e-09 -1.9375485979652193e-08 6.910916560824158" Properties=species:S:1:pos:R:3:forces:R:3 energy=-32.645076751708984 free_energy=-32.645076751708984 stress="0.0003218374913558364 -1.1348283424084116e-09 -1.8804499624103244e-11 -1.1348283424084116e-09 0.0003218448255211115 2.176572921896991e-09 -1.8804499624103244e-11 2.176572921896991e-09 0.00032183321309275925" pbc="T T T"
V        1.99501000       1.41068508       3.45545823       0.00000033       0.00000137      -0.00000048
V        5.98502942       4.23205452      10.36637484       0.00000101      -0.00000021       0.00000073
Ga       0.00000015       0.00000007      -0.00000002       0.00000018      -0.00000174       0.00000062
Br       2.03517447       1.43908564       6.91091672      -0.00125372      -0.00088693       0.00000044
Br       5.94486469       4.20365390       6.91091666       0.00125441       0.00088757       0.00000010
Br       4.96744212       1.43908574       5.21797116       0.00062732      -0.00088701      -0.00108755
Br       3.01259696       4.20365389       8.60386192      -0.00062791       0.00088717       0.00108738
Br       3.01259689       4.20365395       5.21797111      -0.00062779       0.00088723      -0.00108758
Br       4.96744215       1.43908547       8.60386180       0.00062617      -0.00088754       0.00108631
