9
Lattice="5.667105970852683 1.1217269713287616e-08 3.2719051584088037 1.8890353077815358 5.342998802517767 3.271905204155317 2.9780647140805943e-08 7.708591227668759e-08 6.543810265236018" Properties=species:S:1:pos:R:3:forces:R:3 energy=-35.907291412353516 free_energy=-35.907291412353516 stress="0.0003917324647773057 -9.199853323593743e-09 3.7073819569855004e-09 -9.199853323593743e-09 0.0003917622962035239 1.1901798657731888e-08 3.7073819569855004e-09 1.1901798657731888e-08 0.00039173164987005293" pbc="T T T"
V        1.88903552       1.33574979       3.27190512       0.00000129       0.00000082      -0.00000034
V        5.66710605       4.00724898       9.81571558       0.00000018      -0.00000208       0.00000161
Ga       0.00000012       0.00000001       0.00000010      -0.00000153      -0.00000180      -0.00000292
Cl       1.90800000       1.34916031       6.54381043       0.00152530       0.00107911      -0.00000013
Cl       5.64814104       3.99383889       6.54381024      -0.00152321      -0.00107768      -0.00000051
Cl       4.71310562       1.34916009       4.92428178      -0.00076170       0.00107859       0.00132152
Cl       2.84303544       3.99383871       8.16333886       0.00076034      -0.00107746      -0.00132062
Cl       2.84303563       3.99383886       4.92428163       0.00076120      -0.00107744       0.00132199
Cl       4.71310583       1.34915989       8.16333875      -0.00076201       0.00107791      -0.00132065
