9
Lattice="6.014613891632109 -5.576679216958735e-08 3.4725389835273646 2.0048712508381414 5.670632342143523 3.472538972780218 -3.8559332006873985e-08 -4.04280661144512e-08 6.9450780338414475" Properties=species:S:1:pos:R:3:forces:R:3 energy=-33.11457061767578 free_energy=-33.11457061767578 stress="0.00035805755760520697 -2.5123771951740537e-09 7.900944898331375e-10 -2.5123771951740537e-09 0.0003580245829652995 2.8694211451352203e-09 7.900944898331375e-10 2.8694211451352203e-09 0.0003579990880098194" pbc="T T T"
V        2.00487052       1.41765817       3.47253904      -0.00000344       0.00000079      -0.00000012
V        6.01461369       4.25297419      10.41761729      -0.00000037      -0.00000046       0.00000011
Ge       0.00000008      -0.00000021       0.00000006      -0.00000088       0.00000240      -0.00000002
Br       2.03393271       1.43820759       6.94507805       0.00318666       0.00225285      -0.00000004
Br       5.98555261       4.23242458       6.94507787      -0.00318648      -0.00225364       0.00000003
Br       4.99764763       1.43820757       5.23397646      -0.00159164       0.00225239       0.00275878
Br       3.02183773       4.23242471       8.65617949       0.00159380      -0.00225330      -0.00275935
Br       3.02183777       4.23242465       5.23397630       0.00159386      -0.00225329       0.00275934
Br       4.99764765       1.43820769       8.65617941      -0.00159147       0.00225218      -0.00275862
