9
Lattice="4.023727600586339 -3.240296607059503e-08 2.3231003118368516 1.341242424326779 3.793606773433427 2.323100448066475 -1.5204004987584612e-07 5.9337948675511166e-08 4.646200887014828" Properties=species:S:1:pos:R:3:forces:R:3 energy=-41.20660400390625 free_energy=-41.20660400390625 stress="0.00019906138186343014 -1.4795338643125433e-07 1.2948887615493732e-06 -1.4795338643125433e-07 0.00019627116853371263 3.651442739283084e-07 1.2948887615493732e-06 3.651442739283084e-07 0.00019908815738745034" pbc="T T T"
V        1.34124097       0.94840072       2.32309964      -0.00001454       0.00000200       0.00001913
V        4.02372590       2.84520545       6.96930199      -0.00001909      -0.00001499      -0.00001112
Ge       0.00000464       0.00000107       0.00000015       0.00006476       0.00003155      -0.00000948
F        1.42212195       1.00559362       4.64619995      -0.00203466      -0.00143391      -0.00001065
F        3.94285038       2.78801626       4.64620170       0.00206137       0.00147110       0.00001185
F        3.31266550       1.00559073       3.55469258       0.00100470      -0.00145197      -0.00178635
F        2.05230241       2.78801430       5.73770789      -0.00104600       0.00142783       0.00175118
F        2.05230141       2.78801361       3.55469383      -0.00103807       0.00142878      -0.00175822
F        3.31266622       1.00559154       5.73770906       0.00102168      -0.00145954       0.00179350
