9
Lattice="6.641636538447228 -8.73540526185581e-09 3.8345506847017066 2.2138788723740808 6.261794911861269 3.8345506250137777 -5.201259530656751e-09 -7.678028869286784e-08 7.669101378412239" Properties=species:S:1:pos:R:3:forces:R:3 energy=-29.225317001342773 free_energy=-29.225317001342773 stress="0.00019192835316061974 -5.061749241974667e-09 5.040945882939241e-09 -5.061749241974667e-09 0.00019192522449884564 3.5786722474284716e-09 5.040945882939241e-09 3.5786722474284716e-09 0.0001919294591061771" pbc="T T T"
V        2.21387888       1.56544880       3.83455076       0.00000021       0.00000030       0.00000022
V        6.64163666       4.69634611      11.50365158       0.00000008       0.00000020      -0.00000042
Ge       0.00000006      -0.00000000       0.00000001      -0.00000028      -0.00000031       0.00000016
I        2.31092534       1.63407098       7.66910128      -0.00031248      -0.00022102       0.00000048
I        6.54459017       4.62772385       7.66910150       0.00031283       0.00022103       0.00000031
I        5.48617382       1.63407087       5.83587074       0.00015658      -0.00022141      -0.00027157
I        3.36934136       4.62772400       9.50233199      -0.00015617       0.00022042       0.00027084
I        3.36934149       4.62772386       5.83587066      -0.00015623       0.00022115      -0.00027110
I        5.48617388       1.63407080       9.50233219       0.00015555      -0.00022031       0.00027107
