9
Lattice="5.716171773291659 -9.802829933034071e-10 3.3002332981858937 1.90539059978418 5.389258587529858 3.3002332815388637 -8.636164195167743e-08 -8.145529547939309e-08 6.600466745954561" Properties=species:S:1:pos:R:3:forces:R:3 energy=-36.516815185546875 free_energy=-36.516815185546875 stress="4.863157664658502e-05 2.8256623707534345e-08 3.9662605644252835e-08 2.8256623707534345e-08 4.857794556301087e-05 -1.8819637404021705e-08 3.9662605644252835e-08 -1.8819637404021705e-08 4.85132222820539e-05" pbc="T T T"
V        1.90539002       1.34731425       3.30023349      -0.00000047      -0.00000043       0.00000042
V        5.71617204       4.04194335       9.90070106       0.00000038      -0.00000079       0.00000588
Ge       0.00000000       0.00000003      -0.00000000      -0.00000067       0.00000287       0.00000305
Cl       1.90156139       1.34460731       6.60046660       0.00253864       0.00179750      -0.00000088
Cl       5.72000080       4.04465133       6.60046622      -0.00254015      -0.00179671      -0.00000141
Cl       4.76539125       1.34460717       4.94703382      -0.00127103       0.00179805       0.00220213
Cl       2.85617125       4.04465183       8.25389917       0.00127183      -0.00180152      -0.00220724
Cl       2.85617143       4.04465158       4.94703368       0.00127211      -0.00179634       0.00220064
Cl       4.76539099       1.34460708       8.25389932      -0.00127050       0.00179750      -0.00220244
