9
Lattice="5.370846474950012 8.39934950526249e-06 3.1008676496713754 1.7902891298006363 5.063683559592049 3.1008692907180526 2.2098665255154007e-06 3.572531631496039e-06 6.201731471677373" Properties=species:S:1:pos:R:3:forces:R:3 energy=-56.483917236328125 free_energy=-56.483917236328125 stress="-4.3898158764932305e-05 -1.8021283949565259e-06 -1.925076503539458e-06 -1.8021283949565259e-06 -4.449392872629687e-05 1.1410961633373518e-06 -1.925076503539458e-06 1.1410961633373518e-06 -4.464566518436186e-05" pbc="T T T"
V        1.78962894       1.26664554       3.10089556      -0.00086432       0.00099987       0.00004799
V        5.37065737       3.79842471       9.30287622      -0.00032192       0.00090593       0.00031610
Hf       0.00000573      -0.00001177      -0.00001699      -0.00000441       0.00000543       0.00000638
F        1.66799159       1.17920987       6.20169604       0.00128376       0.00038704      -0.00008546
F        5.49352831       3.88392891       6.20161799      -0.00062114      -0.00129688      -0.00017769
F        4.53710857       1.17918384       4.54552242      -0.00024346       0.00040922       0.00107589
F        2.62423907       3.88411518       7.85823885       0.00039831      -0.00076470      -0.00051349
F        2.62434459       3.88417873       4.54514043       0.00070551      -0.00097251       0.00060573
F        4.53704138       1.17911651       7.85790078      -0.00033250       0.00032699      -0.00127566
