9
Lattice="6.207273301247688 -6.012041683630404e-08 3.5837709476292057 2.069091070386579 5.852273335244412 3.5837709014652948 5.947073984991067e-08 -1.4486853599678651e-08 7.16754179225208" Properties=species:S:1:pos:R:3:forces:R:3 energy=-42.08309555053711 free_energy=-42.08309555053711 stress="4.8688696551835164e-05 -1.3676992871580751e-08 3.5782737883849336e-10 -1.3676992871580751e-08 4.8695575969759375e-05 -8.930451045330301e-09 3.5782737883849336e-10 -8.930451045330301e-09 4.8709349357523024e-05" pbc="T T T"
V        2.06909102       1.46306805       3.58377085       0.00000010      -0.00000060      -0.00000021
V        6.20727321       4.38920500      10.75131270      -0.00000064      -0.00000016      -0.00000097
Hf       0.00000006       0.00000019       0.00000013       0.00000006      -0.00000029      -0.00000267
Br       2.09987141       1.48483301       7.16754191       0.00170100       0.00120378      -0.00000019
Br       6.17649308       4.36744010       7.16754186      -0.00170064      -0.00120264       0.00000032
Br       5.15733767       1.48483320       5.40231292      -0.00085025       0.00120309       0.00147325
Br       3.11902664       4.36744010       8.93277072       0.00084993      -0.00120187      -0.00147152
Br       3.11902685       4.36744017       5.40231273       0.00084990      -0.00120279       0.00147268
Br       5.15733774       1.48483319       8.93277072      -0.00084935       0.00120160      -0.00147074
