9
Lattice="6.787500200972955 -5.174765231155049e-08 3.9187651479211105 2.262500061313588 6.399316591418042 3.9187650732510773 9.83786590578585e-09 -8.449530728990694e-08 7.837530278802531" Properties=species:S:1:pos:R:3:forces:R:3 energy=-37.77952194213867 free_energy=-37.77952194213867 stress="0.00022811359667684883 2.504323415308818e-09 -2.1672086347734876e-09 2.504323415308818e-09 0.00022812272072769701 2.8043991573412086e-09 -2.1672086347734876e-09 2.8043991573412086e-09 0.00022810944938100874" pbc="T T T"
V        2.26249995       1.59982921       3.91876503      -0.00000043      -0.00000002      -0.00000007
V        6.78750014       4.79948744      11.75629544      -0.00000052       0.00000039      -0.00000024
Hf      -0.00000008      -0.00000015       0.00000006       0.00000077      -0.00000061      -0.00000075
I        2.29605432       1.62355532       7.83753030       0.00043492       0.00030738      -0.00000045
I        6.75394593       4.77576099       7.83753032      -0.00043428      -0.00030772       0.00000033
I        5.63947324       1.62355535       5.90720656      -0.00021798       0.00030872       0.00037763
I        3.41052732       4.77576100       9.76785388       0.00021732      -0.00030778      -0.00037600
I        3.41052718       4.77576128       5.90720667       0.00021759      -0.00030860       0.00037639
I        5.63947305       1.62355540       9.76785376      -0.00021733       0.00030817      -0.00037681
