9
Lattice="5.883197316326238 -6.390030176520889e-08 3.3966653274692757 1.9610656344560213 5.546731268198176 3.39666546154201 -2.1637529113203706e-07 1.1204494769635412e-08 6.793331029711569" Properties=species:S:1:pos:R:3:forces:R:3 energy=-45.53150939941406 free_energy=-45.53150939941406 stress="5.581032019108534e-05 4.4819184807920465e-08 -5.3528363963550873e-08 4.4819184807920465e-08 5.5786393204471096e-05 -9.315162863288151e-09 -5.3528363963550873e-08 -9.315162863288151e-09 5.578351192525588e-05" pbc="T T T"
V        1.96106649       1.38668375       3.39666499       0.00000487       0.00000297      -0.00000063
V        5.88319803       4.16004998      10.18999262       0.00000439       0.00000514      -0.00001680
Hf       0.00000003      -0.00000022       0.00000015      -0.00000007      -0.00000420       0.00000250
Cl       1.99165165       1.40831106       6.79333187       0.00300619       0.00212505       0.00000280
Cl       5.85261020       4.13841996       6.79333263      -0.00300279      -0.00212511       0.00000575
Cl       4.88737016       1.40830974       5.12148712      -0.00150777       0.00212291       0.00260812
Cl       2.95689218       4.13842032       8.46517521       0.00150223      -0.00212735      -0.00259957
Cl       2.95689122       4.13842021       5.12148756       0.00150029      -0.00212753       0.00260583
Cl       4.88737089       1.40831020       8.46517520      -0.00150722       0.00212801      -0.00260809
