9
Lattice="4.438447889337088 2.242009379440071e-07 2.562539284758209 1.479482845131119 4.184609328670052 2.5625392778760427 5.996693155974041e-08 3.3974119400594933e-08 5.125078465650653" Properties=species:S:1:pos:R:3:forces:R:3 energy=-46.76344299316406 free_energy=-46.76344299316406 stress="0.00012364407302811742 -3.193491124875436e-07 -2.714212854471043e-09 -3.193491124875436e-07 0.0001229337794939056 3.958196614917142e-08 -2.714212854471043e-09 3.958196614917142e-08 0.0001231777569046244" pbc="T T T"
V        1.47948055       1.04615095       2.56253892      -0.00001382      -0.00001097      -0.00000390
V        4.43844928       3.13845431       7.68761726       0.00000845      -0.00002470      -0.00000408
Ir      -0.00000013       0.00000080      -0.00000015       0.00001814       0.00000085      -0.00000219
F        1.61005467       1.13848199       5.12507882      -0.00434181      -0.00306025       0.00000209
F        4.30787635       3.04612894       5.12507841       0.00432834       0.00306112       0.00000103
F        3.63342165       1.13848130       3.95688846       0.00217423      -0.00306067      -0.00374687
F        2.28450984       3.04612921       6.29326877      -0.00217409       0.00308035       0.00375658
F        2.28450982       3.04612853       3.95688738      -0.00217086       0.00306964      -0.00375688
F        3.63342123       1.13848238       6.29327002       0.00217152      -0.00305535       0.00375402
