9
Lattice="5.761716025819514 -1.5113231939878134e-07 3.326528278002961 1.9205718716363533 5.432197811081819 3.3265282684441684 -4.7313229277574164e-08 -4.516259798286064e-08 6.65305663795484" Properties=species:S:1:pos:R:3:forces:R:3 energy=-38.93363952636719 free_energy=-38.93363952636719 stress="0.00011412730964366347 -2.5228871436411282e-08 3.765035838654285e-09 -2.5228871436411282e-08 0.000114072798169218 -1.2818375250134295e-09 3.765035838654285e-09 -1.2818375250134295e-09 0.00011407239071559161" pbc="T T T"
V        1.92057212       1.35804928       3.32652818      -0.00000007      -0.00000011      -0.00000096
V        5.76171536       4.07414798       9.97958462      -0.00000177       0.00000002      -0.00000092
Ir       0.00000010       0.00000008       0.00000013       0.00000057      -0.00000530      -0.00000794
Cl       1.90983525       1.35045732       6.65305661       0.00550476       0.00389166       0.00000249
Cl       5.77245265       4.08174037       6.65305673      -0.00550301      -0.00389058       0.00000072
Cl       4.80679838       1.35045729       4.98049416      -0.00275169       0.00389337       0.00476557
Cl       2.87548968       4.08174018       8.32561908       0.00275059      -0.00388701      -0.00476128
Cl       2.87548952       4.08174040       4.98049418       0.00275164      -0.00389172       0.00476436
Cl       4.80679829       1.35045744       8.32561908      -0.00275101       0.00388977      -0.00476222
