9
Lattice="6.512242819497956 4.20345943170776e-09 3.759845164290303 2.170747590886849 6.139801440462038 3.759845198196096 -3.406214239922685e-08 1.7440404461527606e-08 7.519690387577927" Properties=species:S:1:pos:R:3:forces:R:3 energy=-33.76620864868164 free_energy=-33.76620864868164 stress="3.127062882413156e-05 3.422123029395152e-09 1.1644331054938561e-09 3.422123029395152e-09 3.1261246476788074e-05 1.1997593141188645e-08 1.1644331054938561e-09 1.1997593141188645e-08 3.125145303783938e-05" pbc="T T T"
V        2.17074772       1.53495038       3.75984511       0.00000028      -0.00000049      -0.00000005
V        6.51224267       4.60485121      11.27953571      -0.00000042       0.00000038       0.00000017
Ir      -0.00000020       0.00000011      -0.00000014       0.00000248      -0.00000152       0.00000233
I        2.17667410       1.53914106       7.51969040       0.00122664       0.00086638      -0.00000021
I        6.50631631       4.60066047       7.51969021      -0.00122750      -0.00086786       0.00000099
I        5.42390580       1.53914100       5.64490014      -0.00061393       0.00086713       0.00106346
I        3.25908468       4.60066039       9.39448060       0.00061515      -0.00086796      -0.00106350
I        3.25908466       4.60066043       5.64490033       0.00061278      -0.00086644       0.00106259
I        5.42390579       1.53914079       9.39448067      -0.00061548       0.00087038      -0.00106584
