9
Lattice="6.059873426720912 -1.0434090764638127e-07 3.4986694322203062 2.0199577615847244 5.713303128949487 3.4986693437968706 1.0901925518748866e-08 -1.0058732865806651e-07 6.997338845557908" Properties=species:S:1:pos:R:3:forces:R:3 energy=-36.65498733520508 free_energy=-36.65498733520508 stress="5.2181647333782166e-05 3.8616487785247955e-09 -5.860918417255334e-10 3.8616487785247955e-09 5.216259523876943e-05 8.882267144016964e-10 -5.860918417255334e-10 8.882267144016964e-10 5.215453711571172e-05" pbc="T T T"
V        2.01995777       1.42832537       3.49866979      -0.00000033       0.00000022       0.00000111
V        6.05987329       4.28497707      10.49600793      -0.00000063      -0.00000135      -0.00000050
Ir       0.00000004       0.00000023      -0.00000006      -0.00000004      -0.00000493      -0.00000231
Br       2.01128865       1.42219574       6.99733881       0.00334182       0.00236314      -0.00000060
Br       6.06854268       4.29110709       6.99733891      -0.00334039      -0.00236115       0.00000001
Br       5.05422906       1.42219572       5.24049635      -0.00167218       0.00236493       0.00289533
Br       3.02560216       4.29110741       8.75418107       0.00167117      -0.00236101      -0.00289279
Br       3.02560203       4.29110718       5.24049634       0.00167168      -0.00236321       0.00289401
Br       5.05422912       1.42219583       8.75418132      -0.00167115       0.00236340      -0.00289424
