9
Lattice="5.76177700691841 -2.419128369748996e-08 3.3265635626814523 1.9205923100260414 5.4322554773442 3.326563567541041 4.969393697560019e-08 4.1090634161128586e-08 6.653127039290525" Properties=species:S:1:pos:R:3:forces:R:3 energy=-38.93363952636719 free_energy=-38.93363952636719 stress="0.00011793695011874661 9.715037663227122e-10 -4.851874457756367e-09 9.715037663227122e-10 0.00011793257726822048 3.1070062078697447e-09 -4.851874457756367e-09 3.1070062078697447e-09 0.00011794627789640799" pbc="T T T"
V        1.92059128       1.35806462       3.32656332      -0.00000326       0.00000230      -0.00000099
V        5.76177616       4.07419157       9.97969083      -0.00000530       0.00000063       0.00000061
Ir       0.00000019       0.00000001      -0.00000004       0.00000149       0.00000143      -0.00000073
Cl       1.90982728       1.35045045       6.65312706       0.00577585       0.00408127      -0.00000052
Cl       5.77254280       4.08180421       6.65312735      -0.00577605      -0.00408580       0.00000029
Cl       4.80686431       1.35045175       4.98052167      -0.00288538       0.00408603       0.00500114
Cl       2.87550542       4.08180369       8.32573239       0.00288813      -0.00408458      -0.00499979
Cl       2.87550566       4.08180417       4.98052186       0.00288916      -0.00408585       0.00500116
Cl       4.80686440       1.35045157       8.32573217      -0.00288451       0.00408454      -0.00500126
