9
Lattice="6.51226465184942 9.937261246313883e-09 3.7598577671385596 2.1707549006636033 6.13982205040433 3.759857754416885 9.92819084748479e-09 -8.560528089488607e-09 7.51971551708098" Properties=species:S:1:pos:R:3:forces:R:3 energy=-33.766212463378906 free_energy=-33.766212463378906 stress="3.294832640676759e-05 -2.37149389015201e-09 3.9212584290737595e-09 -2.37149389015201e-09 3.2959131203824654e-05 1.7088221948569071e-09 3.9212584290737595e-09 1.7088221948569071e-09 3.297552393632941e-05" pbc="T T T"
V        2.17075495       1.53495548       3.75985765      -0.00000038       0.00000001      -0.00000020
V        6.51226471       4.60486655      11.27957333      -0.00000000      -0.00000034      -0.00000068
Ir      -0.00000003       0.00000009       0.00000020       0.00000027      -0.00000120      -0.00000131
I        2.17667241       1.53913969       7.51971569       0.00130177       0.00092024       0.00000005
I        6.50634705       4.60068221       7.51971556      -0.00130121      -0.00091967      -0.00000035
I        5.42392866       1.53913966       5.64491127      -0.00065080       0.00092160       0.00112816
I        3.25909104       4.60068214       9.39451964       0.00064992      -0.00091979      -0.00112702
I        3.25909091       4.60068242       5.64491119       0.00065068      -0.00092075       0.00112778
I        5.42392854       1.53913999       9.39451964      -0.00065025       0.00091987      -0.00112645
