9
Lattice="5.712415968921144 0.8164511631951854 2.8117699337194373 2.266397464920919 5.362056369472495 3.5576841960326258 0.08433938933394981 0.9514275666397917 5.369827353572375" Properties=species:S:1:pos:R:3:forces:R:3 energy=-56.343204498291016 free_energy=-56.343204498291016 stress="0.00013901969941798598 -0.00043913416448049247 0.00043496786383911967 -0.00043913416448049247 -0.00018951269157696515 -0.00018248231208417565 0.00043496786383911967 -0.00018248231208417565 -7.110097067197785e-05" pbc="T T T"
V        2.32656229       1.38992788       1.58822527       0.01772280      -0.00723767      -0.00272414
V        6.13551267       5.26388753      10.04097439      -0.00576079       0.03847355      -0.04253490
Mn       0.07201476      -0.42788163       0.30451912       0.00470988       0.01325322      -0.00225949
F        1.90447812       4.04502123       5.72780033       0.00150419       0.00037338      -0.01824039
F        4.81115720       4.94147773       6.13205750       0.00071377       0.00570203       0.03078843
F        5.89994958       2.25303884       4.24884844      -0.01735175      -0.03643954       0.00782298
F        2.13291943       3.90660066       8.35579712       0.00168569      -0.00390053       0.00830702
F        4.45363124       5.22613251       3.62614003       0.00178257       0.01221607      -0.00034487
F        4.49948201       1.92231360       6.93338674      -0.00500648      -0.02244041       0.01918547
