9
Lattice="5.6283913248211235 3.265964895408316e-08 3.2495532433389402 1.8761304730130743 5.306498261640254 3.2495532422750695 1.0838650513310016e-09 -5.365441324270003e-10 6.4991064848005315" Properties=species:S:1:pos:R:3:forces:R:3 energy=-41.937782287597656 free_energy=-41.937782287597656 stress="-4.049112249049358e-05 1.3366777018575249e-08 6.153574094724945e-09 1.3366777018575249e-08 -4.049740527989343e-05 5.260858970679294e-10 6.153574094724945e-09 5.260858970679294e-10 -4.0506129153072834e-05" pbc="T T T"
V        1.87612992       1.32662494       3.24955340      -0.00000430       0.00000212       0.00000112
V        5.62839147       3.97987397       9.74865964      -0.00000053       0.00000047       0.00000159
Mn       0.00000012      -0.00000001      -0.00000002      -0.00000243       0.00000215       0.00000912
Cl       1.86129650       1.31613504       6.49910655       0.00418141       0.00295644       0.00000011
Cl       5.64322549       3.99036287       6.49910649      -0.00417976      -0.00295755      -0.00000066
Cl       4.69774341       1.31613541       4.86148312      -0.00208751       0.00295414       0.00361903
Cl       2.80677866       3.99036311       8.13672973       0.00209309      -0.00296018      -0.00362578
Cl       2.80677839       3.99036269       4.86148319       0.00209019      -0.00295571       0.00362007
Cl       4.69774330       1.31613521       8.13672978      -0.00209021       0.00295824      -0.00362458
