9
Lattice="6.09030643058284 5.338860224287481e-08 3.516239961977432 2.0301022174253167 5.741995827550188 3.516239921166053 4.1242101571623614e-08 -2.0820953572430765e-08 7.032479852521404" Properties=species:S:1:pos:R:3:forces:R:3 energy=-39.21640396118164 free_energy=-39.21640396118164 stress="0.00015897657431196421 4.556818478107516e-09 1.368641289190009e-08 4.556818478107516e-09 0.000158976879902184 -1.293792806222882e-08 1.368641289190009e-08 -1.293792806222882e-08 0.0001589655439602211" pbc="T T T"
V        2.03010244       1.43549929       3.51623979       0.00000095       0.00000040      -0.00000045
V        6.09030654       4.30649714      10.54871995       0.00000071       0.00000163       0.00000124
Mo       0.00000007      -0.00000010      -0.00000009      -0.00000293       0.00000186       0.00000238
Br       2.07284838       1.46572451       7.03247992      -0.00075573      -0.00053352      -0.00000028
Br       6.04756057       4.27627108       7.03248010       0.00075508       0.00053518      -0.00000067
Br       5.05388226       1.46572497       5.31137900       0.00037854      -0.00053400      -0.00065602
Br       3.06652596       4.27627095       8.75358061      -0.00037734       0.00053108       0.00065085
Br       3.06652623       4.27627071       5.31137913      -0.00037746       0.00053374      -0.00065283
Br       5.05388231       1.46572483       8.75358056       0.00037817      -0.00053641       0.00065573
