9
Lattice="6.090274255286771 7.119242465550197e-08 3.516221487661692 2.030091484605032 5.741965366087005 3.5162214892980423 1.5174978956431476e-07 1.093074382221019e-07 7.0324427124850235" Properties=species:S:1:pos:R:3:forces:R:3 energy=-39.216407775878906 free_energy=-39.216407775878906 stress="0.0001553007896291092 6.318098044744147e-09 -1.1379938769096043e-08 6.318098044744147e-09 0.00015528763469774276 1.6329154917116284e-08 -1.1379938769096043e-08 1.6329154917116284e-08 0.00015529805386904627" pbc="T T T"
V        2.03009141       1.43549137       3.51622155       0.00000021       0.00000002       0.00000026
V        6.09027438       4.30647400      10.54866452      -0.00000077       0.00000022       0.00000030
Mo      -0.00000003      -0.00000009       0.00000008      -0.00000306       0.00000150       0.00000217
Br       2.07284197       1.46572070       7.03244295      -0.00072517      -0.00051274      -0.00000024
Br       6.04752396       4.27624506       7.03244303       0.00072641       0.00051427      -0.00000027
Br       5.05385331       1.46572068       5.31135537       0.00036423      -0.00051507      -0.00063044
Br       3.06651261       4.27624502       8.75353016      -0.00036235       0.00051325       0.00062693
Br       3.06651270       4.27624476       5.31135477      -0.00036200       0.00051123      -0.00062727
Br       5.05385332       1.46572071       8.75353037       0.00036252      -0.00051265       0.00062859
