9
Lattice="6.637482285897727 1.6705923688803513e-08 3.8321521716396996 2.2124941120126747 6.257878363122531 3.8321521699718075 -8.692848008519717e-09 -8.18950580645634e-09 7.664304358335827" Properties=species:S:1:pos:R:3:forces:R:3 energy=-35.49742889404297 free_energy=-35.49742889404297 stress="0.00010516044858377427 1.9988592114827952e-08 -6.481914116562848e-09 1.9988592114827952e-08 0.00010514921450521797 4.5174075591347673e-10 -6.481914116562848e-09 4.5174075591347673e-10 0.00010512882727198303" pbc="T T T"
V        2.21249412       1.56446964       3.83215218      -0.00000038       0.00000056       0.00000016
V        6.63748234       4.69340886      11.49645620      -0.00000007       0.00000018      -0.00000081
Mo      -0.00000008       0.00000005      -0.00000015      -0.00000022      -0.00000148       0.00000391
I        2.25249275       1.59275274       7.66430433       0.00165424       0.00116852       0.00000051
I        6.59748387       4.66512539       7.66430446      -0.00165252      -0.00116755       0.00000013
I        5.51123604       1.59275291       5.78286803      -0.00082719       0.00116903       0.00143278
I        3.33874029       4.66512553       9.54574089       0.00082806      -0.00117083      -0.00143450
I        3.33874020       4.66512547       5.78286801       0.00082712      -0.00116986       0.00143355
I        5.51123601       1.59275286       9.54574078      -0.00082900       0.00117151      -0.00143579
