9
Lattice="5.767745060741187 2.69255416786207e-08 3.3300090818954184 1.9225816082962472 5.4378821233146875 3.3300092620341277 -3.700872423409442e-08 1.9445484188858998e-07 6.6600182278918005" Properties=species:S:1:pos:R:3:forces:R:3 energy=-42.14270782470703 free_energy=-42.14270782470703 stress="0.0001977434440050274 -1.5667207975411657e-08 -1.7296603260774646e-08 -1.5667207975411657e-08 0.0001977335923584178 4.4440856328265e-08 -1.7296603260774646e-08 4.4440856328265e-08 0.00019774342945311219" pbc="T T T"
V        1.92258155       1.35947050       3.33000898       0.00000047      -0.00000190      -0.00000036
V        5.76774458       4.07841114       9.99002738      -0.00000236      -0.00000162      -0.00000085
Mo       0.00000013       0.00000008      -0.00000023      -0.00000588       0.00000340      -0.00000706
Cl       1.94496256       1.37529632       6.66001801       0.00517856       0.00366196       0.00000042
Cl       5.74536370       4.06258641       6.66001863      -0.00517552      -0.00365924      -0.00000086
Cl       4.79526379       1.37529602       5.01439646      -0.00258662       0.00365999       0.00448053
Cl       2.89506340       4.06258538       8.30564048       0.00258619      -0.00365625      -0.00447935
Cl       2.89506324       4.06258640       5.01439640       0.00259197      -0.00366393       0.00448660
Cl       4.79526364       1.37529707       8.30564027      -0.00258693       0.00365758      -0.00447923
