9
Lattice="4.739847227984647 5.412404753621641e-08 2.736552140399401 1.579949049468916 4.468770830564618 2.7365522747278836 -7.955075724644018e-09 1.5889305888459144e-07 5.473104294577387" Properties=species:S:1:pos:R:3:forces:R:3 energy=-49.6879997253418 free_energy=-49.6879997253418 stress="-5.5150423577288166e-05 -9.745247098180698e-08 1.5231826466788334e-08 -9.745247098180698e-08 -5.4588355851592496e-05 5.7950760634639664e-08 1.5231826466788334e-08 5.7950760634639664e-08 -5.5127471568994224e-05" pbc="T T T"
V        1.57994620       1.11719299       2.73655436      -0.00002135       0.00000486       0.00001531
V        4.73984502       3.35158517       8.20965784      -0.00001554       0.00004618       0.00000943
Mo       0.00000012      -0.00000003       0.00000013       0.00000348       0.00000121      -0.00000056
F        1.66482698       1.17720980       5.47310322       0.00199641       0.00139786      -0.00000691
F        4.65497156       3.29155802       5.47310346      -0.00198275      -0.00142467      -0.00000380
F        3.90743283       1.17720749       4.17833556      -0.00099906       0.00138839       0.00172864
F        2.41236503       3.29156238       6.76787426       0.00100755      -0.00139710      -0.00172131
F        2.41236446       3.29156159       4.17833442       0.00100700      -0.00140332       0.00171815
F        3.90743311       1.17720675       6.76787212      -0.00099570       0.00138666      -0.00173880
