9
Lattice="4.739838224425415 1.5218636421355403e-07 2.7365473233373083 1.579946215767587 4.46876257060548 2.7365473277082444 -2.6051114459479676e-08 -1.3067635960088388e-08 5.4730946917964785" Properties=species:S:1:pos:R:3:forces:R:3 energy=-49.68799591064453 free_energy=-49.68799591064453 stress="-4.663933941628784e-05 -1.3365608708681975e-07 8.231797465896307e-08 -1.3365608708681975e-07 -4.711389556177892e-05 -1.2157081563657357e-08 8.231797465896307e-08 -1.2157081563657357e-08 -4.664350490202196e-05" pbc="T T T"
V        1.57994117       1.11719757       2.73654948      -0.00003577       0.00004622       0.00001488
V        4.73983542       3.35157291       8.20964357      -0.00002277       0.00000997       0.00000920
Mo       0.00000022      -0.00000004      -0.00000027       0.00000364       0.00001131       0.00003399
F        1.66484088       1.17721676       5.47309462       0.00166400       0.00115490      -0.00000278
F        4.65494666       3.29154204       5.47309354      -0.00164968      -0.00119083      -0.00000775
F        3.90742096       1.17721975       4.17834082      -0.00080747       0.00116515       0.00142761
F        2.41236548       3.29154238       6.76784976       0.00083475      -0.00118975      -0.00143887
F        2.41236495       3.29154007       4.17833833       0.00082099      -0.00118242       0.00141044
F        3.90742220       1.17722002       6.76784763      -0.00080795       0.00117549      -0.00144719
