9
Lattice="5.767557976059732 4.5093385231056777e-08 3.3299012512963904 1.9225193103639155 5.437705738520175 3.32990135089581 8.925021055704378e-08 1.8509333396055772e-07 6.659802348006839" Properties=species:S:1:pos:R:3:forces:R:3 energy=-42.14270782470703 free_energy=-42.14270782470703 stress="0.00018081786402035505 -4.346726356629915e-08 -1.6017514425925583e-08 -4.346726356629915e-08 0.0001808184606488794 3.789367397644128e-08 -1.6017514425925583e-08 3.789367397644128e-08 0.00018083116447087377" pbc="T T T"
V        1.92251934       1.35942645       3.32990136      -0.00000010      -0.00000067      -0.00000094
V        5.76755806       4.07827979       9.98970384      -0.00000013       0.00000225       0.00000240
Mo       0.00000017       0.00000008       0.00000023      -0.00000196       0.00000087      -0.00000883
Cl       1.94495987       1.37529416       6.65980222       0.00492080       0.00347940      -0.00000063
Cl       5.74511784       4.06241193       6.65980236      -0.00492155      -0.00348024      -0.00000020
Cl       4.79507812       1.37529443       5.01428580      -0.00246053       0.00348024       0.00426074
Cl       2.89499900       4.06241144       8.30531930       0.00245817      -0.00347531      -0.00425638
Cl       2.89499908       4.06241180       5.01428549       0.00246307      -0.00348270       0.00426418
Cl       4.79507800       1.37529370       8.30531922      -0.00245786       0.00347627      -0.00426031
