9
Lattice="6.194499049775605 -7.190869788529006e-08 3.576395704166665 2.064832939713149 5.8402298858662185 3.57639571989809 2.1496282625650265e-08 3.4467163254558404e-08 7.152791371100731" Properties=species:S:1:pos:R:3:forces:R:3 energy=-39.86838150024414 free_energy=-39.86838150024414 stress="-0.0002957357792183757 -2.835796708566818e-09 -4.341443204936013e-09 -2.835796708566818e-09 -0.000295719743007794 8.712185417536489e-10 -4.341443204936013e-09 8.712185417536489e-10 -0.0002957209071610123" pbc="T T T"
V        2.06483278       1.46005677       3.57639553      -0.00000129      -0.00000165      -0.00000009
V        6.19449912       4.38017198      10.72918716       0.00000046      -0.00000152      -0.00000017
Nb      -0.00000002       0.00000016      -0.00000011       0.00000196       0.00000011      -0.00000097
Br       2.07880207       1.46993564       7.15279153       0.00567481       0.00401303      -0.00000034
Br       6.18052936       4.37029454       7.15279146      -0.00567538      -0.00401253      -0.00000008
Br       5.15509810       1.46993558       5.37669134      -0.00283805       0.00401264       0.00491446
Br       3.10423435       4.37029474       8.92889119       0.00283705      -0.00401060      -0.00491318
Br       3.10423431       4.37029473       5.37669149       0.00283779      -0.00401205       0.00491467
Br       5.15509794       1.46993514       8.92889153      -0.00283730       0.00401255      -0.00491434
