9
Lattice="4.7464798839005296 1.7079743799992737e-06 2.7403826256165766 1.5821614802925759 4.475027873972435 2.740382783755978 -1.4273786971014392e-07 9.274955444501224e-08 5.4807654984622225" Properties=species:S:1:pos:R:3:forces:R:3 energy=-52.597267150878906 free_energy=-52.597267150878906 stress="0.00010531851148698479 -6.397032734639652e-07 -2.8897736115141015e-07 -6.397032734639652e-07 0.00010273503721691668 -2.104068812514015e-07 -2.8897736115141015e-07 -2.104068812514015e-07 0.00010353149991715327" pbc="T T T"
V        1.58224660       1.11887924       2.74038165       0.00045495       0.00068265      -0.00000088
V        4.74658009       3.35637827       8.22115981       0.00054123       0.00059434       0.00005001
Nb      -0.00003886      -0.00003535      -0.00000450      -0.00000870      -0.00001399       0.00000209
F        1.65609250       1.17102931       5.48076319       0.00602728       0.00418741      -0.00001231
F        4.67249974       3.30392701       5.48076904      -0.00597870      -0.00442716      -0.00000492
F        3.91839632       1.17103184       4.17462787      -0.00325796       0.00404003       0.00525057
F        2.41019124       3.30393178       6.78690791       0.00271901      -0.00455803      -0.00517005
F        2.41019883       3.30394951       4.17462779       0.00275993      -0.00449446       0.00518435
F        3.91839817       1.17102676       6.78689076      -0.00325707       0.00398868      -0.00529891
