9
Lattice="5.893837796546807 -3.7725765898089153e-07 3.402809353266805 1.964612344495397 5.556763714931617 3.4028091777608345 2.168786758892316e-07 -6.159370203804179e-08 6.805618330888714" Properties=species:S:1:pos:R:3:forces:R:3 energy=-42.76592254638672 free_energy=-42.76592254638672 stress="-5.456367216538638e-05 -7.93649732599988e-08 3.00435623046269e-08 -7.93649732599988e-08 -5.443155896500684e-05 -2.4877705229187086e-08 3.00435623046269e-08 -2.4877705229187086e-08 -5.4458399972645566e-05" pbc="T T T"
V        1.96461178       1.38919432       3.40280817      -0.00000274       0.00001641      -0.00000485
V        5.89383781       4.16757321      10.20842701      -0.00000119       0.00000251      -0.00000144
Nb       0.00000019      -0.00000050       0.00000016       0.00000355       0.00000422       0.00000158
Cl       1.97857352       1.39906147       6.80561855      -0.00520322      -0.00368312       0.00000123
Cl       5.87987829       4.15770017       6.80562027       0.00520059       0.00367200       0.00000290
Cl       4.90455108       1.39906318       5.11630394       0.00260893      -0.00368449      -0.00451374
Cl       2.95389824       4.15769922       8.49493271      -0.00260587       0.00367638       0.00451279
Cl       2.95389931       4.15769989       5.11630425      -0.00260711       0.00368413      -0.00451228
Cl       4.90455111       1.39906228       8.49493238       0.00260730      -0.00368810       0.00451386
