9
Lattice="5.497499386842592 -1.4051513232856317e-07 3.1739827610784666 1.8324996551325736 5.1830921403036445 3.173982774939558 -3.546686387557134e-08 -8.102581483245348e-09 6.3479655835873405" Properties=species:S:1:pos:R:3:forces:R:3 energy=-33.63851547241211 free_energy=-33.63851547241211 stress="-2.9932278266642243e-05 8.795820960472156e-09 9.669145484281216e-09 8.795820960472156e-09 -3.000774813699536e-05 2.5513472223792633e-08 9.669145484281216e-09 2.5513472223792633e-08 -2.9952410841360688e-05" pbc="T T T"
V        1.83249986       1.29577260       3.17398246       0.00000134      -0.00000322      -0.00000205
V        5.49749930       3.88731896       9.52194726       0.00000139      -0.00000050      -0.00000604
N        0.00000014      -0.00000092       0.00000067      -0.00000030      -0.00000463       0.00000441
Cl       1.80406542       1.27566698       6.34796555       0.00044134       0.00031371      -0.00000041
Cl       5.52593385       3.90742523       6.34796589      -0.00043908      -0.00031111       0.00000345
Cl       4.59546661       1.27566679       4.73634939      -0.00022041       0.00031087       0.00038339
Cl       2.73453247       3.90742560       7.95958202       0.00022165      -0.00031004      -0.00038268
Cl       2.73453205       3.90742565       4.73634922       0.00021799      -0.00030878       0.00038150
Cl       4.59546631       1.27566712       7.95958203      -0.00022388       0.00031375      -0.00038168
