9
Lattice="5.4975076830479335 2.174148148952207e-08 3.1739874823237435 1.8325025458449447 5.183100964379757 3.1739875441044187 -2.0901444511769606e-08 6.088601651221182e-08 6.347975000849855" Properties=species:S:1:pos:R:3:forces:R:3 energy=-33.63852310180664 free_energy=-33.63852310180664 stress="-2.6578500182949938e-05 2.7405372193811672e-08 -6.977054933798854e-09 2.7405372193811672e-08 -2.6527881345828064e-05 -4.861573810188702e-09 -6.977054933798854e-09 -4.861573810188702e-09 -2.661708276718855e-05" pbc="T T T"
V        1.83250256       1.29577455       3.17398707      -0.00000025      -0.00000454      -0.00000223
V        5.49750706       3.88732519       9.52196132      -0.00000313      -0.00000346      -0.00000619
N       -0.00000007      -0.00000010       0.00000193       0.00000142       0.00000069       0.00000864
Cl       1.80406833       1.27566953       6.34797500       0.00038950       0.00027545      -0.00000043
Cl       5.52594205       3.90743186       6.34797541      -0.00038961      -0.00027390       0.00000252
Cl       4.59547372       1.27566887       4.73635621      -0.00019553       0.00027670       0.00034039
Cl       2.73453704       3.90743210       7.95959338       0.00019879      -0.00027710      -0.00034167
Cl       2.73453679       3.90743250       4.73635606       0.00019607      -0.00027456       0.00033914
Cl       4.59547337       1.27566969       7.95959373      -0.00019742       0.00028080      -0.00034019
