9
Lattice="5.4861580100514455 1.8409395803338113 -0.11689343400131319 -0.27929626714372957 4.347421968184103 0.7578164312448075 0.6739017959372126 0.8294923449836512 5.1821428441271005" Properties=species:S:1:pos:R:3:forces:R:3 energy=-643082688.0 free_energy=-643082688.0 stress="327502.65625 48029.25 70460.15625 48029.25 653802.9375 35725.0703125 70460.15625 35725.0703125 -681231.6875" pbc="T T T"
V       -0.47413209       4.10983829      -1.29717764 8657650.00000000 12578118.00000000 -46376800.00000000
V        4.85254199       7.18513062       0.61045328 7390627.50000000 56357788.00000000 -7043434.00000000
N       -1.05115507       1.67740512      -5.17064236 594522112.00000000 2592047104.00000000 -919778688.00000000
F       -0.32669595       5.70396738       0.10839052 -12684698.00000000 32203290.00000000 23710666.00000000
F        4.43174760       5.98964038       0.88444283 17012242.00000000 -17408198.00000000 -20812738.00000000
F        4.43064233       5.24330461      -4.24172832 -16665894.00000000 -18982420.00000000 -54691704.00000000
F       -0.66946452       6.90300378       0.79489112 1420093696.00000000 39419465728.00000000 -371377920.00000000
F       -1.34255041       6.07347242      -4.38941806 -2063613568.00000000 -42095898624.00000000 1370803968.00000000
F        4.48268983       1.72432091      -0.52302216 45287976.00000000 19633060.00000000 25566254.00000000
