9
Lattice="3.6216090724775736 0.7847537900591656 2.2531265753149694 0.647621462763135 4.907479909553367 1.8828290536890326 1.0107184731395844 0.9789969663818281 3.932365892208487" Properties=species:S:1:pos:R:3:forces:R:3 energy=-407351616.0 free_energy=-407351616.0 stress="8437050.0 -3815919.0 -3578569.75 -3815919.0 10260709.0 -3708559.5 -3578569.75 -3708559.5 9387552.0" pbc="T T T"
V        2.56659019      -0.00629326       3.55489414 -216142048.00000000 -197757536.00000000 -11036976.00000000
V        3.61706393       4.38667878       6.11507324 6658928.50000000 -80585424.00000000 -72763024.00000000
N        1.13198710      -2.06409807       0.52191820 -188089872.00000000 164128048.00000000 -66238828.00000000
F        1.15163720      -0.22702981       3.86191058 292080352.00000000 1472587264.00000000 -1869362304.00000000
F        4.89596147       3.64896820       4.09321485 -116892824.00000000 81005800.00000000 14863040.00000000
F        1.09510719      -0.06709478       3.79546068 576555712.00000000 -2138740608.00000000 265952064.00000000
F        1.69048506       3.89238762       6.40044660 130875024.00000000 112769736.00000000 -171775776.00000000
F        2.24251615       3.85513487       1.59577490 33828856.00000000 87621608.00000000 58722568.00000000
F        4.80822551       0.52879205       5.96732503 -518873984.00000000 498970816.00000000 1851639040.00000000
