9
Lattice="4.429723777783241 1.368907339799154e-07 2.5575024523400116 1.4765746548376368 4.176384184626688 2.5575025680732435 -1.1663484552018794e-07 5.9270375729291124e-08 5.115005106697493" Properties=species:S:1:pos:R:3:forces:R:3 energy=-46.06124496459961 free_energy=-46.06124496459961 stress="-0.0005207714857533574 -5.18998666265702e-09 1.192159686524974e-07 -5.18998666265702e-09 -0.0005207426147535443 5.5327230796820004e-08 1.192159686524974e-07 5.5327230796820004e-08 -0.000520691683050245" pbc="T T T"
V        1.47657498       1.04409519       2.55750284       0.00000091      -0.00000580      -0.00000159
V        4.42972371       3.13228729       7.67250533       0.00000104      -0.00001157      -0.00001572
Ni       0.00000000       0.00000012       0.00000006      -0.00000025       0.00000428       0.00000666
F        1.51047474       1.06806781       5.11500511       0.00580070       0.00410472      -0.00000034
F        4.39582330       3.10831713       5.11500577      -0.00580703      -0.00409794       0.00000717
F        3.67448611       1.06806767       3.86561243      -0.00290174       0.00410132       0.00502345
F        2.23181233       3.10831705       6.36439805       0.00290770      -0.00410274      -0.00502977
F        2.23181182       3.10831688       3.86561285       0.00289921      -0.00409845       0.00502913
F        3.67448651       1.06806847       6.36439809      -0.00290034       0.00410613      -0.00501903
