9
Lattice="6.435243452567238 -2.8578024906641403e-08 3.7153895529125633 2.1450811119071984 6.067205733920229 3.715389573705739 -1.1564721179990978e-08 1.728881718463367e-08 7.4307791258558265" Properties=species:S:1:pos:R:3:forces:R:3 energy=-30.613719940185547 free_energy=-30.613719940185547 stress="0.0002917817037086934 -1.5593928370805088e-09 -3.860610442441015e-10 -1.5593928370805088e-09 0.0002917894162237644 -2.1116239867779996e-09 -3.860610442441015e-10 -2.1116239867779996e-09 0.0002917863894253969" pbc="T T T"
V        2.14508114       1.51680110       3.71538964      -0.00000004       0.00000020       0.00000019
V        6.43524351       4.55040439      11.14616852       0.00000007      -0.00000027       0.00000011
Ni      -0.00000011      -0.00000012       0.00000007       0.00000054       0.00000036       0.00000000
I        2.16400977       1.53018593       7.43077901      -0.00035214      -0.00024879      -0.00000006
I        6.41631459       4.53701985       7.43077907       0.00035259       0.00024970       0.00000004
I        5.35323844       1.53018618       5.58947725       0.00017633      -0.00024971      -0.00030512
I        3.22708617       4.53701992       9.27208116      -0.00017624       0.00024892       0.00030474
I        3.22708618       4.53701951       5.58947718      -0.00017674       0.00024916      -0.00030482
I        5.35323854       1.53018613       9.27208115       0.00017580      -0.00024951       0.00030503
