9
Lattice="5.5709000738550785 8.357740169704086e-09 3.2163607290428913 1.8569666708168469 5.252295114629216 3.2163607781429784 -8.174568703628406e-08 2.3321324769829602e-09 6.432721599673478" Properties=species:S:1:pos:R:3:forces:R:3 energy=-36.68817138671875 free_energy=-36.68817138671875 stress="0.00016234150098171085 1.1037236902211589e-08 1.91039606356469e-09 1.1037236902211589e-08 0.0001623717398615554 -3.886681643194834e-09 1.91039606356469e-09 -3.886681643194834e-09 0.00016235078510362655" pbc="T T T"
V        1.85696688       1.31307373       3.21636057       0.00000180      -0.00000026      -0.00000088
V        5.57089968       3.93922147       9.64908127      -0.00000246       0.00000040      -0.00000686
Ni       0.00000007      -0.00000003       0.00000011       0.00000191       0.00000232      -0.00000218
Cl       1.85840894       1.31409391       6.43272181       0.00109878       0.00077650      -0.00000098
Cl       5.56945786       3.93820140       6.43272199      -0.00110281      -0.00077935       0.00000121
Cl       4.64169544       1.31409329       4.82579048      -0.00055112       0.00077787       0.00095527
Cl       2.78617134       3.93820131       8.03965297       0.00055136      -0.00077520      -0.00095172
Cl       2.78617125       3.93820148       4.82579016       0.00055200      -0.00077899       0.00095491
Cl       4.64169518       1.31409394       8.03965316      -0.00054950       0.00077644      -0.00094873
