9
Lattice="5.924730592628304 -1.6154216079428334e-08 3.4206448074966223 1.9749101536883313 5.585889625997799 3.4206448570750085 -6.661649735307334e-08 1.3615903319220044e-08 6.841289730376417" Properties=species:S:1:pos:R:3:forces:R:3 energy=-34.123558044433594 free_energy=-34.123558044433594 stress="0.00010966409172397107 3.596799746929946e-09 -1.6953594084156975e-09 3.596799746929946e-09 0.00010965965338982642 1.7165309174060894e-08 -1.6953594084156975e-09 1.7165309174060894e-08 0.0001096503619919531" pbc="T T T"
V        1.97491036       1.39647221       3.42064469      -0.00000061      -0.00000129      -0.00000142
V        5.92473041       4.18941738      10.26193444      -0.00000023       0.00000033      -0.00000066
Ni       0.00000012      -0.00000015       0.00000011      -0.00000216       0.00000060       0.00000243
Br       1.96577699       1.39001422       6.84128994       0.00166216       0.00117509       0.00000030
Br       5.93386380       4.19587544       6.84128967      -0.00166050      -0.00117429       0.00000048
Br       4.94184192       1.39001417       5.12305767      -0.00083020       0.00117406       0.00143874
Br       2.95779858       4.19587551       8.55952169       0.00083186      -0.00117643      -0.00143990
Br       2.95779866       4.19587559       5.12305778       0.00083046      -0.00117478       0.00143901
Br       4.94184186       1.39001414       8.55952160      -0.00083064       0.00117627      -0.00143887
