9
Lattice="4.020066996343504 -4.720996894491805e-08 2.320986678450069 1.340022312633195 3.790155413984386 2.3209866350991257 1.2886605535859704e-08 -4.398163957619765e-08 4.6419733345798795" Properties=species:S:1:pos:R:3:forces:R:3 energy=-53.357643127441406 free_energy=-53.357643127441406 stress="0.0003710205783136189 9.155792213277891e-08 1.890042078400711e-08 9.155792213277891e-08 0.000370222405763343 1.1900772278750082e-07 1.890042078400711e-08 1.1900772278750082e-07 0.00037055619759485126" pbc="T T T"
V        1.34002355       0.94753710       2.32098643       0.00003748      -0.00004678       0.00000153
V        4.02006818       2.84261640       6.96296035       0.00003395      -0.00001123       0.00000498
N       -0.00000010       0.00000001       0.00000030      -0.00000848       0.00000541       0.00000227
O        1.31399295       0.92913383       4.64197344       0.00288254       0.00205535       0.00000457
O        4.04609557       2.86102241       4.64197319      -0.00290126      -0.00202769      -0.00000197
O        3.36306995       0.92913348       3.45893797      -0.00145665       0.00204349       0.00249612
O        1.99701874       2.86102213       5.82500814       0.00143653      -0.00203606      -0.00250971
O        1.99701862       2.86102231       3.45893814       0.00143236      -0.00203431       0.00250453
O        3.36306993       0.92913361       5.82500840      -0.00145680       0.00205147      -0.00250220
