9
Lattice="5.7879718743999895 9.587499249724214e-09 3.3416871859592194 1.929323953186405 5.45695216796425 3.3416872101838573 -1.2598673357370527e-08 2.0760398352406843e-08 6.683374393739982" Properties=species:S:1:pos:R:3:forces:R:3 energy=-40.275569915771484 free_energy=-40.275569915771484 stress="4.1796607547439635e-05 -1.1882437256360845e-08 1.0903253411242986e-08 -1.1882437256360845e-08 4.178031667834148e-05 2.2916399444739e-08 1.0903253411242986e-08 2.2916399444739e-08 4.1797859012149274e-05" pbc="T T T"
V        1.92932371       1.36423753       3.34168748      -0.00000072      -0.00000143      -0.00000146
V        5.78797165       4.09271423      10.02506236      -0.00000118       0.00000060       0.00000221
Os      -0.00000009       0.00000021      -0.00000016       0.00000125       0.00000082      -0.00000449
Cl       1.92432797       1.36070486       6.68337417       0.00419624       0.00296484      -0.00000076
Cl       5.79296800       4.09624724       6.68337421      -0.00419651      -0.00296530      -0.00000047
Cl       4.82580843       1.36070559       5.00820391      -0.00209649       0.00296688       0.00363313
Cl       2.89148754       4.09624689       8.35854455       0.00209498      -0.00296360      -0.00363065
Cl       2.89148789       4.09624702       5.00820390       0.00209900      -0.00296721       0.00363402
Cl       4.82580808       1.36070522       8.35854474      -0.00209653       0.00296433      -0.00363155
