9
Lattice="6.095413972257368 7.176521289873611e-08 3.519189002507063 2.031804688006647 5.746811487415844 3.5191890667200156 -2.398505121649028e-08 6.168450562720035e-08 7.0383780465574315" Properties=species:S:1:pos:R:3:forces:R:3 energy=-37.82893753051758 free_energy=-37.82893753051758 stress="0.00017686214414425194 1.148162631636751e-08 -6.920314987723941e-09 1.148162631636751e-08 0.00017684361955616623 -3.2568572283508956e-09 -6.920314987723941e-09 -3.2568572283508956e-09 0.00017685708007775247" pbc="T T T"
V        2.03180467       1.43670266       3.51918930       0.00000004      -0.00000098       0.00000225
V        6.09541322       4.31010874      10.55756762      -0.00000258      -0.00000009       0.00000142
Os       0.00000006       0.00000017      -0.00000002      -0.00000087      -0.00000066      -0.00000333
Br       2.02251599       1.43013456       7.03837795       0.00339022       0.00239655      -0.00000012
Br       6.10470300       4.31667697       7.03837803      -0.00339007      -0.00239611      -0.00000089
Br       5.08415605       1.43013479       5.27073870      -0.00169443       0.00239884       0.00293589
Br       3.04306254       4.31667705       8.80601713       0.00169480      -0.00239667      -0.00293557
Br       3.04306268       4.31667681       5.27073871       0.00169698      -0.00239788       0.00293592
Br       5.08415632       1.43013467       8.80601705      -0.00169410       0.00239708      -0.00293548
