9
Lattice="4.817841165427682 4.7336444386857847e-07 2.7815830604701817 1.6059472646201216 4.542307215810174 2.78158347064486 1.463651414809768e-07 6.058551879415798e-07 5.563165867428272" Properties=species:S:1:pos:R:3:forces:R:3 energy=-47.874114990234375 free_energy=-47.874114990234375 stress="-0.00037432886892929673 -4.4448702851696e-07 -1.1677147426780721e-07 -4.4448702851696e-07 -0.0003757664526347071 -1.1404543442949944e-07 -1.1677147426780721e-07 -1.1404543442949944e-07 -0.0003754980571102351" pbc="T T T"
V        1.60593509       1.13557941       2.78157919      -0.00006924       0.00001262      -0.00002462
V        4.81784485       3.40672510       8.34474878       0.00001623      -0.00003742      -0.00000465
Os       0.00000093       0.00000030       0.00000075       0.00000866      -0.00000085      -0.00000253
F        1.63987345       1.15957293       5.56316794      -0.00120205      -0.00081393       0.00001322
F        4.78391587       3.38273545       5.56316629       0.00120497       0.00081113      -0.00000020
F        3.99790970       1.15957070       4.20175966       0.00063306      -0.00082549      -0.00101209
F        2.42588284       3.38273880       6.92457406      -0.00060982       0.00083634       0.00102627
F        2.42588326       3.38274050       4.20176066      -0.00060540       0.00084782      -0.00101483
F        3.99790820       1.15956998       6.92457299       0.00062314      -0.00082982       0.00101948
