9
Lattice="6.557772291412957 2.857564937885755e-08 3.786131598867554 2.185924132769115 6.18272701246831 3.7861315838158 8.961477341812542e-09 -1.2097773281904755e-08 7.572263182213339" Properties=species:S:1:pos:R:3:forces:R:3 energy=-34.698734283447266 free_energy=-34.698734283447266 stress="9.996478183893487e-05 -1.8497656739668855e-09 5.3441664427111846e-09 -1.8497656739668855e-09 9.996962762670591e-05 -4.970006184379372e-09 5.3441664427111846e-09 -4.970006184379372e-09 9.997923916671425e-05" pbc="T T T"
V        2.18592410       1.54568181       3.78613158      -0.00000037       0.00000007       0.00000029
V        6.55777226       4.63704532      11.35839498       0.00000002       0.00000060       0.00000031
Os       0.00000010       0.00000007      -0.00000027      -0.00000055       0.00000078       0.00000099
I        2.19187884       1.54989258       7.57226325       0.00236638       0.00167396       0.00000004
I        6.55181753       4.63283430       7.57226312      -0.00236578      -0.00167417      -0.00000030
I        5.46183271       1.54989235       5.68435431      -0.00118313       0.00167274       0.00204900
I        3.28186373       4.63283474       9.46017208       0.00118337      -0.00167363      -0.00204983
I        3.28186370       4.63283459       5.68435434       0.00118284      -0.00167339       0.00204874
I        5.46183274       1.54989238       9.46017208      -0.00118284       0.00167305      -0.00204915
