9
Lattice="5.908948653212608 -3.813551523267197e-08 3.411532985570755 1.9696494986823243 5.571010091291707 3.411533014035323 -8.579963217491642e-08 -2.580765275502091e-08 6.823066119750804" Properties=species:S:1:pos:R:3:forces:R:3 energy=-34.20048522949219 free_energy=-34.20048522949219 stress="4.266164978616871e-05 -2.0383687626690516e-08 -8.49695869220568e-09 -2.0383687626690516e-08 4.266465475666337e-05 1.574864505471396e-08 -8.49695869220568e-09 1.574864505471396e-08 4.262357469997369e-05" pbc="T T T"
V        1.96964921       1.39275207       3.41153316      -0.00000220      -0.00000210       0.00000102
V        5.90894902       4.17825737      10.23459896       0.00000209      -0.00000111      -0.00000101
Pb       0.00000001      -0.00000002      -0.00000025      -0.00000269       0.00000022       0.00000221
Cl       2.09277427       1.47981529       6.82306611       0.00403707       0.00285517       0.00000092
Cl       5.78582351       4.09119505       6.82306603      -0.00403523      -0.00285181       0.00000115
Cl       4.86256141       1.47981496       5.22392874      -0.00201678       0.00285140       0.00349225
Cl       3.01603670       4.09119532       8.42220339       0.00201736      -0.00285205      -0.00349477
Cl       3.01603641       4.09119511       5.22392904       0.00201694      -0.00285425       0.00349454
Cl       4.86256166       1.47981493       8.42220330      -0.00201684       0.00285469      -0.00349615
