9
Lattice="6.010815326742199 1.3510809229879595e-08 3.470345964501106 2.003605053098612 5.667051820796821 3.470346083239388 2.6467105397281268e-08 1.6413911862448763e-07 6.940691883159867" Properties=species:S:1:pos:R:3:forces:R:3 energy=-32.558101654052734 free_energy=-32.558101654052734 stress="0.0002927469613496214 7.990170303173727e-09 5.605949482401229e-09 7.990170303173727e-09 0.0002927579917013645 -5.553160598026352e-09 5.605949482401229e-09 -5.553160598026352e-09 0.0002927497844211757" pbc="T T T"
V        2.00360595       1.41676340       3.47034608       0.00000149       0.00000076       0.00000028
V        6.01081509       4.25028921      10.41103774       0.00000047       0.00000121      -0.00000143
P        0.00000018       0.00000011      -0.00000003       0.00000027       0.00000053       0.00000126
Br       2.05596907       1.45379010       6.94069215      -0.00584352      -0.00413325      -0.00000050
Br       5.95845056       4.21326149       6.94069197       0.00584520       0.00413313       0.00000007
Br       4.98283054       1.45378991       5.25086835       0.00292080      -0.00413329      -0.00506194
Br       3.03159004       4.21326177       8.63051572      -0.00292325       0.00413238       0.00506287
Br       3.03158975       4.21326170       5.25086807      -0.00292272       0.00413123      -0.00506267
Br       4.98283042       1.45379030       8.63051567       0.00292114      -0.00413270       0.00506201
