9
Lattice="6.851620840673867 -3.4871088336536576e-08 3.9557851351149496 2.283873602311769 6.459770050620693 3.955785097649624 1.9614277487296756e-08 -3.201605626025533e-08 7.9115702362569476" Properties=species:S:1:pos:R:3:forces:R:3 energy=-28.10655403137207 free_energy=-28.10655403137207 stress="8.706741209607571e-05 2.689801270605585e-09 -3.2081113321424937e-09 2.689801270605585e-09 8.706388325663283e-05 1.2720943187716216e-09 -3.2081113321424937e-09 1.2720943187716216e-09 8.708252426004037e-05" pbc="T T T"
V        2.28387374       1.61494263       3.95578522      -0.00000015       0.00000091       0.00000058
V        6.85162059       4.84482752      11.86735511       0.00000025       0.00000020       0.00000002
Pb       0.00000007       0.00000014       0.00000012       0.00000040      -0.00000124       0.00000043
I        2.46885583       1.74574447       7.91157010       0.00215766       0.00152596       0.00000063
I        6.66663856       4.71402527       7.91157024      -0.00215601      -0.00152565      -0.00000063
I        5.61719287       1.74574476       6.09387687      -0.00107844       0.00152488       0.00186843
I        3.51830165       4.71402531       9.72926359       0.00107770      -0.00152555      -0.00186807
I        3.51830144       4.71402525       6.09387692       0.00107747      -0.00152583       0.00186763
I        5.61719313       1.74574453       9.72926361      -0.00107891       0.00152631      -0.00186899
