9
Lattice="5.134860006638213 2.7405215788077216e-07 2.964612688112328 1.7116200478675336 4.841193195916746 2.964613056561316 -8.663061509656457e-08 3.8999878437646205e-07 5.9292255262733224" Properties=species:S:1:pos:R:3:forces:R:3 energy=-44.153446197509766 free_energy=-44.153446197509766 stress="8.62012748257257e-05 8.774325266358574e-08 -8.945284690753397e-08 8.774325266358574e-08 8.622824680060148e-05 -3.6954161952706954e-09 -8.945284690753397e-08 -3.6954161952706954e-09 8.631742093712091e-05" pbc="T T T"
V        1.71162101       1.21030348       2.96460997       0.00000486       0.00002128      -0.00001376
V        5.13485751       3.63089788       8.89383855      -0.00000945       0.00001165       0.00000003
Pb       0.00000016       0.00000022      -0.00000042       0.00000038      -0.00000325       0.00001011
F        1.75598845       1.24167330       5.92922551       0.00262171       0.00185236       0.00000323
F        5.09049339       3.59951808       5.92922648      -0.00261018      -0.00186613       0.00000192
F        4.25686440       1.24167093       4.48534383      -0.00131342       0.00185049       0.00227337
F        2.58961557       3.59951971       7.37310926       0.00131477      -0.00186519      -0.00226259
F        2.58961712       3.59952209       4.48534382       0.00131814      -0.00185312       0.00226453
F        4.25686188       1.24167047       7.37310769      -0.00132686       0.00185187      -0.00227670
