9
Lattice="6.010756189159241 1.5871682826475949e-07 3.470311827065762 2.003585485836853 5.6669954966001574 3.4703119313165467 3.5381941973468606e-08 1.526994275797313e-07 6.940623592848191" Properties=species:S:1:pos:R:3:forces:R:3 energy=-32.55812072753906 free_energy=-32.55812072753906 stress="0.00023313950805459172 1.9867067990730902e-09 -9.907329401315224e-10 1.9867067990730902e-09 0.00023315662110690027 8.56314241737266e-10 -9.907329401315224e-10 8.56314241737266e-10 0.00023314041027333587" pbc="T T T"
V        2.00358480       1.41674892       3.47031169      -0.00000178       0.00000086      -0.00000058
V        6.01075617       4.25024714      10.41093564      -0.00000086      -0.00000038      -0.00000020
P        0.00000017      -0.00000010      -0.00000012      -0.00000064       0.00000116      -0.00000027
Br       2.05540266       1.45338913       6.94062359      -0.00044035      -0.00031411       0.00000053
Br       5.95893887       4.21360703       6.94062345       0.00044062       0.00031230       0.00000044
Br       4.98305571       1.45338937       5.25034254       0.00022108      -0.00031132      -0.00038045
Br       3.03128666       4.21360637       8.63090530      -0.00021960       0.00031100       0.00038124
Br       3.03128606       4.21360641       5.25034236      -0.00021998       0.00031131      -0.00038032
Br       4.98305572       1.45338898       8.63090493       0.00022149      -0.00031083       0.00037959
