9
Lattice="6.221122554953362 -8.997358653607444e-08 3.5917666164683144 2.0737074616312086 5.865330360909559 3.5917665677261112 -7.602918418412865e-08 -1.1345752810645556e-07 7.183533364623042" Properties=species:S:1:pos:R:3:forces:R:3 energy=-31.418312072753906 free_energy=-31.418312072753906 stress="6.441043660743162e-05 9.554936397648817e-09 -3.3045584046931253e-09 9.554936397648817e-09 6.439991557272151e-05 2.07920569650355e-09 -3.3045584046931253e-09 2.07920569650355e-09 6.438844866352156e-05" pbc="T T T"
V        2.07370719       1.46633276       3.59176608      -0.00000172       0.00000108      -0.00000186
V        6.22112273       4.39899797      10.77529948       0.00000092       0.00000064      -0.00000254
Pb      -0.00000015      -0.00000012      -0.00000010      -0.00000088       0.00000118      -0.00000172
Br       2.21078992       1.56326411       7.18353353       0.00371072       0.00262358       0.00000024
Br       6.08404000       4.30206608       7.18353362      -0.00371141      -0.00262393       0.00000080
Br       5.11572788       1.56326414       5.50636709      -0.00185523       0.00262419       0.00321423
Br       3.17910228       4.30206544       8.86069976       0.00185517      -0.00262426      -0.00321250
Br       3.17910230       4.30206593       5.50636680       0.00185689      -0.00262673       0.00321601
Br       5.11572769       1.56326437       8.86069980      -0.00185448       0.00262424      -0.00321273
