9
Lattice="5.757383214138725 -3.168299102382531e-08 3.3240268936353257 1.9191277940879743 5.428112718987884 3.3240267448300997 1.5391684329285158e-07 -7.34128067265773e-08 6.648053520678829" Properties=species:S:1:pos:R:3:forces:R:3 energy=-35.05043411254883 free_energy=-35.05043411254883 stress="0.0002481373958289623 -2.4550748989327076e-08 4.1548375406819105e-08 -2.4550748989327076e-08 0.00024807194131426513 5.0904533921425354e-09 4.1548375406819105e-08 5.0904533921425354e-09 0.00024805727298371494" pbc="T T T"
V        1.91912688       1.35702840       3.32402792      -0.00000419      -0.00000145       0.00000651
V        5.75738060       4.07108358       9.97208281      -0.00001189      -0.00000458       0.00001144
P       -0.00000015      -0.00000024       0.00000036       0.00000455       0.00000768      -0.00000704
Cl       1.91736752       1.35578264       6.64805300      -0.00650343      -0.00460079      -0.00000172
Cl       5.75914453       4.07232995       6.64805267       0.00650695       0.00459686      -0.00000334
Cl       4.79870099       1.35578364       4.98451430       0.00325202      -0.00459620      -0.00563411
Cl       2.87781182       4.07232978       8.31159093      -0.00325063       0.00459871       0.00563338
Cl       2.87781243       4.07232937       4.98451486      -0.00324763       0.00459833      -0.00563748
Cl       4.79870011       1.35578332       8.31159164       0.00325438      -0.00459853       0.00563240
