9
Lattice="5.757155588796476 1.9008087572553151e-07 3.323895557439743 1.91905203387575 5.427898496407913 3.323895571757566 1.370697901356072e-07 1.144586750968383e-07 6.647790877467705" Properties=species:S:1:pos:R:3:forces:R:3 energy=-35.050453186035156 free_energy=-35.050453186035156 stress="9.914879774441943e-05 3.687293315124407e-08 -2.362874518269109e-08 3.687293315124407e-08 9.915442205965519e-05 -2.2382714348623267e-08 -2.362874518269109e-08 -2.2382714348623267e-08 9.905572369461879e-05" pbc="T T T"
V        1.91905270       1.35697580       3.32389492       0.00000113       0.00000355      -0.00000051
V        5.75715424       4.07092312       9.97168628      -0.00000608      -0.00000192       0.00000103
P        0.00000007      -0.00000004       0.00000009       0.00000169       0.00000042       0.00000291
Cl       1.91679641       1.35537944       6.64779091      -0.00124803      -0.00088260      -0.00000042
Cl       5.75941143       4.07251917       6.64779117       0.00124829       0.00088294      -0.00000035
Cl       4.79875787       1.35538062       4.98388965       0.00062527      -0.00087963      -0.00108317
Cl       2.87745077       4.07251841       8.31169343      -0.00062224       0.00087859       0.00108123
Cl       2.87745005       4.07251911       4.98388967      -0.00062256       0.00087941      -0.00107929
Cl       4.79875750       1.35537958       8.31169199       0.00062263      -0.00088081       0.00107858
