9
Lattice="4.471217406955591 -3.313830146666111e-08 2.58145844502954 1.4904057937331427 4.215504029037293 2.581458405785281 7.883378853405225e-08 7.679699057526914e-09 5.1629167535149545" Properties=species:S:1:pos:R:3:forces:R:3 energy=-44.73239517211914 free_energy=-44.73239517211914 stress="0.00013502546062227339 8.25420300998303e-08 -1.6528376534097333e-07 8.25420300998303e-08 0.00013496646715793759 -2.0530195854462363e-07 -1.6528376534097333e-07 -2.0530195854462363e-07 0.00013533301535062492" pbc="T T T"
V        1.49040537       1.05387626       2.58145709      -0.00000160       0.00000107      -0.00001142
V        4.47121675       3.16162738       7.74437613      -0.00001142      -0.00000686       0.00000750
Pd       0.00000009       0.00000000       0.00000003      -0.00000240      -0.00000399      -0.00000309
F        1.60313233       1.13358540       5.16291723      -0.00317302      -0.00224534       0.00000262
F        4.35849115       3.08191844       5.16291695       0.00318184       0.00224862      -0.00000046
F        3.66965212       1.13358602       3.96981127       0.00159401      -0.00223722      -0.00274876
F        2.29197157       3.08191805       6.35602220      -0.00159144       0.00224245       0.00275320
F        2.29197276       3.08191865       3.96981110      -0.00158165       0.00224806      -0.00275451
F        3.66965115       1.13358573       6.35602231       0.00158587      -0.00224632       0.00275454
