9
Lattice="6.522540635813561 -1.5902764761491862e-08 3.765790590342245 2.1741802174905174 6.149510293306824 3.7657905547556765 4.104364429036565e-10 -4.329429553154723e-08 7.531581179973593" Properties=species:S:1:pos:R:3:forces:R:3 energy=-30.41523551940918 free_energy=-30.41523551940918 stress="0.00018517582793720067 1.623830314656516e-08 4.986714596810771e-09 1.623830314656516e-08 0.00018515925330575556 3.316584340495865e-09 4.986714596810771e-09 3.316584340495865e-09 0.00018516165437176824" pbc="T T T"
V        2.17418025       1.53737738       3.76579073       0.00000051      -0.00000050       0.00000040
V        6.52254070       4.61213260      11.29737190      -0.00000072      -0.00000048      -0.00000002
Pd      -0.00000005       0.00000001      -0.00000018      -0.00000014      -0.00000096       0.00000092
I        2.20949223       1.56234700       7.53158114       0.00224418       0.00158627       0.00000069
I        6.48722859       4.58716337       7.53158105      -0.00224281      -0.00158529      -0.00000010
I        5.41779453       1.56234687       5.67926683      -0.00112242       0.00158751       0.00194398
I        3.27892633       4.58716339       9.38389543       0.00112209      -0.00158779      -0.00194439
I        3.27892622       4.58716333       5.67926693       0.00112218      -0.00158685       0.00194376
I        5.41779462       1.56234693       9.38389545      -0.00112292       0.00158818      -0.00194530
