9
Lattice="6.033014546231457 -5.367191126636789e-08 3.4831625288159795 2.011004846712985 5.687980470596727 3.483162444687659 5.6538182954542166e-08 -6.305724727425618e-08 6.966324959704982" Properties=species:S:1:pos:R:3:forces:R:3 energy=-33.53022766113281 free_energy=-33.53022766113281 stress="6.746377039235085e-05 3.1036277992058103e-09 -1.2338954302748562e-09 3.1036277992058103e-09 6.747192674083635e-05 5.785723899975892e-09 -1.2338954302748562e-09 5.785723899975892e-09 6.745696737198159e-05" pbc="T T T"
V        2.01100483       1.42199502       3.48316237       0.00000076      -0.00000038      -0.00000078
V        6.03301452       4.26598528      10.44948712      -0.00000127       0.00000003      -0.00000264
Pd       0.00000013       0.00000004       0.00000029      -0.00000374      -0.00000006      -0.00000384
Br       2.02374196       1.43100142       6.96632506       0.00340167       0.00240555       0.00000011
Br       6.02027748       4.25697887       6.96632510      -0.00339933      -0.00240408       0.00000128
Br       5.02114357       1.43100158       5.23577438      -0.00170137       0.00240524       0.00294562
Br       3.02287614       4.25697888       8.69687550       0.00170075      -0.00240426      -0.00294388
Br       3.02287567       4.25697888       5.23577430       0.00170136      -0.00240638       0.00294714
Br       5.02114350       1.43100149       8.69687558      -0.00169880       0.00240426      -0.00294298
