9
Lattice="5.681329037323418 1.0893928305117255e-08 3.2801168584340283 1.8937763513701713 5.356408440830473 3.28011686653168 -3.292742858902441e-08 -1.3365636973654913e-08 6.560233773900048" Properties=species:S:1:pos:R:3:forces:R:3 energy=-35.89348220825195 free_energy=-35.89348220825195 stress="6.939666491234675e-05 2.918851826905211e-08 -7.523136558162946e-10 2.918851826905211e-08 6.935044075362384e-05 1.6279686931852666e-08 -7.523136558162946e-10 1.6279686931852666e-08 6.933973054401577e-05" pbc="T T T"
V        1.89377636       1.33910242       3.28011720       0.00000221       0.00000208       0.00000081
V        5.68132916       4.01730563       9.84034974      -0.00000032      -0.00000411      -0.00000270
Pd      -0.00000009       0.00000012      -0.00000014      -0.00000269      -0.00000007       0.00000519
Cl       1.91099593       1.35127858       6.56023357       0.00287848       0.00203843      -0.00000222
Cl       5.66410914       4.00513013       6.56023412      -0.00287824      -0.00203433       0.00000170
Cl       4.72583098       1.35127832       4.93508794      -0.00143922       0.00203531       0.00249332
Cl       2.84927438       4.00512993       8.18537976       0.00144016      -0.00203951      -0.00249634
Cl       2.84927447       4.00513022       4.93508787       0.00144046      -0.00203718       0.00249550
Cl       4.72583111       1.35127850       8.18537991      -0.00144091       0.00203932      -0.00249540
