9
Lattice="4.686594219147916 -9.94180455148532e-07 2.7058064939487014 1.562197283872271 4.418561665871097 2.7058062373536838 7.322944695895544e-07 2.035468263464468e-07 5.411611719525852" Properties=species:S:1:pos:R:3:forces:R:3 energy=-46.62177276611328 free_energy=-46.62177276611328 stress="0.0004989191656932235 2.8054179779246624e-07 -4.701273326190858e-07 2.8054179779246624e-07 0.0004994932096451521 -4.2756289531098446e-07 -4.701273326190858e-07 -4.2756289531098446e-07 0.0004997205105610192" pbc="T T T"
V        1.56221321       1.10463446       2.70578437       0.00006713      -0.00003729      -0.00011076
V        4.68658791       3.31391901       8.11742621      -0.00002364      -0.00001852       0.00001434
P       -0.00000138      -0.00000081      -0.00000062       0.00001016       0.00001925       0.00001693
F        1.54996872       1.09598861       5.41162456       0.00239757       0.00167805       0.00004762
F        4.69881529       3.32257482       5.41160964      -0.00241125      -0.00165780      -0.00001681
F        3.91161489       1.09599352       4.04811493      -0.00119536       0.00171140       0.00207296
F        2.33718190       3.32256206       6.77510717       0.00117943      -0.00170757      -0.00205421
F        2.33718865       3.32257517       4.04811763       0.00121577      -0.00167495       0.00206602
F        3.91160076       1.09599636       6.77511358      -0.00123997       0.00168757      -0.00203565
