9
Lattice="4.685899234788133 2.9595867625127627e-07 2.7054053491142707 1.5619670002192887 4.417907756804785 2.705404812887329 7.175904657923312e-07 -1.4932800261465354e-07 5.41080945532521" Properties=species:S:1:pos:R:3:forces:R:3 energy=-46.621795654296875 free_energy=-46.621795654296875 stress="7.941749936435372e-05 1.4245968316117796e-07 -2.5652257207298135e-08 1.4245968316117796e-07 7.950208964757621e-05 -2.5323780405983598e-08 -2.5652257207298135e-08 -2.5323780405983598e-08 7.983232353581116e-05" pbc="T T T"
V        1.56199769       1.10448069       2.70538453       0.00016954       0.00001988      -0.00011165
V        4.68592017       3.31343303       8.11619581       0.00012059       0.00001482      -0.00010606
P       -0.00000445      -0.00000044       0.00000379      -0.00002608      -0.00000405       0.00001724
F        1.55001049       1.09602656       5.41081794       0.00230360       0.00166145       0.00005497
F        4.69784787       3.32188696       5.41081475      -0.00235438      -0.00162391       0.00004071
F        3.91088127       1.09602174       4.04775648      -0.00121820       0.00161697       0.00201657
F        2.33697027       3.32187730       6.77387081       0.00113499      -0.00168572      -0.00199023
F        2.33696344       3.32188154       4.04776177       0.00110315      -0.00164773       0.00205174
F        3.91088096       1.09602407       6.77387208      -0.00123312       0.00164779      -0.00197327
