9
Lattice="6.5834576654329355 1.577995788812862e-08 3.8009612645002155 2.194485900535619 6.206943500975229 3.800961269383709 3.7865727218465506e-08 3.275622023722053e-08 7.6019224634150175" Properties=species:S:1:pos:R:3:forces:R:3 energy=-29.367328643798828 free_energy=-29.367328643798828 stress="-2.9727509172516875e-05 1.5248562412750744e-09 4.865205571746856e-09 1.5248562412750744e-09 -2.9758186428807676e-05 3.605215237456605e-09 4.865205571746856e-09 3.605215237456605e-09 -2.9753091439488344e-05" pbc="T T T"
V        2.19448612       1.55173591       3.80096138      -0.00000036       0.00000029       0.00000076
V        6.58345779       4.65520793      11.40288352       0.00000098       0.00000091      -0.00000077
P       -0.00000008       0.00000022      -0.00000008       0.00000029      -0.00000016       0.00000067
I        2.25883246       1.59723608       7.60192258      -0.00162495      -0.00114905      -0.00000054
I        6.51911098       4.60970731       7.60192245       0.00162437       0.00114853       0.00000028
I        5.45404141       1.59723585       5.75716788       0.00081130      -0.00114876      -0.00140700
I        3.32390228       4.60970748       9.44667712      -0.00081142       0.00114853       0.00140685
I        3.32390218       4.60970763       5.75716792      -0.00081223       0.00114845      -0.00140682
I        5.45404131       1.59723582       9.44667722       0.00081194      -0.00114872       0.00140661
