9
Lattice="6.533057988547449 1.336610063800651e-08 3.77186281988204 2.17768602751206 6.15942610128636 3.771862787444291 3.481182802634181e-08 -1.511226780726452e-08 7.543725579468202" Properties=species:S:1:pos:R:3:forces:R:3 energy=-31.216163635253906 free_energy=-31.216163635253906 stress="0.00012484558101277798 -7.447421013218047e-10 -2.278684574363865e-09 -7.447421013218047e-10 0.00012483289174269885 -2.319015646179423e-09 -2.278684574363865e-09 -2.319015646179423e-09 0.00012483273167163134" pbc="T T T"
V        2.17768593       1.53985666       3.77186275      -0.00000021       0.00000057      -0.00000072
V        6.53305821       4.61956958      11.31558855       0.00000027       0.00000043       0.00000092
Pt      -0.00000004       0.00000001       0.00000022       0.00000025       0.00000061       0.00000187
I        2.20026002       1.55581885       7.54372564       0.00145116       0.00102667      -0.00000043
I        6.51048399       4.60360726       7.54372556      -0.00145137      -0.00102737      -0.00000041
I        5.43292823       1.55581863       5.67734377      -0.00072558       0.00102660       0.00125726
I        3.27781605       4.60360722       9.41010725       0.00072508      -0.00102648      -0.00125809
I        3.27781604       4.60360743       5.67734374       0.00072599      -0.00102645       0.00125705
I        5.43292778       1.55581878       9.41010728      -0.00072565       0.00102539      -0.00125744
