9
Lattice="5.781074474818263 5.7296001692707464e-08 3.337704912362306 1.927024876223331 5.450449323033185 3.337704917099911 8.699763445103027e-08 6.731898708531119e-08 6.675409674040277" Properties=species:S:1:pos:R:3:forces:R:3 energy=-36.52029037475586 free_energy=-36.52029037475586 stress="-1.563745718158316e-05 -7.364688858757518e-09 1.2108658076215306e-08 -7.364688858757518e-09 -1.563619116495829e-05 -1.879355515654879e-08 1.2108658076215306e-08 -1.879355515654879e-08 -1.5607467503286898e-05" pbc="T T T"
V        1.92702549       1.36261252       3.33770480       0.00000267       0.00000093      -0.00000060
V        5.78107462       4.08783706      10.01311533      -0.00000007       0.00000041       0.00000231
Pt      -0.00000009       0.00000001       0.00000004       0.00000139       0.00000007      -0.00000764
Cl       1.91752304       1.35589380       6.67540984       0.00061870       0.00043805      -0.00000058
Cl       5.79057637       4.09455575       6.67540950      -0.00062045      -0.00043733      -0.00000042
Cl       4.82231269       1.35589380       4.99832820      -0.00031170       0.00043826       0.00053705
Cl       2.88578649       4.09455558       8.35249092       0.00030892      -0.00043628      -0.00053331
Cl       2.88578634       4.09455581       4.99832871       0.00030828      -0.00043713       0.00053599
Cl       4.82231287       1.35589346       8.35249070      -0.00030770       0.00043307      -0.00053273
