9
Lattice="6.033034795824405 2.119473455690698e-08 3.4831743182172543 2.0110115907033617 5.687999910006067 3.483174366519607 -5.6569706079188986e-08 1.915722308091059e-08 6.966348734416145" Properties=species:S:1:pos:R:3:forces:R:3 energy=-34.416690826416016 free_energy=-34.416690826416016 stress="7.565992564195767e-05 -7.732432472096207e-09 -5.9207732050481354e-09 -7.732432472096207e-09 7.566600834252313e-05 1.1080438788724223e-08 -5.9207732050481354e-09 1.1080438788724223e-08 7.56884110160172e-05" pbc="T T T"
V        2.01101155       1.42200036       3.48317427      -0.00000005       0.00000107       0.00000056
V        6.03303501       4.26599987      10.44952335       0.00000064      -0.00000009       0.00000053
Pt      -0.00000012      -0.00000003       0.00000016       0.00000191       0.00000027      -0.00000224
Br       2.00773437       1.41968284       6.96634877       0.00407696       0.00288347       0.00000027
Br       6.03631191       4.26831720       6.96634867      -0.00407927      -0.00288510      -0.00000028
Br       5.02916737       1.41968271       5.22192354      -0.00203910       0.00288335       0.00353025
Br       3.01487884       4.26831701       8.71077385       0.00203801      -0.00288225      -0.00352910
Br       3.01487881       4.26831720       5.22192330       0.00203950      -0.00288370       0.00353092
Br       5.02916757       1.41968266       8.71077380      -0.00203864       0.00288305      -0.00353098
