9
Lattice="5.806218823660803 5.169961972156253e-08 3.352221877856962 1.935406269949354 5.474155816492081 3.3522219702568714 -4.102472124490783e-08 8.415746001342957e-08 6.704443826770819" Properties=species:S:1:pos:R:3:forces:R:3 energy=-42.484432220458984 free_energy=-42.484432220458984 stress="0.0002683792554307729 -2.5795284130936125e-08 7.906685306480199e-10 -2.5795284130936125e-08 0.00026841339422389865 6.19085005482134e-09 7.906685306480199e-10 6.19085005482134e-09 0.0002684736391529441" pbc="T T T"
V        1.93540578       1.36853912       3.35222228      -0.00000444      -0.00000014       0.00000331
V        5.80621944       4.10561661      10.05666618       0.00000355      -0.00000118       0.00000244
Re      -0.00000016      -0.00000018      -0.00000025       0.00000180       0.00000231       0.00000840
Cl       1.93547617       1.36858878       6.70444355       0.00370367       0.00262024      -0.00000135
Cl       5.80614847       4.10556781       6.70444398      -0.00370789      -0.00261992       0.00000026
Cl       4.83848071       1.36858906       5.02839382      -0.00184824       0.00261750       0.00320219
Cl       2.90314399       4.10556694       8.38049390       0.00185136      -0.00262154      -0.00320982
Cl       2.90314449       4.10556710       5.02839360       0.00184959      -0.00261623       0.00320541
Cl       4.83848133       1.36858848       8.38049359      -0.00184936       0.00261897      -0.00321087
