9
Lattice="6.601495541792273 -1.986663282364499e-08 3.8113752650961366 2.20049850599637 6.223949739656459 3.811375246396807 -7.59834490832362e-09 -2.8274702212630768e-08 7.622750543352978" Properties=species:S:1:pos:R:3:forces:R:3 energy=-36.3532829284668 free_energy=-36.3532829284668 stress="7.105505937943235e-05 1.4236150036595063e-08 -1.0664179761477044e-08 1.4236150036595063e-08 7.103575626388192e-05 1.9458182620724074e-08 -1.0664179761477044e-08 1.9458182620724074e-08 7.102289237082005e-05" pbc="T T T"
V        2.20049840       1.55598743       3.81137515       0.00000018       0.00000029      -0.00000012
V        6.60149558       4.66796234      11.43412586       0.00000059       0.00000047       0.00000071
Re      -0.00000001       0.00000010       0.00000039      -0.00000025      -0.00000344      -0.00000339
I        2.20056039       1.55603114       7.62275069       0.00190799       0.00134830      -0.00000019
I        6.60143370       4.66791853       7.62275045      -0.00190630      -0.00134861      -0.00000002
I        5.50121547       1.55603101       5.71711622      -0.00095527       0.00135026       0.00165441
I        3.30077871       4.66791838       9.52838456       0.00095259      -0.00134693      -0.00165004
I        3.30077855       4.66791853       5.71711617       0.00095488      -0.00135070       0.00165317
I        5.50121535       1.55603127       9.52838472      -0.00095445       0.00135037      -0.00165453
