9
Lattice="6.136157337594039 2.089733218396194e-08 3.5427121695823023 2.0453857969683717 5.785224758275434 3.542712172928314 5.210548395833828e-08 4.094214697523119e-08 7.0854242489152535" Properties=species:S:1:pos:R:3:forces:R:3 energy=-39.739295959472656 free_energy=-39.739295959472656 stress="0.0001411098928656429 2.6512855910709732e-08 1.1859632387256624e-08 2.6512855910709732e-08 0.0001411104021826759 -1.7765202642294753e-08 1.1859632387256624e-08 -1.7765202642294753e-08 0.00014109390031080693" pbc="T T T"
V        2.04538602       1.44630593       3.54271207       0.00000075      -0.00000089      -0.00000006
V        6.13615793       4.33891873      10.62813653       0.00000236      -0.00000013       0.00000003
Re      -0.00000012       0.00000013      -0.00000016       0.00000068      -0.00000077      -0.00000048
Br       2.03686175       1.44027913       7.08542451       0.00268045       0.00189634       0.00000034
Br       6.14468140       4.34494580       7.08542441      -0.00268117      -0.00189581       0.00000012
Br       5.11772624       1.44027875       5.30668611      -0.00134230       0.00189624       0.00232414
Br       3.06381655       4.34494619       8.86416232       0.00134080      -0.00189665      -0.00232279
Br       3.06381658       4.34494600       5.30668625       0.00133980      -0.00189463       0.00232183
Br       5.11772641       1.44027868       8.86416235      -0.00134133       0.00189631      -0.00232317
