9
Lattice="4.552139023064876 2.240391249997387e-07 2.6281789052473576 1.517379776548 4.291798189501935 2.6281790940981367 1.6379533590153485e-08 2.428761121977051e-07 5.256357782124506" Properties=species:S:1:pos:R:3:forces:R:3 energy=-52.37791442871094 free_energy=-52.37791442871094 stress="2.6428295313962735e-05 -5.015134973973545e-08 -1.5838496381093137e-07 -5.015134973973545e-08 2.6210218493361026e-05 -1.6314292849983758e-07 -1.5838496381093137e-07 -1.6314292849983758e-07 2.664682688191533e-05" pbc="T T T"
V        1.51737956       1.07295033       2.62818043      -0.00000528       0.00000151       0.00001637
V        4.55213721       3.21884694       7.88454100      -0.00000887      -0.00001494       0.00003557
Re       0.00000045      -0.00000011      -0.00000120      -0.00000164       0.00000781       0.00001440
F        1.63295937       1.15467794       5.25635790      -0.00056618      -0.00039445      -0.00000363
F        4.43655988       3.13712068       5.25635599       0.00057209       0.00039731      -0.00001299
F        3.73565939       1.15467798       4.04236215       0.00028831      -0.00040138      -0.00051014
F        2.33385993       3.13712133       6.47035180      -0.00027832       0.00039695       0.00048029
F        2.33386005       3.13712178       4.04236312      -0.00028142       0.00040649      -0.00050449
F        3.73565889       1.15467768       6.47035190       0.00028102      -0.00039931       0.00048479
