9
Lattice="4.360324854902731 -5.428589221019155e-08 2.517434828115255 1.4534415856735936 4.110953660065203 2.5174347959789465 6.659018717259824e-10 -3.888793594802439e-08 5.034869655077147" Properties=species:S:1:pos:R:3:forces:R:3 energy=-46.907554626464844 free_energy=-46.907554626464844 stress="0.00032349920365959406 -2.3708789598231306e-08 5.319440532502995e-08 -2.3708789598231306e-08 0.0003233927418477833 -1.1681840561550416e-07 5.319440532502995e-08 -1.1681840561550416e-07 0.00032319597085006535" pbc="T T T"
V        1.45344155       1.02773791       2.51743493      -0.00000047      -0.00000260      -0.00000069
V        4.36032523       3.08321545       7.55230449       0.00000259       0.00000149       0.00000069
Rh      -0.00000019      -0.00000012      -0.00000007       0.00000446      -0.00000004       0.00000515
F        1.57844448       1.11612853       5.03486947      -0.00401638      -0.00284106      -0.00000128
F        4.23532195       2.99482526       5.03486979       0.00400871       0.00283760       0.00000170
F        3.57110290       1.11612869       3.88440793       0.00200817      -0.00283630      -0.00347230
F        2.24266331       2.99482510       6.18533122      -0.00200466       0.00283454       0.00346940
F        2.24266378       2.99482497       3.88440768      -0.00200929       0.00284122      -0.00347825
F        3.57110265       1.11612854       6.18533132       0.00200703      -0.00283508       0.00347587
