9
Lattice="5.997839766631434 -7.716765345745404e-08 3.462854340318907 1.9992798752756225 5.6548174176921835 3.4628542955982002 4.2653986478476506e-08 -2.4610526605074868e-08 6.925708606758961" Properties=species:S:1:pos:R:3:forces:R:3 energy=-35.98282241821289 free_energy=-35.98282241821289 stress="0.0001240478450199589 -2.482745564691413e-09 -2.672361887334773e-09 -2.482745564691413e-09 0.00012403209984768182 -2.7012629910672104e-09 -2.672361887334773e-09 -2.7012629910672104e-09 0.0001240249548573047" pbc="T T T"
V        1.99928002       1.41370440       3.46285364       0.00000030       0.00000041      -0.00000241
V        5.99784000       4.24111286      10.38856306       0.00000132      -0.00000121      -0.00000005
Rh      -0.00000002      -0.00000016      -0.00000009      -0.00000104      -0.00000099      -0.00000222
Br       1.99834370       1.41304239       6.92570874       0.00386262       0.00273201       0.00000080
Br       5.99877595       4.24177501       6.92570853      -0.00386339      -0.00273075      -0.00000055
Br       4.99866797       1.41304230       5.19347091      -0.00193230       0.00273227       0.00334543
Br       2.99845183       4.24177492       8.65794660       0.00193119      -0.00273091      -0.00334389
Br       2.99845157       4.24177515       5.19347094       0.00193234      -0.00273214       0.00334625
Br       4.99866775       1.41304237       8.65794664      -0.00193109       0.00273124      -0.00334326
