9
Lattice="5.6734818634740565 3.560715688332664e-08 3.275586350508038 1.8911606600620983 5.349009960847721 3.275586341270431 4.0155520969993284e-08 1.708053639416973e-08 6.551172631464622" Properties=species:S:1:pos:R:3:forces:R:3 energy=-38.29662322998047 free_energy=-38.29662322998047 stress="0.0001474430609960109 -1.2284764316916608e-08 -1.5898772076639034e-08 -1.2284764316916608e-08 0.00014744099462404847 2.1380877512910956e-08 -1.5898772076639034e-08 2.1380877512910956e-08 0.00014745310181751847" pbc="T T T"
V        1.89116128       1.33725250       3.27558631       0.00000380      -0.00000069      -0.00000014
V        5.67348255       4.01175676       9.82675951       0.00000282      -0.00000454       0.00000127
Rh      -0.00000021       0.00000006       0.00000009       0.00000404      -0.00000241      -0.00000399
Cl       1.90191050       1.34485453       6.55117272       0.00326735       0.00231114      -0.00000129
Cl       5.66273145       4.00415613       6.55117265      -0.00326927      -0.00231087      -0.00000020
Cl       4.72252646       1.34485407       4.92268957      -0.00163554       0.00231306       0.00283033
Cl       2.84211558       4.00415573       8.17965544       0.00162918      -0.00230648      -0.00282566
Cl       2.84211623       4.00415593       4.92268928       0.00163278      -0.00231084       0.00282814
Cl       4.72252648       1.34485434       8.17965572      -0.00163523       0.00231156      -0.00282827
