9
Lattice="6.511632321280211 1.5021659567529165e-08 3.7594926929078487 2.170544148972156 6.139225707636626 3.759492644902009 3.811399002371636e-08 -3.184424682820315e-08 7.518985319800286" Properties=species:S:1:pos:R:3:forces:R:3 energy=-32.850433349609375 free_energy=-32.850433349609375 stress="5.9365622291807085e-05 1.4193640929249796e-08 2.2095423268808645e-09 1.4193640929249796e-08 5.935022636549547e-05 -2.30086927288653e-09 2.2095423268808645e-09 -2.30086927288653e-09 5.93553704675287e-05" pbc="T T T"
V        2.17054420       1.53480654       3.75949264       0.00000049       0.00000020       0.00000012
V        6.51163247       4.60441931      11.27847817       0.00000011       0.00000006       0.00000084
Rh      -0.00000012      -0.00000010      -0.00000015       0.00000052       0.00000213       0.00000007
I        2.17554322       1.53834110       7.51898528       0.00142461       0.00100731      -0.00000058
I        6.50663349       4.60088459       7.51898546      -0.00142633      -0.00100843      -0.00000034
I        5.42386079       1.53834136       5.64356821      -0.00071296       0.00100888       0.00123449
I        3.25831563       4.60088431       9.39440240       0.00071310      -0.00100906      -0.00123576
I        3.25831567       4.60088433       5.64356816       0.00071332      -0.00100913       0.00123569
I        5.42386070       1.53834131       9.39440240      -0.00071284       0.00100806      -0.00123458
