9
Lattice="5.673417836026159 -4.502031806974077e-09 3.275549294108452 1.8911393123844713 5.348949852951775 3.2755492283708256 7.942550913980502e-08 -2.4349500165208908e-08 6.551098450647917" Properties=species:S:1:pos:R:3:forces:R:3 energy=-38.296627044677734 free_energy=-38.296627044677734 stress="0.00014056988584343344 -4.709022061177848e-10 4.6428403344123126e-09 -4.709022061177848e-10 0.00014057471707928926 3.3117231179602413e-09 4.6428403344123126e-09 3.3117231179602413e-09 0.0001405447255820036" pbc="T T T"
V        1.89113910       1.33723752       3.27554915      -0.00000174       0.00000053      -0.00000035
V        5.67341798       4.01171141       9.82664855      -0.00000039      -0.00000411       0.00000524
Rh       0.00000007       0.00000005      -0.00000015       0.00000092      -0.00000120      -0.00000406
Cl       1.90191309       1.34485570       6.55109841       0.00308624       0.00218320      -0.00000112
Cl       5.66264415       4.00409432       6.55109819      -0.00308767      -0.00218123      -0.00000196
Cl       4.72246158       1.34485601       4.92265385      -0.00154284       0.00218625       0.00267328
Cl       2.84209548       4.00409418       8.17954292       0.00154341      -0.00218278      -0.00267218
Cl       2.84209587       4.00409453       4.92265407       0.00154424      -0.00218262       0.00267346
Cl       4.72246158       1.34485565       8.17954296      -0.00154219       0.00218198      -0.00267252
