9
Lattice="4.360484051647617 -1.2694291867597845e-08 2.5175265794670647 1.4534946792631476 4.111103605530248 2.5175265667384013 -6.429897271151046e-08 -6.105560538354311e-08 5.035053270303201" Properties=species:S:1:pos:R:3:forces:R:3 energy=-46.907554626464844 free_energy=-46.907554626464844 stress="0.0004226341552566737 4.6746357895699475e-08 2.728708281551917e-08 4.6746357895699475e-08 0.00042284399387426674 5.797779323302166e-08 2.728708281551917e-08 5.797779323302166e-08 0.0004223400610499084" pbc="T T T"
V        1.45349449       1.02777546       2.51752641      -0.00000034      -0.00000452       0.00000018
V        4.36048439       3.08332779       7.55257931       0.00000288       0.00000114      -0.00000229
Rh       0.00000007      -0.00000008      -0.00000013      -0.00000233       0.00000036       0.00001186
F        1.57848753       1.11615946       5.03505328      -0.00431728      -0.00304954       0.00000153
F        4.23549103       2.99494412       5.03505328       0.00432017       0.00305407       0.00000039
F        3.57123998       1.11615890       3.88453733       0.00215651      -0.00305593      -0.00373691
F        2.24273853       2.99494481       6.18556944      -0.00215407       0.00304855       0.00373127
F        2.24273855       2.99494448       3.88453712      -0.00215818       0.00305386      -0.00373687
F        3.57124011       1.11615907       6.18556970       0.00215266      -0.00304699       0.00373128
