9
Lattice="6.072169493546867 -1.0855343284523428e-08 3.5057687072357244 2.0240565098783128 5.7248962465806414 3.5057686686735527 9.654764642381205e-08 2.104069649057851e-08 7.011537247245988" Properties=species:S:1:pos:R:3:forces:R:3 energy=-37.08609390258789 free_energy=-37.08609390258789 stress="0.00016075470193754882 -1.0127525484904254e-08 9.261045263997403e-09 -1.0127525484904254e-08 0.00016076686733867973 -6.299877508553209e-09 9.261045263997403e-09 -6.299877508553209e-09 0.00016076104657258838" pbc="T T T"
V        2.02405700       1.43122398       3.50576824       0.00000087       0.00000001      -0.00000173
V        6.07216953       4.29367289      10.51730475       0.00000003       0.00000225      -0.00000432
Ru      -0.00000008      -0.00000005       0.00000021       0.00000120      -0.00000197       0.00000038
Br       2.01972424       1.42816064       7.01153750       0.00280028       0.00197840       0.00000016
Br       6.07650189       4.29673541       7.01153784      -0.00279982      -0.00197929       0.00000230
Br       5.06230717       1.42816053       5.25490156      -0.00140080       0.00197779       0.00242522
Br       3.03391886       4.29673544       8.76817347       0.00139972      -0.00197753      -0.00242214
Br       3.03391874       4.29673550       5.25490143       0.00139872      -0.00197765       0.00242282
Br       5.06230711       1.42816072       8.76817354      -0.00140020       0.00197801      -0.00242276
