9
Lattice="6.541506008446835 -9.399688674585235e-09 3.776740242223714 2.180501979838296 6.167391003774975 3.776740266671933 -2.5726598942516652e-08 1.1751390292043819e-08 7.5534805290072145" Properties=species:S:1:pos:R:3:forces:R:3 energy=-33.70612335205078 free_energy=-33.70612335205078 stress="9.450349898543209e-05 -6.522582918222497e-09 3.691114525139483e-09 -6.522582918222497e-09 9.451263031223789e-05 7.80516451470703e-09 3.691114525139483e-09 7.80516451470703e-09 9.451235382584855e-05" pbc="T T T"
V        2.18050207       1.54184795       3.77674025       0.00000023       0.00000020      -0.00000003
V        6.54150603       4.62554326      11.33022050      -0.00000006       0.00000024      -0.00000154
Ru      -0.00000011      -0.00000010      -0.00000020       0.00000168       0.00000025      -0.00000310
I        2.18851531       1.54751413       7.55348059       0.00258568       0.00182783       0.00000042
I        6.53349269       4.61987677       7.55348075      -0.00258626      -0.00182819       0.00000055
I        5.44724830       1.54751404       5.67205033      -0.00129353       0.00182875       0.00223975
I        3.27475966       4.61987687       9.43491089       0.00129193      -0.00182800      -0.00223756
I        3.27475959       4.61987696       5.67205024       0.00129322      -0.00182918       0.00223941
I        5.44724831       1.54751415       9.43491081      -0.00129289       0.00182807      -0.00223789
