9
Lattice="4.582673511229392 8.55541843928808e-08 2.6458080476470385 1.5275578823237166 4.320586684915643 2.645808108985884 -9.475466730707496e-09 6.842426675226563e-08 5.2916161117060465" Properties=species:S:1:pos:R:3:forces:R:3 energy=-48.2273063659668 free_energy=-48.2273063659668 stress="0.00010433134593768045 1.1019585599569837e-07 -3.4633149681440045e-08 1.1019585599569837e-07 0.00010414907592348754 8.752828506430888e-08 -3.4633149681440045e-08 8.752828506430888e-08 0.00010412433766759932" pbc="T T T"
V        1.52755741       1.08014891       2.64581063      -0.00000361       0.00002035       0.00002258
V        4.58267286       3.24044299       7.93742640      -0.00000332       0.00002391       0.00001895
Ru       0.00000013      -0.00000049      -0.00000027      -0.00000080       0.00000168      -0.00000171
F        1.58898544       1.12358041       5.29161517       0.00474536       0.00334057      -0.00000815
F        4.52124691       3.19700459       5.29161536      -0.00473967      -0.00335515      -0.00000821
F        3.78818177       1.12358118       4.02190910      -0.00236830       0.00334597       0.00410566
F        2.32204900       3.19700473       6.56132232       0.00236546      -0.00335664      -0.00411522
F        2.32205016       3.19700321       4.02190745       0.00237405      -0.00336811       0.00409892
F        3.78818176       1.12358174       6.56132287      -0.00236931       0.00334728      -0.00411281
