9
Lattice="6.541460142505562 3.5224747964719845e-08 3.7767137441740593 2.1804867246193185 6.167347756832783 3.7767137835945106 -3.466284839295327e-08 2.3769663447777938e-08 7.553427548385916" Properties=species:S:1:pos:R:3:forces:R:3 energy=-33.70612716674805 free_energy=-33.70612716674805 stress="9.012161899590865e-05 1.5102063599670146e-08 -4.533514452731424e-09 1.5102063599670146e-08 9.011381189338863e-05 1.8300910786805957e-09 -4.533514452731424e-09 1.8300910786805957e-09 9.008972119772807e-05" pbc="T T T"
V        2.18048664       1.54183686       3.77671367       0.00000003      -0.00000024      -0.00000094
V        6.54146012       4.62551086      11.33014145      -0.00000010      -0.00000025      -0.00000106
Ru      -0.00000010      -0.00000008      -0.00000022       0.00000086      -0.00000062       0.00000028
I        2.18851758       1.54751564       7.55342761       0.00245873       0.00173861       0.00000055
I        6.53342935       4.61983228       7.55342749      -0.00246001      -0.00173881       0.00000088
I        5.44720134       1.54751563       5.67202561      -0.00122963       0.00173907       0.00213001
I        3.27474550       4.61983221       9.43482951       0.00123074      -0.00174033      -0.00212939
I        3.27474542       4.61983234       5.67202563       0.00123005      -0.00173849       0.00213102
I        5.44720149       1.54751550       9.43482955      -0.00123069       0.00174108      -0.00213139
