9
Lattice="5.742363067259067 -3.205321228718746e-08 3.3153548824871875 1.914121032531534 5.413951603826606 3.315354812630284 2.4556693080245176e-08 -6.819267126910614e-08 6.630709722440853" Properties=species:S:1:pos:R:3:forces:R:3 energy=-39.294429779052734 free_energy=-39.294429779052734 stress="0.00020059644884895533 3.5965971534324126e-08 5.284978232822368e-09 3.5965971534324126e-08 0.00020059991220477968 -8.115556227039633e-09 5.284978232822368e-09 -8.115556227039633e-09 0.0002005464630201459" pbc="T T T"
V        1.91412081       1.35348823       3.31535531      -0.00000161       0.00000165       0.00000179
V        5.74236274       4.06046333       9.94606412      -0.00000097      -0.00000040      -0.00000315
Ru       0.00000009       0.00000007      -0.00000020      -0.00000025      -0.00000118       0.00000547
Cl       1.92354423       1.36015129       6.63070981       0.00266242       0.00188389      -0.00000128
Cl       5.73293990       4.05380021       6.63070972      -0.00266072      -0.00188422       0.00000082
Cl       4.78059096       1.36015097       4.98119321      -0.00133295       0.00188312       0.00230759
Cl       2.87589326       4.05380038       8.28022639       0.00133455      -0.00188579      -0.00230895
Cl       2.87589338       4.05380045       4.98119304       0.00133130      -0.00188282       0.00230637
Cl       4.78059118       1.36015108       8.28022641      -0.00133177       0.00188573      -0.00230853
