9
Lattice="5.963010745967768 2.4811968244935658e-08 3.442746029879425 1.9876702678451341 5.621980587592137 3.442746037160485 -5.626244226063677e-08 -3.086609413094565e-08 6.885492157208248" Properties=species:S:1:pos:R:3:forces:R:3 energy=-30.210311889648438 free_energy=-30.210311889648438 stress="0.0001429354742867872 3.4604774601376675e-09 -1.1779686559520997e-08 3.4604774601376675e-09 0.0001429630647180602 4.142581833121994e-09 -1.1779686559520997e-08 4.142581833121994e-09 0.00014295380969997495" pbc="T T T"
V        1.98767002       1.40549512       3.44274613      -0.00000205      -0.00000043       0.00000093
V        5.96301055       4.21648553      10.32823853      -0.00000048       0.00000114       0.00000167
S        0.00000015      -0.00000004      -0.00000006      -0.00000213       0.00000041       0.00000011
Br       2.04981328       1.44943709       6.88549225      -0.00414935      -0.00293422       0.00000033
Br       5.90086747       4.17254359       6.88549185       0.00415099       0.00293463      -0.00000047
Br       4.93810433       1.44943693       5.21793667       0.00207560      -0.00293490      -0.00359517
Br       3.01257710       4.17254389       8.55304745      -0.00207444       0.00293446       0.00359398
Br       3.01257691       4.17254369       5.21793670      -0.00207388       0.00293371      -0.00359535
Br       4.93810408       1.44943656       8.55304745       0.00207570      -0.00293466       0.00359401
