9
Lattice="6.802315866455035 7.227102065899611e-08 3.92731877100339 2.2674387077439886 6.413284812444406 3.9273187407712897 -3.874576660150876e-09 -3.9766374720031766e-08 7.854637548717768" Properties=species:S:1:pos:R:3:forces:R:3 energy=-28.779691696166992 free_energy=-28.779691696166992 stress="0.00016364174371119589 1.5164494104880077e-09 8.800055684154984e-10 1.5164494104880077e-09 0.00016364542534574866 -4.126988528696529e-09 8.800055684154984e-10 -4.126988528696529e-09 0.00016364057955797762" pbc="T T T"
V        2.26743843       1.60332143       3.92731880       0.00000001       0.00000009       0.00000008
V        6.80231613       4.80996375      11.78195574       0.00000061       0.00000063      -0.00000098
Sb      -0.00000005      -0.00000014       0.00000037       0.00000021       0.00000108      -0.00000196
I        2.39738348       1.69520590       7.85463755      -0.00177081      -0.00125224      -0.00000013
I        6.67237138       4.71807894       7.85463766       0.00176937       0.00125185      -0.00000056
I        5.60362432       1.69520567       6.00351366       0.00088480      -0.00125137      -0.00153352
I        3.46613042       4.71807873       9.70576146      -0.00088539       0.00125151       0.00153390
I        3.46613005       4.71807895       6.00351358      -0.00088534       0.00125156      -0.00153243
I        5.60362417       1.69520615       9.70576141       0.00088657      -0.00125306       0.00153564
