9
Lattice="6.1643528862354735 -2.8487893301878462e-08 3.558990812718332 2.054784246878928 5.8118078293925866 3.558990850259261 -5.8187879626960807e-08 4.832997240037777e-09 7.11798172622108" Properties=species:S:1:pos:R:3:forces:R:3 energy=-32.497764587402344 free_energy=-32.497764587402344 stress="0.0003055903362110257 4.0048382388135906e-09 9.73301972351237e-09 4.0048382388135906e-09 0.0003055919078178704 -5.262332791744484e-09 9.73301972351237e-09 -5.262332791744484e-09 0.0003055750858038664" pbc="T T T"
V        2.05478336       1.45295193       3.55899097      -0.00000289      -0.00000013       0.00000021
V        6.16435346       4.35885620      10.67697289       0.00000125       0.00000133       0.00000248
Sb       0.00000002      -0.00000017      -0.00000010      -0.00000031       0.00000209      -0.00000061
Br       2.14428655       1.51623923       7.11798222       0.00306053       0.00216329       0.00000014
Br       6.07485093       4.29556842       7.11798166      -0.00306168      -0.00216417      -0.00000122
Br       5.09220972       1.51623948       5.41599717      -0.00153000       0.00216407       0.00265019
Br       3.12692699       4.29556857       8.81996598       0.00153045      -0.00216402      -0.00265256
Br       3.12692710       4.29556812       5.41599692       0.00153018      -0.00216514       0.00265186
Br       5.09221020       1.51623944       8.81996577      -0.00152765       0.00216275      -0.00265056
