9
Lattice="5.8998933149154675 4.439044725117159e-08 3.4063050907282015 1.9666311226759625 5.562472702816894 3.4063051325530975 -1.9899938473343626e-08 3.715341319177745e-08 6.812610215924141" Properties=species:S:1:pos:R:3:forces:R:3 energy=-35.29401397705078 free_energy=-35.29401397705078 stress="0.00026293599512428045 4.0782396126815e-08 1.488530276816391e-08 4.0782396126815e-08 0.00026295523275621235 2.0165220604440037e-08 1.488530276816391e-08 2.0165220604440037e-08 0.00026283253100700676" pbc="T T T"
V        1.96662994       1.39061853       3.40630458      -0.00000266       0.00000319      -0.00000338
V        5.89989238       4.17185526      10.21891447      -0.00000297       0.00000384      -0.00000372
Sb       0.00000015       0.00000000       0.00000017      -0.00000296      -0.00000185       0.00000014
Cl       2.02904990       1.43475381       6.81261039       0.00484928       0.00342563       0.00000088
Cl       5.83747515       4.12771818       6.81261047      -0.00484565      -0.00342821       0.00000230
Cl       4.88536880       1.43475427       5.16351374      -0.00242329       0.00342718       0.00420240
Cl       2.98115618       4.12771800       8.46170757       0.00242724      -0.00342946      -0.00419903
Cl       2.98115589       4.12771839       5.16351341       0.00242604      -0.00343049       0.00420210
Cl       4.88536915       1.43475472       8.46170700      -0.00242497       0.00343019      -0.00420144
