9
Lattice="4.1498788321570075 -3.051904041443485e-09 2.395933619655987 1.3832929283660613 3.912543319009396 2.395933641841673 -3.006219357743763e-08 5.914624184425091e-09 4.7918672913812195" Properties=species:S:1:pos:R:3:forces:R:3 energy=-40.7266960144043 free_energy=-40.7266960144043 stress="9.728968143463135e-05 1.8455839523312534e-08 2.8764260306957112e-08 1.8455839523312534e-08 9.726930147735402e-05 1.2335746646385815e-07 2.8764260306957112e-08 1.2335746646385815e-07 9.715982741909102e-05" pbc="T T T"
V        1.38329294       0.97813581       2.39593361       0.00000272       0.00000129      -0.00000038
V        4.14987876       2.93440748       7.18780093      -0.00000465      -0.00000154      -0.00000061
Sb      -0.00000001      -0.00000003      -0.00000006      -0.00000408      -0.00000113      -0.00000069
F        1.48544818       1.05037053       4.79186728      -0.00035262      -0.00025421       0.00000035
F        4.04772349       2.86217282       4.79186729       0.00036237       0.00025305       0.00000006
F        3.40715471       1.05037052       3.68236941       0.00017658      -0.00025398      -0.00030804
F        2.12601701       2.86217288       5.90136504      -0.00018166       0.00025392       0.00031519
F        2.12601696       2.86217286       3.68236947      -0.00017419       0.00024959      -0.00030768
F        3.40715480       1.05037044       5.90136515       0.00017543      -0.00024766       0.00030169
