9
Lattice="5.753052319964494 2.2663448007617086e-08 3.3215262099453553 1.9176841456126354 5.424029790361395 3.321526179477702 1.6870912604718855e-08 -2.538557673605302e-08 6.643052390669461" Properties=species:S:1:pos:R:3:forces:R:3 energy=-32.5793342590332 free_energy=-32.5793342590332 stress="0.00016113101446535438 1.3654418928865653e-08 -4.622319238478667e-08 1.3654418928865653e-08 0.00016109012358356267 -2.1458889776226897e-08 -4.622319238478667e-08 -2.1458889776226897e-08 0.00016108551062643528" pbc="T T T"
V        1.91768372       1.35600589       3.32152580      -0.00000399      -0.00000728      -0.00000127
V        5.75305156       4.06802227       9.96457846      -0.00000466      -0.00000165      -0.00000021
S        0.00000007       0.00000017       0.00000018       0.00000260       0.00000389       0.00000045
Cl       1.93378243       1.36739067       6.64305229      -0.00004202      -0.00002953       0.00000144
Cl       5.73695381       4.05663950       6.64305206       0.00004095       0.00003266       0.00000190
Cl       4.78616144       1.36739058       4.99623087       0.00002474      -0.00002876      -0.00003779
Cl       2.88457577       4.05663907       8.28987438      -0.00002003       0.00003129       0.00003469
Cl       2.88457577       4.05664011       4.99623101      -0.00001854       0.00002989      -0.00003380
Cl       4.78616137       1.36739089       8.28987414       0.00002116      -0.00003076       0.00003421
