9
Lattice="1.685007827968132 -3.8695849018470985 -2.2177790309145213 2.0986768367847612 -3.2658486593504645 2.310938451316058 -2.0897250937966003 -4.215348566190144 0.24044178905080782" Properties=species:S:1:pos:R:3:forces:R:3 energy=-114.27127075195312 free_energy=-114.27127075195312 stress="0.00018786329019349068 0.00018065795302391052 -0.0001732603122945875 0.00018065795302391052 0.00029031216399744153 -0.00014063395792618394 -0.0001732603122945875 -0.00014063395792618394 0.0003860683646053076" pbc="T T T"
V        0.52399584      -2.83196535       0.07459553       0.00124431      -0.00170898       0.00163841
V        1.20364525      -8.42412918       0.24558990       0.00020605      -0.00633574       0.00117207
Se      -0.18014365      -0.33702543      -0.24175346      -0.00086975      -0.00134373      -0.00044060
F       -0.34698112      -5.16885453       0.16784171      -0.00140953       0.00048208       0.00225878
F        1.95997763      -6.31581305       0.10998083      -0.00588989       0.00469780       0.00159836
F        1.25927639      -4.78099980      -0.86600981      -0.00014400       0.00081635      -0.00080061
F        0.50450706      -6.41269547       1.38781133       0.00148976       0.00391102      -0.00752735
F        1.30253630      -4.78811548       1.00265545       0.00044918      -0.00312805      -0.00193405
F        0.50165490      -6.31851923      -0.59228245       0.00491333       0.00261307       0.00406647
