9
Lattice="6.695502623424364 4.778011243779567e-08 3.8656502783334394 2.231834256662064 6.312580417173318 3.8656502717405434 -4.405041638288075e-09 -1.1189447390499393e-08 7.731300564296616" Properties=species:S:1:pos:R:3:forces:R:3 energy=-26.790449142456055 free_energy=-26.790449142456055 stress="-0.00017466528515797108 6.370752814177649e-09 -9.203546258440554e-10 6.370752814177649e-09 -0.00017466815188527107 -1.0551479689979715e-09 -9.203546258440554e-10 -1.0551479689979715e-09 -0.00017467740690335631" pbc="T T T"
V        2.23183415       1.57814529       3.86565039       0.00000070       0.00000067      -0.00000005
V        6.69550289       4.73443532      11.59695095       0.00000012       0.00000030      -0.00000015
Se       0.00000018       0.00000016      -0.00000010      -0.00000057      -0.00000062       0.00000001
I        2.36766757       1.67419392       7.73130058      -0.00632735      -0.00447376      -0.00000016
I        6.55966920       4.63838630       7.73130058       0.00632813       0.00447422      -0.00000005
I        5.51166870       1.67419381       5.91611048       0.00316328      -0.00447431      -0.00547914
I        3.41566803       4.63838660       9.54649059      -0.00316384       0.00447359       0.00547934
I        3.41566812       4.63838649       5.91611051      -0.00316380       0.00447408      -0.00547913
I        5.51166872       1.67419390       9.54649058       0.00316327      -0.00447422       0.00547936
