9
Lattice="6.570855321068011 4.6054445310368585e-08 3.793684968988576 2.1902851303436974 6.19506178959085 3.793685003801908 -5.7800209414645834e-08 1.7665457492664622e-09 7.587370038090053" Properties=species:S:1:pos:R:3:forces:R:3 energy=-30.257705688476562 free_energy=-30.257705688476562 stress="9.64414793998003e-05 9.950296142591242e-10 -5.61358914907828e-09 9.950296142591242e-10 9.643111116020009e-05 2.0657597854523146e-09 -5.61358914907828e-09 2.0657597854523146e-09 9.643391967983916e-05" pbc="T T T"
V        2.19028523       1.54876549       3.79368488      -0.00000012      -0.00000014      -0.00000064
V        6.57085530       4.64629635      11.38105491       0.00000001       0.00000019      -0.00000028
Si       0.00000010       0.00000001      -0.00000018      -0.00000009       0.00000029      -0.00000009
I        2.20552814       1.55954397       7.58737038       0.00162981       0.00115173       0.00000083
I        6.55561212       4.63551790       7.58737012      -0.00162898      -0.00115238      -0.00000031
I        5.46809117       1.55954375       5.70372830      -0.00081535       0.00115227       0.00141241
I        3.29304914       4.63551800       9.47101153       0.00081453      -0.00115234      -0.00141071
I        3.29304909       4.63551792       5.70372835       0.00081509      -0.00115264       0.00141053
I        5.46809126       1.55954396       9.47101169      -0.00081485       0.00115308      -0.00141172
