9
Lattice="5.748089512932603 0.32287350946893684 2.402151338921439 1.943486039234239 4.374605825984645 2.8517350578479146 -0.6035793027315142 0.26421396701958916 5.42566205756425" Properties=species:S:1:pos:R:3:forces:R:3 energy=-53.014320373535156 free_energy=-53.014320373535156 stress="6.612675497308373e-05 2.9426182663883083e-06 2.5391620511072688e-05 2.9426182663883083e-06 7.649413601029664e-05 -0.00014020444359630346 2.5391620511072688e-05 -0.00014020444359630346 -0.000150617808685638" pbc="T T T"
V        0.78014852       1.58134604       2.86359424       0.00023745      -0.00143944      -0.00058456
V        4.08847935       3.27319930       6.84367310       0.00206752       0.00071179      -0.00025867
Si       0.30297424      -0.00364130       0.17556600      -0.00153392       0.00580400      -0.00116970
F        1.24362590       0.72937187       4.93999467      -0.00053771       0.00100273      -0.00348914
F        6.48444829       4.07709591       5.94018991      -0.00281055      -0.00095344      -0.00129817
F        5.72270907       1.94820079       3.14280698      -0.00281030       0.00164557       0.00147404
F        2.02014036       3.06613843       7.76368393      -0.00052629       0.00187802       0.00383162
F        2.96106639       4.02096378       4.54124897       0.00420153      -0.00601494       0.00188524
F        4.75379051       1.15133350       6.50725868       0.00171232      -0.00263423      -0.00039075
