9
Lattice="5.995192866595597 6.793599273280622e-08 3.46132628054147 1.9983976239857997 5.652322284245916 3.4613263883848364 -7.01249488169882e-09 1.271220382104817e-07 6.922652573228973" Properties=species:S:1:pos:R:3:forces:R:3 energy=-34.577880859375 free_energy=-34.577880859375 stress="0.00032224832102656364 -1.3629139483661845e-10 6.398396035223186e-09 -1.3629139483661845e-10 0.0003222656378056854 3.635227452392087e-09 6.398396035223186e-09 3.635227452392087e-09 0.0003222340892534703" pbc="T T T"
V        1.99839826       1.41308074       3.46132582       0.00000182       0.00000153      -0.00000115
V        5.99519266       4.23924149      10.38397951      -0.00000089      -0.00000031       0.00000201
Si      -0.00000000       0.00000010      -0.00000015       0.00000008       0.00000077       0.00000050
Br       1.98187265       1.40139570       6.92265243       0.00229335       0.00162136      -0.00000035
Br       6.01171771       4.25092686       6.92265241      -0.00229535      -0.00162210      -0.00000031
Br       5.00425655       1.40139563       5.17767837      -0.00114678       0.00162228       0.00198576
Br       2.98933373       4.25092666       8.66762709       0.00114737      -0.00162357      -0.00198787
Br       2.98933397       4.25092685       5.17767833       0.00114828      -0.00162235       0.00198770
Br       5.00425641       1.40139592       8.66762713      -0.00114775       0.00162248      -0.00198627
