9
Lattice="6.588493178408457 1.215321127276299e-07 3.803868392059831 2.196164465371065 6.211690763810498 3.8038684648289434 -1.0745926258343343e-07 1.3138491293090229e-08 7.607736970244503" Properties=species:S:1:pos:R:3:forces:R:3 energy=-26.99587059020996 free_energy=-26.99587059020996 stress="-0.00018294232722837478 3.6770637645844317e-09 -1.1359544416222889e-08 3.6770637645844317e-09 -0.00018297132919542491 6.807846730794154e-09 -1.1359544416222889e-08 6.807846730794154e-09 -0.00018295019981451333" pbc="T T T"
V        2.19616417       1.55292293       3.80386854      -0.00000030       0.00000022      -0.00000083
V        6.58849330       4.65876845      11.41160538       0.00000037       0.00000099       0.00000141
S        0.00000013       0.00000022       0.00000024      -0.00000000      -0.00000095      -0.00000317
I        2.33293740       1.64963567       7.60773697      -0.00191044      -0.00135072      -0.00000036
I        6.45172014       4.56205488       7.60773671       0.00191008       0.00135029       0.00000050
I        5.42202457       1.64963556       5.82425086       0.00095524      -0.00135044      -0.00165200
I        3.36263306       4.56205496       9.39122285      -0.00095503       0.00135120       0.00165428
I        3.36263282       4.56205538       5.82425111      -0.00095532       0.00135028      -0.00165251
I        5.42202459       1.64963557       9.39122262       0.00095541      -0.00135086       0.00165262
