9
Lattice="5.724449588352985 -1.1531274654539486e-08 3.3050124653860298 1.9081498839846163 5.397062733762737 3.305012409835538 7.852659087318444e-08 -1.2508479303366909e-08 6.610024794760018" Properties=species:S:1:pos:R:3:forces:R:3 energy=-38.14740753173828 free_energy=-38.14740753173828 stress="0.000198922076378949 -1.4763402056416908e-08 4.5660728531515815e-09 -1.4763402056416908e-08 0.00019900717597920448 -2.3683565331111822e-08 4.5660728531515815e-09 -2.3683565331111822e-08 0.0001989374723052606" pbc="T T T"
V        1.90814999       1.34926554       3.30501221      -0.00000028      -0.00000053      -0.00000029
V        5.72444975       4.04779701       9.91503769       0.00000026      -0.00000023       0.00000175
Si       0.00000013       0.00000000      -0.00000007      -0.00000353       0.00000318      -0.00000176
Cl       1.85222090       1.30971799       6.61002505       0.00035360       0.00025004       0.00000242
Cl       5.78037829       4.08734478       6.61002470      -0.00035191      -0.00024956       0.00000021
Cl       4.79833913       1.30971797       4.90908297      -0.00017580       0.00024876       0.00030690
Cl       2.83426039       4.08734496       8.31096675       0.00017673      -0.00024831      -0.00030923
Cl       2.83426056       4.08734440       4.90908230       0.00017707      -0.00025102       0.00030357
Cl       4.79833907       1.30971827       8.31096696      -0.00017619       0.00024757      -0.00030404
