9
Lattice="5.201964607320982 7.187112041093156e-07 3.0033574186174397 1.7339887939408845 4.904463220873144 3.003357567758729 -1.217679144741296e-06 -6.783693547734083e-07 6.006716946317358" Properties=species:S:1:pos:R:3:forces:R:3 energy=-45.59013748168945 free_energy=-45.59013748168945 stress="4.1142375266645104e-05 -2.2532445598244522e-07 2.2810880295764946e-07 -2.2532445598244522e-07 4.0607465052744374e-05 1.4093716060870065e-07 2.2810880295764946e-07 1.4093716060870065e-07 4.045502646476962e-05" pbc="T T T"
V        1.73398007       1.22612726       3.00336836      -0.00002066       0.00003395       0.00003316
V        5.20199391       3.67834875       9.01006066       0.00008954       0.00000480      -0.00003499
Sn       0.00000041      -0.00000007       0.00000150       0.00000215      -0.00000397      -0.00000115
F        1.67593601       1.18508038       6.00670987      -0.00195043      -0.00134082      -0.00001685
F        5.26001504       3.71938224       6.00672132       0.00195563       0.00134766       0.00002252
F        4.36398664       1.18506752       4.45477027       0.00095479      -0.00139053      -0.00166626
F        2.57195314       3.71939086       7.55866148      -0.00098905       0.00136282       0.00166559
F        2.57194796       3.71938964       4.45477670      -0.00101842       0.00136317      -0.00166090
F        4.36399606       1.18506651       7.55865843       0.00097637      -0.00137718       0.00165881
