9
Lattice="6.128902424532161 1.549380155006505e-07 3.5385234315271243 2.0429675783832324 5.778384739940963 3.5385235052047515 -3.399641361442102e-08 6.619718121002407e-08 7.0770469219377885" Properties=species:S:1:pos:R:3:forces:R:3 energy=-33.05727005004883 free_energy=-33.05727005004883 stress="0.00035751773975789547 5.684112291959309e-09 1.3429608536341675e-08 5.684112291959309e-09 0.00035748485242947936 -1.6572784033996868e-08 1.3429608536341675e-08 -1.6572784033996868e-08 0.00035748668597079813" pbc="T T T"
V        2.04296711       1.44459612       3.53852327      -0.00000145       0.00000012      -0.00000070
V        6.12890294       4.33378901      10.61557058       0.00000131       0.00000115       0.00000091
Sn       0.00000001       0.00000008      -0.00000015      -0.00000118       0.00000129       0.00000134
Br       2.12160155       1.50019849       7.07704694       0.00383945       0.00271454       0.00000072
Br       6.05026869       4.27818620       7.07704676      -0.00383942      -0.00271504      -0.00000074
Br       5.06810194       1.50019863       5.37588402      -0.00191879       0.00271562       0.00332581
Br       3.10376780       4.27818619       8.77820989       0.00192015      -0.00271661      -0.00332785
Br       3.10376806       4.27818618       5.37588417       0.00191975      -0.00271560       0.00332598
Br       5.06810180       1.50019896       8.77820997      -0.00191977       0.00271457      -0.00332548
