9
Lattice="5.563486922857336 0.08178033779317372 2.8839254882142313 1.9488891465555147 3.9038505934114367 2.8126091817143184 -0.33582515361510185 -0.4235010616031634 6.249077408499321" Properties=species:S:1:pos:R:3:forces:R:3 energy=-58.48724365234375 free_energy=-58.48724365234375 stress="0.00018980278400704265 -3.5402277717366815e-05 -0.00013142020907253027 -3.5402277717366815e-05 -0.0001717434060992673 -0.0001279648713534698 -0.00013142020907253027 -0.0001279648713534698 2.9295695185282966e-06" pbc="T T T"
V        1.60394473       2.08158187       5.33362817       0.00230560       0.00155148       0.00244868
V        4.60711777       3.38218263      10.16527508       0.00224429       0.00581479       0.00041342
Ta      -0.28651945      -0.24052845      -0.50835540      -0.00301814      -0.00353789       0.00198632
F        1.39890234      -0.10524633       5.48950152       0.00246966      -0.00438432      -0.00172830
F        6.45767671       2.23773834       6.18837395      -0.00633544       0.00042784       0.00095826
F        5.36363576       1.79108227       2.82450379      -0.00051273       0.00367129      -0.00186315
F        2.07899451       1.68881144       7.52636844      -0.00054497      -0.00429118      -0.00445180
F        2.77649998       3.45028809       4.11408450       0.00076317       0.00430425      -0.00121605
F        4.70599243      -0.03768495       6.64877306       0.00262842      -0.00355673       0.00345343
