9
Lattice="6.211529757275849 2.1251687862882313e-07 3.586228246346262 2.070510001065921 5.856286927983226 3.5862284514017757 -6.428884122693656e-08 2.0568160301409785e-07 7.172456604044102" Properties=species:S:1:pos:R:3:forces:R:3 energy=-41.7939338684082 free_energy=-41.7939338684082 stress="0.00021105077757965773 -2.825841960429898e-08 -4.436490730341802e-09 -2.825841960429898e-08 0.0002111130888806656 3.6680962711699294e-09 -4.436490730341802e-09 3.6680962711699294e-09 0.00021111367095727473" pbc="T T T"
V        2.07051005       1.46407208       3.58622788       0.00000035       0.00000067      -0.00000099
V        6.21152931       4.39221561      10.75868533      -0.00000111       0.00000048       0.00000081
Ta      -0.00000001      -0.00000002       0.00000023       0.00000278       0.00000052       0.00000092
Br       2.06885627       1.46290244       7.17245661      -0.00161159      -0.00114051       0.00000060
Br       6.21318366       4.39338484       7.17245638       0.00160903       0.00113755      -0.00000028
Br       5.17710160       1.46290264       5.37791059       0.00080708      -0.00114110      -0.00139755
Br       3.10493823       4.39338444       8.96700279      -0.00080615       0.00114089       0.00139797
Br       3.10493823       4.39338461       5.37791071      -0.00080621       0.00114131      -0.00139821
Br       5.17710143       1.46290271       8.96700259       0.00080609      -0.00114003       0.00139666
