9
Lattice="5.970471779037263 4.3415250121380214e-08 3.4470531829982187 1.9901571218040943 5.629014833445026 3.447053492701625 -6.43683865767197e-08 3.337922873009032e-07 6.894106477485862" Properties=species:S:1:pos:R:3:forces:R:3 energy=-44.766143798828125 free_energy=-44.766143798828125 stress="-6.631317774008494e-06 3.963599226608494e-08 2.884523908619485e-08 3.963599226608494e-08 -6.6616958065424114e-06 3.60857654868596e-08 2.884523908619485e-08 3.60857654868596e-08 -6.6646557570493314e-06" pbc="T T T"
V        1.99015624       1.40725410       3.44705383      -0.00000293      -0.00000013      -0.00000112
V        5.97047276       4.22176069      10.34116185       0.00000557      -0.00000186       0.00000573
Ta       0.00000003      -0.00000038      -0.00000031      -0.00000387       0.00000137      -0.00000210
Cl       1.96746153       1.39120571       6.89410629      -0.00027156      -0.00019115      -0.00000229
Cl       5.99316654       4.23780975       6.89410580       0.00027364       0.00019217      -0.00000076
Cl       4.98674183       1.39120561       5.15092437       0.00013280      -0.00018632      -0.00023019
Cl       2.97388704       4.23780969       8.63728780      -0.00013438       0.00018960       0.00022972
Cl       2.97388791       4.23780992       5.15092498      -0.00013503       0.00018650      -0.00023240
Cl       4.98674127       1.39120560       8.63728798       0.00013581      -0.00019026       0.00023299
