9
Lattice="6.72883113054361 -8.376819432620084e-09 3.8848925279406776 2.2429437002909287 6.344002890219625 3.884892531391829 5.748563372623011e-09 8.291622674127463e-09 7.769785045924528" Properties=species:S:1:pos:R:3:forces:R:3 energy=-37.56764602661133 free_energy=-37.56764602661133 stress="-6.682473667751765e-06 7.890962550050062e-09 -3.4629219491932872e-09 7.890962550050062e-09 -6.687512723146938e-06 3.884495836103952e-09 -3.4629219491932872e-09 3.884495836103952e-09 -6.690400368825067e-06" pbc="T T T"
V        2.24294383       1.58600086       3.88489246       0.00000049       0.00000026      -0.00000059
V        6.72883097       4.75800215      11.65467743      -0.00000086       0.00000035      -0.00000002
Ta      -0.00000004       0.00000011       0.00000008       0.00000036       0.00000081       0.00000202
I        2.25589521       1.59515880       7.76978522       0.00068235       0.00048193       0.00000017
I        6.71587989       4.74884402       7.76978499      -0.00068283      -0.00048287       0.00000016
I        5.60088336       1.59515881       5.83855504      -0.00034149       0.00048245       0.00059165
I        3.37089131       4.74884407       9.70101511       0.00034265      -0.00048354      -0.00059246
I        3.37089125       4.74884392       5.83855502       0.00034152      -0.00048304       0.00059177
I        5.60088354       1.59515881       9.70101506      -0.00034215       0.00048365      -0.00059283
