9
Lattice="5.970470452617219 2.646990990962648e-07 3.4470532371859286 1.9901570180586154 5.6290138432606 3.4470533221277964 9.398041391366235e-09 1.1067749613268752e-07 6.894106458093972" Properties=species:S:1:pos:R:3:forces:R:3 energy=-44.76613998413086 free_energy=-44.76613998413086 stress="-2.6167551823164104e-06 -1.8758290920573018e-08 1.0513955928104224e-08 -1.8758290920573018e-08 -2.692467205633875e-06 -3.024500117021489e-08 1.0513955928104224e-08 -3.024500117021489e-08 -2.726690809140564e-06" pbc="T T T"
V        1.99015938       1.40725517       3.44705208       0.00000964       0.00000437      -0.00000310
V        5.97046972       4.22176291      10.34115798      -0.00000082       0.00000864      -0.00000768
Ta      -0.00000008      -0.00000051       0.00000052      -0.00000102      -0.00000012      -0.00000687
Cl       1.96747306       1.39121261       6.89410683      -0.00042927      -0.00030732       0.00000233
Cl       5.99315486       4.23780021       6.89410746       0.00043023       0.00030327       0.00000357
Cl       4.98673374       1.39121273       5.15093482       0.00021079      -0.00030345      -0.00036883
Cl       2.97389317       4.23780042       8.63727846      -0.00021601       0.00030255       0.00037414
Cl       2.97389317       4.23779997       5.15093507      -0.00021541       0.00030172      -0.00037432
Cl       4.98673313       1.39121327       8.63727874       0.00021183      -0.00030959       0.00037986
