9
Lattice="6.211729417640363 -1.3775697513936227e-07 3.5863434312894182 2.070576359281953 5.85647436571669 3.5863434025137244 -1.0425729794521493e-07 -1.08963970166553e-07 7.172687043157749" Properties=species:S:1:pos:R:3:forces:R:3 energy=-41.793922424316406 free_energy=-41.793922424316406 stress="0.00023878918727859855 1.4823991811852011e-08 3.336081633165122e-08 1.4823991811852011e-08 0.00023878287174738944 -2.5221778443551557e-08 3.336081633165122e-08 -2.5221778443551557e-08 0.0002387811546213925" pbc="T T T"
V        2.07057601       1.46411859       3.58634245      -0.00000141      -0.00000031      -0.00000274
V        6.21172976       4.39235546      10.75903044       0.00000037       0.00000054      -0.00000044
Ta      -0.00000011      -0.00000012       0.00000034      -0.00000120       0.00000459      -0.00000022
Br       2.06888697       1.46292357       7.17268712      -0.00182199      -0.00128803       0.00000036
Br       6.21341876       4.39355054       7.17268702       0.00182074       0.00128719       0.00000027
Br       5.17728601       1.46292382       5.37805210       0.00091076      -0.00128576      -0.00157553
Br       3.10501960       4.39355021       8.96732192      -0.00090891       0.00128412       0.00157410
Br       3.10501983       4.39355056       5.37805223      -0.00091055       0.00128782      -0.00157654
Br       5.17728583       1.46292378       8.96732184       0.00091237      -0.00129011       0.00158095
