9
Lattice="5.151525527808909 -0.010047618795677721 2.9537321670846866 1.786222935173617 4.949021244879127 2.819419812845093 -0.030878596579884995 -0.1876964350599788 5.964708213045414" Properties=species:S:1:pos:R:3:forces:R:3 energy=-58.364959716796875 free_energy=-58.364959716796875 stress="6.800061964895576e-05 0.00018253106100019068 -0.00015499169239774346 0.00018253106100019068 0.00017108075553551316 -0.00026806394453160465 -0.00015499169239774346 -0.00026806394453160465 -0.0003080846800003201" pbc="T T T"
V       -1.16009675       2.12095371       2.79406115      -0.00141242      -0.00005157      -0.00265181
V        4.68068149       4.49376807      10.03039733      -0.00259313      -0.00222831       0.00283582
Ta       0.67818525      -0.26379510      -0.03829257      -0.00135225       0.00035567      -0.00239357
F        2.09526336       0.91170821       5.61724576       0.00421041      -0.00065088       0.00052387
F        5.79691415       3.59947425       5.56984104       0.00295361      -0.00013801       0.00385180
F        4.83057514       0.84269039       4.15668439       0.00332624      -0.00095803       0.00188041
F        3.02309244       3.37974460       7.26507069      -0.00389180       0.00096363       0.00066531
F        2.93674504       3.30163202       4.16281650       0.00347134       0.00014150      -0.00176048
F        4.74610512       0.61889048       7.39365239      -0.00471207       0.00256559      -0.00295147
