9
Lattice="6.832144686274741 -5.5309407490817844e-08 3.94454056194337 2.277381516126423 6.441407543932014 3.944540551237461 3.5403274158519844e-08 1.1921915248313277e-08 7.889081062566451" Properties=species:S:1:pos:R:3:forces:R:3 energy=-26.9517879486084 free_energy=-26.9517879486084 stress="-3.57306853402406e-05 -1.786073156040402e-08 -4.003826603593552e-09 -1.786073156040402e-08 -3.5725159250432625e-05 2.038959667771678e-09 -4.003826603593552e-09 2.038959667771678e-09 -3.57140670530498e-05" pbc="T T T"
V        2.27738144       1.61035167       3.94454020      -0.00000038      -0.00000058      -0.00000044
V        6.83214480       4.83105572      11.83362160       0.00000077       0.00000033       0.00000059
Te       0.00000021       0.00000019       0.00000056       0.00000004      -0.00000091      -0.00000557
I        2.41744506       1.70939174       7.88908120       0.00065268       0.00046147       0.00000032
I        6.69208099       4.73201590       7.88908118      -0.00065222      -0.00046132      -0.00000013
I        5.62342216       1.70939155       6.03810922      -0.00032602       0.00046170       0.00056509
I        3.48610418       4.73201558       9.74005260       0.00032375      -0.00045908      -0.00056186
I        3.48610396       4.73201596       6.03810942       0.00032596      -0.00046091       0.00056516
I        5.62342216       1.70939171       9.74005269      -0.00032459       0.00045933      -0.00056314
