9
Lattice="5.929686886014128 2.1759316731150007e-08 3.4235064514765825 1.9765622893066168 5.590562530781168 3.4235064974561253 5.7392782263797956e-08 9.689601772335471e-08 6.847012803545977" Properties=species:S:1:pos:R:3:forces:R:3 energy=-33.02056884765625 free_energy=-33.02056884765625 stress="-9.716713066154625e-06 -2.225534956323827e-08 5.0078567959133125e-09 -2.225534956323827e-08 -9.72283032751875e-06 -2.9900033560181782e-09 5.0078567959133125e-09 -2.9900033560181782e-09 -9.642717486713082e-06" pbc="T T T"
V        1.97656282       1.39764166       3.42350697       0.00000212       0.00000260       0.00000096
V        5.92968722       4.19292159      10.27052106       0.00000027       0.00000033       0.00000803
Te       0.00000003       0.00000003       0.00000018      -0.00000103       0.00000048      -0.00000163
Cl       2.03975931       1.44232764       6.84701233       0.00085294       0.00060311      -0.00000187
Cl       5.86648994       4.14823468       6.84701220      -0.00085276      -0.00060336      -0.00000312
Cl       4.90980727       1.44232836       5.18998979      -0.00042605       0.00060257       0.00073335
Cl       2.99644168       4.14823451       8.50403524       0.00042312      -0.00060131      -0.00073415
Cl       2.99644200       4.14823452       5.18998988       0.00042537      -0.00060281       0.00073293
Cl       4.90980665       1.44232756       8.50403535      -0.00042379       0.00059851      -0.00073466
