9
Lattice="6.245846293136869 -1.4925069517381136e-08 3.6060411949287308 2.0819487619418426 5.888640418402938 3.6060411747774004 3.18439386138456e-08 -2.1631754375502702e-09 7.21208233470213" Properties=species:S:1:pos:R:3:forces:R:3 energy=-30.281654357910156 free_energy=-30.281654357910156 stress="0.0001217577446368523 -5.123709012622157e-09 2.848324687221293e-09 -5.123709012622157e-09 0.00012177122698631138 -7.623720321703331e-09 2.848324687221293e-09 -7.623720321703331e-09 0.00012175529263913631" pbc="T T T"
V        2.08194888       1.47215991       3.60604084       0.00000086      -0.00000050      -0.00000026
V        6.24584659       4.41648047      10.81812325       0.00000209       0.00000055      -0.00000191
Te      -0.00000014       0.00000000       0.00000015       0.00000044       0.00000048      -0.00000085
Br       2.18366235       1.54408247       7.21208199       0.00118370       0.00083770      -0.00000093
Br       6.14413285       4.34455791       7.21208230      -0.00118428      -0.00083764       0.00000100
Br       5.15401507       1.54408242       5.49714857      -0.00059300       0.00083691       0.00102648
Br       3.17378006       4.34455763       8.92701656       0.00059137      -0.00083718      -0.00102542
Br       3.17378000       4.34455818       5.49714874       0.00059160      -0.00083737       0.00102668
Br       5.15401483       1.54408257       8.92701645      -0.00059281       0.00083712      -0.00102492
