9
Lattice="5.751539237504585 7.131062613669542e-08 3.3206527183513965 1.9171797961689996 5.42260342775076 3.3206527476198215 -3.42290531866507e-08 1.1642731730271056e-08 6.641305495989315" Properties=species:S:1:pos:R:3:forces:R:3 energy=-42.509761810302734 free_energy=-42.509761810302734 stress="-0.0003616111644078046 3.343828325341747e-08 1.0094240110447572e-08 3.343828325341747e-08 -0.0003615381137933582 5.243208089922291e-10 1.0094240110447572e-08 5.243208089922291e-10 -0.0003615677997004241" pbc="T T T"
V        1.91717933       1.35565062       3.32065141      -0.00000266       0.00000108      -0.00000829
V        5.75153888       4.06695226       9.96195668      -0.00000137      -0.00000106      -0.00000779
Ti      -0.00000003       0.00000017       0.00000023      -0.00000033      -0.00000188      -0.00000060
Cl       1.93055278       1.36510735       6.64130626       0.00494619       0.00349630      -0.00000006
Cl       5.73816620       4.05749646       6.64130641      -0.00494628      -0.00349715      -0.00000067
Cl       4.78626309       1.36510705       4.99256108      -0.00247116       0.00349855       0.00428729
Cl       2.88245666       4.05749565       8.29005043       0.00247258      -0.00349262      -0.00427793
Cl       2.88245611       4.05749651       4.99256095       0.00247473      -0.00349744       0.00428648
Cl       4.78626296       1.36510809       8.29005042      -0.00247147       0.00349423      -0.00427839
