9
Lattice="6.651181661292778 6.446470628826713e-08 3.84006147037993 2.2170606356866784 6.2707940439619625 3.840061433756566 6.671493192726747e-08 2.320305627123611e-09 7.680122825206196" Properties=species:S:1:pos:R:3:forces:R:3 energy=-35.062232971191406 free_energy=-35.062232971191406 stress="0.0001781642931746319 -1.1151372270035154e-08 3.48948114847758e-09 -1.1151372270035154e-08 0.0001781635801307857 -2.265069687368282e-09 3.48948114847758e-09 -2.265069687368282e-09 0.0001781766040949151" pbc="T T T"
V        2.21706061       1.56769845       3.84006159      -0.00000027      -0.00000018       0.00000095
V        6.65118184       4.70309582      11.52018400      -0.00000003       0.00000062      -0.00000095
Ti      -0.00000002       0.00000008      -0.00000010      -0.00000015       0.00000033       0.00000034
I        2.22634528       1.57426376       7.68012264       0.00103344       0.00073029       0.00000048
I        6.64189705       4.69652998       7.68012282      -0.00103337      -0.00073059       0.00000054
I        5.53800892       1.57426406       5.76813320      -0.00051623       0.00072904       0.00089322
I        3.33023320       4.69653049       9.59211297       0.00051677      -0.00073008      -0.00089464
I        3.33023339       4.69652984       5.76813301       0.00051591      -0.00072926       0.00089353
I        5.53800920       1.57426399       9.59211282      -0.00051605       0.00072986      -0.00089344
