9
Lattice="6.136856952220897 8.371087105171013e-08 3.5431160574437306 2.0456190196270065 5.785884493521601 3.543116132562787 5.506402404919895e-08 1.3093779631858535e-07 7.086232019513774" Properties=species:S:1:pos:R:3:forces:R:3 energy=-40.70002365112305 free_energy=-40.70002365112305 stress="0.00025205756537616253 -2.052430048138376e-08 -1.3000457599332549e-08 -2.052430048138376e-08 0.00025207578437402844 1.0652308368719332e-08 -1.3000457599332549e-08 1.0652308368719332e-08 0.0002520867856219411" pbc="T T T"
V        2.04561876       1.44647008       3.54311631      -0.00000062      -0.00000355       0.00000032
V        6.13685652       4.33941362      10.62934747      -0.00000178       0.00000053      -0.00000031
W        0.00000014       0.00000007       0.00000020       0.00000062      -0.00000013      -0.00000497
Br       2.06570137       1.46067153       7.08623218       0.00031091       0.00021900      -0.00000066
Br       6.11677450       4.32521358       7.08623236      -0.00030996      -0.00021827       0.00000033
Br       5.10400644       1.46067177       5.33206584      -0.00015444       0.00021826       0.00026705
Br       3.07846996       4.32521315       8.84039826       0.00015312      -0.00021538      -0.00026417
Br       3.07846997       4.32521345       5.33206600       0.00015487      -0.00021783       0.00026808
Br       5.10400649       1.46067162       8.84039819      -0.00015267       0.00021733      -0.00026567
