9
Lattice="5.805933643553485 4.8676955356484703e-08 3.352057224749213 1.9353112824522238 5.473886600032313 3.3520571865725466 6.504884947964903e-08 -7.602217440009177e-10 6.704114336830538" Properties=species:S:1:pos:R:3:forces:R:3 energy=-43.74366760253906 free_energy=-43.74366760253906 stress="0.00032972951885312796 2.0327773242456715e-08 8.589296385252965e-09 2.0327773242456715e-08 0.00032974121859297156 3.484838018152914e-08 8.589296385252965e-09 3.484838018152914e-08 0.00032967887818813324" pbc="T T T"
V        1.93531227       1.36847249       3.35205737       0.00000347       0.00000305      -0.00000037
V        5.80593455       4.10541614      10.05617091       0.00000252       0.00000672      -0.00000619
W       -0.00000011      -0.00000009       0.00000010       0.00000054       0.00000050      -0.00000090
Cl       1.95587560       1.38301263       6.70411451       0.00106952       0.00075375       0.00000063
Cl       5.78536925       4.09087332       6.70411472      -0.00106744      -0.00075691       0.00000330
Cl       4.82799519       1.38301236       5.04589520      -0.00053960       0.00075344       0.00092714
Cl       2.91324867       4.09087365       8.36233374       0.00053318      -0.00075693      -0.00092550
Cl       2.91324906       4.09087360       5.04589495       0.00053359      -0.00075895       0.00092860
Cl       4.82799555       1.38301252       8.36233359      -0.00053579       0.00075524      -0.00092669
