9
Lattice="4.822033977489036 4.6250476937752095e-07 2.7840038182881917 1.6073450505086913 4.546258480314371 2.7840038957245725 -2.0114414073557812e-07 -4.739050216631577e-08 5.5680079849681485" Properties=species:S:1:pos:R:3:forces:R:3 energy=-50.056495666503906 free_energy=-50.056495666503906 stress="6.275314080994576e-05 -4.3297904994687997e-07 1.010834260739557e-08 -4.3297904994687997e-07 6.25249303993769e-05 -7.0053522982505e-09 1.010834260739557e-08 -7.0053522982505e-09 6.171457789605483e-05" pbc="T T T"
V        1.60733703       1.13658829       2.78399280      -0.00003355       0.00012983      -0.00006091
V        4.82204741       3.40972264       8.35200048       0.00006350       0.00015129      -0.00006377
W       -0.00000004      -0.00000028      -0.00000016       0.00000137      -0.00000712      -0.00000690
F        1.67014737       1.18097019       5.56801370      -0.00168151      -0.00122043       0.00002836
F        4.75923969       3.36527304       5.56801360       0.00173262       0.00113410       0.00002913
F        3.98696014       1.18095724       4.23040580       0.00084074      -0.00127199      -0.00140387
F        2.44241561       3.36527992       6.90562346      -0.00086963       0.00116357       0.00148907
F        2.44241344       3.36528112       4.23039513      -0.00087802       0.00117102      -0.00146165
F        3.98695493       1.18096293       6.90561797       0.00082475      -0.00125027       0.00145116
