9
Lattice="6.656626284152135 7.117548910576339e-08 3.8432048258125464 2.218875461284354 6.275927347634286 3.843204884479258 -5.748341637308123e-08 3.12048620272014e-08 7.686409751189281" Properties=species:S:1:pos:R:3:forces:R:3 energy=-36.842002868652344 free_energy=-36.842002868652344 stress="7.219301187433302e-05 3.51381257424066e-09 -2.3222874290240725e-08 3.51381257424066e-09 7.21814067219384e-05 2.0364876007761268e-08 -2.3222874290240725e-08 2.0364876007761268e-08 7.218850078061223e-05" pbc="T T T"
V        2.21887534       1.56898174       3.84320487       0.00000005      -0.00000062       0.00000043
V        6.65662613       4.70694566      11.52961470       0.00000010       0.00000083      -0.00000050
W        0.00000043      -0.00000005      -0.00000004      -0.00000317      -0.00000019      -0.00000145
I        2.23074542       1.57737519       7.68640960       0.00042662       0.00030120       0.00000022
I        6.64475619       4.69855251       7.68640979      -0.00042423      -0.00029988      -0.00000002
I        5.54125351       1.57737501       5.77508679      -0.00021167       0.00029995       0.00036747
I        3.33424775       4.69855242       9.59773251       0.00021201      -0.00030059      -0.00036727
I        3.33424804       4.69855243       5.77508681       0.00021417      -0.00030227       0.00037057
I        5.54125386       1.57737492       9.59773275      -0.00021392       0.00030164      -0.00036947
