9
Lattice="6.1934530559053425 -3.84816027343732e-08 3.5757917669903785 2.064484274950907 5.839243874242333 3.575791837548489 -1.6821941054717342e-07 -3.25334003554161e-08 7.151583825345268" Properties=species:S:1:pos:R:3:forces:R:3 energy=-40.57720947265625 free_energy=-40.57720947265625 stress="6.15330136497505e-05 2.3138690963264708e-08 1.1161832347283962e-08 2.3138690963264708e-08 6.152079004095867e-05 -9.645415133263668e-09 1.1161832347283962e-08 -9.645415133263668e-09 6.149990804260597e-05" pbc="T T T"
V        2.06448374       1.45981095       3.57579183      -0.00000180       0.00000051      -0.00000056
V        6.19345212       4.37943230      10.72737507      -0.00000269      -0.00000228      -0.00000113
Zr       0.00000022       0.00000003      -0.00000001       0.00000167      -0.00000129       0.00000115
Br       2.11116889       1.49282213       7.15158407       0.00201300       0.00142266      -0.00000086
Br       6.14676841       4.34642209       7.15158388      -0.00201392      -0.00142427      -0.00000029
Br       5.13786872       1.49282196       5.40411778      -0.00100785       0.00142731       0.00174776
Br       3.12006899       4.34642179       8.89904963       0.00100946      -0.00142400      -0.00174537
Br       3.12006888       4.34642189       5.40411776       0.00100811      -0.00142457       0.00174415
Br       5.13786858       1.49282211       8.89904956      -0.00100595       0.00142609      -0.00174488
