9
Lattice="5.377242727260926 2.9160824397122652e-05 3.1045571721796414 1.7924444362659635 5.069709981025 3.10455249437281 7.610120309312729e-05 4.808254474835559e-05 6.208982533467061" Properties=species:S:1:pos:R:3:forces:R:3 energy=-54.754058837890625 free_energy=-54.754058837890625 stress="-7.023402577033266e-05 1.76508240201656e-06 -7.852881026337855e-06 1.76508240201656e-06 -7.43527416489087e-05 -5.739268090110272e-06 -7.852881026337855e-06 -5.739268090110272e-06 -6.723502156091854e-05" pbc="T T T"
V        1.79295277       1.26781362       3.10293729       0.00033370       0.00012175      -0.00101642
V        5.37757966       3.80222781       9.31388571       0.00030445      -0.00003970      -0.00006560
Zr      -0.00004047      -0.00003221       0.00005387       0.00018563       0.00014113      -0.00026248
F        1.69311734       1.19739416       6.20962907       0.00061774       0.00057656       0.00081426
F        5.47639044       3.87252963       6.20899338      -0.00050133      -0.00028354       0.00000827
F        4.53077014       1.19732999       4.57100021      -0.00018758       0.00032926       0.00053260
F        2.63878453       3.87211866       7.84740586       0.00001171      -0.00107297      -0.00029966
F        2.63907384       3.87258650       4.57104838       0.00014135      -0.00025591       0.00057089
F        4.53040390       1.19728116       7.84742518      -0.00090554       0.00048333      -0.00028190
