9
Lattice="6.790534889381088 8.08930972067822e-08 3.920516996593165 2.263511722962676 6.402177563162441 3.920516967317609 -2.155250424305295e-08 -5.109499213537245e-08 7.841034030516388" Properties=species:S:1:pos:R:3:forces:R:3 energy=-36.3957405090332 free_energy=-36.3957405090332 stress="0.000245049741351977 6.3015161977375556e-09 -4.490733118700518e-09 6.3015161977375556e-09 0.0002450284082442522 4.366695893764927e-09 -4.490733118700518e-09 4.366695893764927e-09 0.00024503088206984103" pbc="T T T"
V        2.26351158       1.60054446       3.92051704       0.00000060       0.00000003      -0.00000029
V        6.79053481       4.80163313      11.76155110      -0.00000023       0.00000061      -0.00000009
Zr       0.00000012      -0.00000008      -0.00000027       0.00000038       0.00000075       0.00000120
I        2.31363583       1.63598723       7.84103417       0.00153030       0.00108152       0.00000017
I        6.74041080       4.76619034       7.84103387      -0.00153077      -0.00108229       0.00000006
I        5.63371716       1.63598734       5.92418387      -0.00076546       0.00108247       0.00132563
I        3.42032941       4.76619020       9.75788426       0.00076568      -0.00108292      -0.00132607
I        3.42032920       4.76619028       5.92418372       0.00076495      -0.00108363       0.00132627
I        5.63371742       1.63598743       9.75788420      -0.00076543       0.00108350      -0.00132688
