9
Lattice="5.112432712827562 2.267038123665043e-07 2.951664462375539 1.7041444586965657 4.820047537853505 2.951664449646742 -4.256845653745272e-08 -4.568996069352207e-08 5.903328998481816" Properties=species:S:1:pos:R:3:forces:R:3 energy=-45.349586486816406 free_energy=-45.349586486816406 stress="-9.781705739442259e-05 -4.823581534196819e-08 2.0947888756950306e-08 -4.823581534196819e-08 -9.787686576601118e-05 1.3818755029149088e-08 2.0947888756950306e-08 1.3818755029149088e-08 -9.781709377421066e-05" pbc="T T T"
W        1.70414426       1.20501233       2.95166415      -0.00000150       0.00000104      -0.00000044
W        5.11243265       3.61503549       8.85499304      -0.00000100      -0.00000115      -0.00000066
As       0.00000007      -0.00000004       0.00000029      -0.00000371      -0.00000343      -0.00000216
S        1.82594228       1.29113637       5.90332883      -0.00112033      -0.00079107       0.00000133
S        4.99063449       3.52891145       5.90332888       0.00112736       0.00079685      -0.00000080
S        4.19946153       1.29113611       4.53297747       0.00056028      -0.00079691      -0.00097144
S        2.61711566       3.52891125       7.27368095      -0.00056297       0.00079530       0.00097495
S        2.61711590       3.52891135       4.53297701      -0.00056028       0.00079322      -0.00097317
S        4.19946175       1.29113667       7.27368103       0.00056157      -0.00079352       0.00097221
