9
Lattice="4.337811670917835 3.407195883029649e-08 2.504436749878869 1.4459372740688416 4.089728119133248 2.5044367181715743 2.987264438346036e-08 -1.771019170816636e-08 5.008873448016811" Properties=species:S:1:pos:R:3:forces:R:3 energy=-55.06157302856445 free_energy=-55.06157302856445 stress="0.0005014334456063807 2.773517593368524e-08 -4.6960138888607617e-08 2.773517593368524e-08 0.0005014234338887036 1.7660823914411594e-08 -4.6960138888607617e-08 1.7660823914411594e-08 0.0005012439214624465" pbc="T T T"
W        1.44593796       1.02243282       2.50443782       0.00001364       0.00001948       0.00002053
W        4.33781104       3.06729751       7.51330990      -0.00001252       0.00002869      -0.00000331
As      -0.00000007      -0.00000041      -0.00000026       0.00000314      -0.00000026       0.00001043
O        1.45971157       1.03217092       5.00887350       0.00672364       0.00473368      -0.00000477
O        4.32403778       3.05755658       5.00887338      -0.00672042      -0.00475156      -0.00000097
O        3.60795563       1.03217151       3.76858322      -0.00336623       0.00474203       0.00581145
O        2.17579311       3.05755635       6.24916358       0.00336379      -0.00476027      -0.00581670
O        2.17579241       3.05755598       3.76858344       0.00335252      -0.00475794       0.00581014
O        3.60795639       1.03217129       6.24916309      -0.00335759       0.00474626      -0.00582600
