9
Lattice="5.454710854250717 -1.8262478287250808e-07 3.149278667171846 1.8182367791296417 5.142750352811521 3.1492786673571294 -5.5798652856736766e-08 -3.922867827525675e-08 6.298557430989812" Properties=species:S:1:pos:R:3:forces:R:3 energy=-40.655731201171875 free_energy=-40.655731201171875 stress="-8.968477777671069e-05 -4.582267365549342e-08 9.800545264226912e-09 -4.582267365549342e-08 -8.96738565643318e-05 -1.4699340411539197e-08 9.800545264226912e-09 -1.4699340411539197e-08 -8.964291919255629e-05" pbc="T T T"
W        1.81823721       1.28568726       3.14927830       0.00000094      -0.00000409      -0.00000142
W        5.45471096       3.85706276       9.44783575       0.00000109       0.00000288       0.00000032
As      -0.00000006      -0.00000021       0.00000030      -0.00000149       0.00000340      -0.00000495
Se       1.98464091       1.40335390       6.29855716      -0.00466892      -0.00329599      -0.00000247
Se       5.28830613       3.73939649       6.29855798       0.00466797       0.00329575       0.00000244
Se       4.46238987       1.40335316       4.86802891       0.00233068      -0.00329912      -0.00404340
Se       2.81055840       3.73939692       7.72908571      -0.00233257       0.00330168       0.00404480
Se       2.81055778       3.73939752       4.86802936      -0.00233041       0.00330156      -0.00404042
Se       4.46238910       1.40335284       7.72908565       0.00233278      -0.00330618       0.00404465
