9
Lattice="5.447927920627385 -1.4315757204468154e-09 3.1453627018824903 1.8159760069648276 5.1363555755503745 3.145362641655527 5.567491012198402e-08 -3.4394569081532205e-08 6.290725307333229" Properties=species:S:1:pos:R:3:forces:R:3 energy=-39.92027282714844 free_energy=-39.92027282714844 stress="-4.505901597440243e-05 6.045180356295532e-09 2.0902453101712126e-09 6.045180356295532e-09 -4.4967953726882115e-05 3.2479189115974805e-08 2.0902453101712126e-09 3.2479189115974805e-08 -4.5007131120655686e-05" pbc="T T T"
W        1.81597571       1.28408898       3.14536305      -0.00000004       0.00000055       0.00000185
W        5.44792823       3.85226665       9.43608872      -0.00000002       0.00000010       0.00000274
Ga      -0.00000005      -0.00000021       0.00000023      -0.00000157       0.00000416      -0.00000008
Se       1.94494855       1.37528611       6.29072509       0.00018236       0.00012875      -0.00000053
Se       5.31895544       3.76106954       6.29072477      -0.00018501      -0.00012769      -0.00000280
Se       4.47545398       1.37528636       4.82973750      -0.00008875       0.00012776       0.00015613
Se       2.78845015       3.76106920       7.75171295       0.00009102      -0.00013044      -0.00016004
Se       2.78845033       3.76106928       4.82973723       0.00009152      -0.00013261       0.00015849
Se       4.47545362       1.37528623       7.75171295      -0.00008956       0.00012997      -0.00015604
