9
Lattice="6.141052195498944 -3.891876208411051e-08 3.545538205820353 2.0470173739193003 5.789839509010711 3.545538184840686 -1.8384910545290906e-08 -3.8694878023572594e-08 7.091076443484346" Properties=species:S:1:pos:R:3:forces:R:3 energy=-35.35954284667969 free_energy=-35.35954284667969 stress="0.00018326635472476482 -9.256150512726435e-09 1.3232616780101125e-08 -9.256150512726435e-09 0.00018327153520658612 -1.0232394487275087e-08 1.3232616780101125e-08 -1.0232394487275087e-08 0.00018327991710975766" pbc="T T T"
W        2.04701775       1.44745989       3.54553777       0.00000388      -0.00000066      -0.00000512
W        6.14105186       4.34237963      10.63661355      -0.00000395      -0.00000092      -0.00000557
Ga      -0.00000017      -0.00000023       0.00000015       0.00000118       0.00000065      -0.00000025
Te       2.16080739       1.52792170       7.09107665      -0.00401570      -0.00283905       0.00000338
Te       6.02726193       4.26191797       7.09107666       0.00401421       0.00284084       0.00000388
Te       5.06064842       1.52792153       5.41685272       0.00200816      -0.00284088      -0.00347778
Te       3.12742144       4.26191785       8.76530054      -0.00200488       0.00283950       0.00347886
Te       3.12742136       4.26191779       5.41685269      -0.00200790       0.00283944      -0.00347907
Te       5.06064819       1.52792163       8.76530067       0.00200498      -0.00283894       0.00348184
