9
Lattice="4.333704813778952 5.322709821122469e-08 2.502065570681926 1.4445683000236889 4.085856111867674 2.502065607780635 -2.056669873353034e-08 3.0893608492126764e-08 5.004131176986421" Properties=species:S:1:pos:R:3:forces:R:3 energy=-51.02288818359375 free_energy=-51.02288818359375 stress="0.0002767008845694363 -2.230368600919519e-08 1.6605585528850497e-07 -2.230368600919519e-08 0.0002765262615866959 1.2618123435004236e-07 1.6605585528850497e-07 1.2618123435004236e-07 0.0002765717508736998" pbc="T T T"
W        1.44456807       1.02146636       2.50206108      -0.00000363       0.00005702      -0.00012306
W        4.33370383       3.06439397       7.50619142      -0.00002528       0.00005443      -0.00014206
Ga      -0.00000007       0.00000008      -0.00000039       0.00000058       0.00000913      -0.00000113
O        1.50285218       1.06267540       5.00413273      -0.00203627      -0.00147271       0.00004610
O        4.27542200       3.02317912       5.00413430       0.00205886       0.00142980       0.00007593
O        3.58228017       1.06267511       3.80357496       0.00104663      -0.00148684      -0.00172782
O        2.19599419       3.02317825       6.20469105      -0.00101265       0.00140750       0.00181651
O        2.19599382       3.02317967       3.80357359      -0.00103146       0.00144219      -0.00175399
O        3.58227835       1.06267689       6.20469088       0.00100270      -0.00144076       0.00181019
