9
Lattice="3.9790517430490224 -2.4211109710638573e-08 2.297306659598363 1.3263505633660562 3.751485987214668 2.2973066506329753 -1.3786003586968164e-08 -2.072848641688113e-08 4.594613343074785" Properties=species:S:1:pos:R:3:forces:R:3 energy=-53.54127883911133 free_energy=-53.54127883911133 stress="0.00013539096107706428 -1.5384628682113544e-07 -2.162643397696229e-09 -1.5384628682113544e-07 0.0001355422573396936 -8.864973644051588e-09 -2.162643397696229e-09 -8.864973644051588e-09 0.00013524599489755929" pbc="T T T"
W        1.32635244       0.93787282       2.29730593       0.00004256       0.00002912      -0.00001574
W        3.97905015       2.81361397       6.89191977      -0.00004073      -0.00001537      -0.00000744
N        0.00000111       0.00000095       0.00000004       0.00003338       0.00003128       0.00001118
O        1.32124340       0.93425987       4.59461357      -0.00110027      -0.00078231       0.00000596
O        3.98415775       2.81722488       4.59461345       0.00106388       0.00075153       0.00000190
O        3.31842943       0.93426069       3.44153704       0.00053591      -0.00076079      -0.00095466
O        1.98697291       2.81722462       5.74768984      -0.00053105       0.00074607       0.00095543
O        1.98697290       2.81722499       3.44153708      -0.00053085       0.00075608      -0.00095654
O        3.31842910       0.93426098       5.74768986       0.00052769      -0.00075561       0.00095814
