9
Lattice="4.645222261594849 4.1753597673352485e-07 2.6819208741645806 1.5484077597690333 4.379558684584367 2.681920968421492 1.7320660586671142e-07 2.3791622289954948e-07 5.36384144832655" Properties=species:S:1:pos:R:3:forces:R:3 energy=-47.43904113769531 free_energy=-47.43904113769531 stress="0.00021580938482657075 -8.600931664659583e-07 -2.6096512328876997e-07 -8.600931664659583e-07 0.00021443840523716062 -2.355453716518241e-07 -2.6096512328876997e-07 -2.355453716518241e-07 0.00021336498321034014" pbc="T T T"
Y        1.54839389       1.09488956       2.68192128      -0.00023213      -0.00000584       0.00000620
Y        4.64522486       3.28466975       8.04576321       0.00006123      -0.00000594       0.00002472
As      -0.00000111      -0.00000117       0.00000186      -0.00002383      -0.00000385       0.00000459
F        1.73181778       1.22458443       5.36384133      -0.00053835      -0.00032264       0.00000151
F        4.46181226       3.15497372       5.36383981       0.00055891       0.00030172      -0.00002257
F        3.77932090       1.22458292       4.18172590       0.00038126      -0.00036299      -0.00036836
F        2.41431494       3.15497953       6.54595910      -0.00029957       0.00039870       0.00038850
F        2.41431689       3.15497837       4.18172398      -0.00027999       0.00039268      -0.00039893
F        3.77932027       1.22458036       6.54595674       0.00037247      -0.00039107       0.00036401
