9
Lattice="4.645424167215463 2.142907896051665e-07 2.682036944934313 1.5484747935368268 4.379748841735453 2.682037171666037 -4.136326151816e-07 -1.479392204452119e-08 5.364074606301331" Properties=species:S:1:pos:R:3:forces:R:3 energy=-47.43903350830078 free_energy=-47.43903350830078 stress="0.0002726711391005665 -4.2394754018459935e-07 6.079603167563619e-07 -4.2394754018459935e-07 0.0002714175498113036 4.72441342935781e-07 6.079603167563619e-07 4.72441342935781e-07 0.00027130573289468884" pbc="T T T"
Y        1.54847500       1.09494386       2.68203940      -0.00001695       0.00011027       0.00004632
Y        4.64543124       3.28481605       8.04610609       0.00013184       0.00005923      -0.00009516
As       0.00000061       0.00000179      -0.00000037       0.00001421       0.00001827      -0.00000906
F        1.73207213       1.22476525       5.36407244      -0.00292420      -0.00200999      -0.00003745
F        4.46182559       3.15498546       5.36407790       0.00292242       0.00200826       0.00006267
F        3.77938576       1.22475659       4.18206144       0.00142807      -0.00212204      -0.00245363
F        2.41450842       3.15498334       6.54609213      -0.00149480       0.00200802       0.00251377
F        2.41450415       3.15498329       4.18205860      -0.00156051       0.00199026      -0.00249070
F        3.77939123       1.22476042       6.54608752       0.00150025      -0.00206178       0.00246221
