9
Lattice="6.831899065153213 -7.081603824812771e-08 3.9443988066402618 2.2772996037155346 6.441176432791378 3.9443988376489028 -4.758931170715159e-08 4.326948529576021e-09 7.88879769570761" Properties=species:S:1:pos:R:3:forces:R:3 energy=-30.47403335571289 free_energy=-30.47403335571289 stress="0.00011204320617252961 7.858012018857607e-09 9.312755899770764e-09 7.858012018857607e-09 0.00011204712791368365 -5.45510037142094e-09 9.312755899770764e-09 -5.45510037142094e-09 0.0001120385859394446" pbc="T T T"
Y        2.27729953       1.61029447       3.94439822      -0.00000019       0.00000187      -0.00000217
Y        6.83189873       4.83088188      11.83319729      -0.00000103      -0.00000010       0.00000320
As       0.00000016       0.00000007      -0.00000002       0.00000019       0.00000003      -0.00000021
I        2.33862747       1.65365957       7.88879785      -0.00017041      -0.00012057       0.00000121
I        6.77057133       4.78751674       7.88879725       0.00017080       0.00011964      -0.00000109
I        5.66258533       1.65365944       5.96970950       0.00008488      -0.00011937      -0.00014737
I        3.44661328       4.78751695       9.80788598      -0.00008385       0.00011823       0.00014633
I        3.44661350       4.78751720       5.96970968      -0.00008464       0.00012086      -0.00014758
I        5.66258514       1.65365915       9.80788556       0.00008431      -0.00012064       0.00014767
