9
Lattice="5.990274894016827 -1.3576421847338527e-07 3.458486857373534 1.9967581069085518 5.647685402437175 3.4584869666612326 -2.552172509043073e-07 -4.6616241013245676e-08 6.916974156796227" Properties=species:S:1:pos:R:3:forces:R:3 energy=-37.621463775634766 free_energy=-37.621463775634766 stress="3.400255081942305e-05 1.4112774060492939e-08 2.612326177597879e-08 1.4112774060492939e-08 3.3994274417636916e-05 2.280905908591535e-09 2.612326177597879e-08 2.280905908591535e-09 3.396470128791407e-05" pbc="T T T"
Y        1.99676005       1.41191965       3.45848719       0.00001461      -0.00001092      -0.00000392
Y        5.99027477       4.23576495      10.37545893      -0.00000005       0.00001436      -0.00001257
As      -0.00000045       0.00000033       0.00000031       0.00000861      -0.00000121      -0.00000607
Cl       2.01772236       1.42674361       6.91697662      -0.00096250      -0.00068516       0.00000409
Cl       5.96931153       4.22094263       6.91697459       0.00095177       0.00068212       0.00000529
Cl       4.98141312       1.42674268       5.20588487       0.00047201      -0.00068426      -0.00082839
Cl       3.00561842       4.22094156       8.62806187      -0.00048101       0.00068593       0.00083226
Cl       3.00561919       4.22094086       5.20588469      -0.00047937       0.00067788      -0.00082952
Cl       4.98141211       1.42674504       8.62806318       0.00047588      -0.00067884       0.00083888
