9
Lattice="6.831847123264549 -4.230627926500097e-08 3.944368793183851 2.2772823738727395 6.441127022556518 3.9443687250484833 4.6297548671252564e-08 -5.071113313478447e-08 7.888737506177958" Properties=species:S:1:pos:R:3:forces:R:3 energy=-30.47403335571289 free_energy=-30.47403335571289 stress="0.00010681215644581243 8.766958270456371e-10 1.2967961149357166e-09 8.766958270456371e-10 0.00010681209823815152 -2.418509392754231e-09 1.2967961149357166e-09 -2.418509392754231e-09 0.00010681755520636216" pbc="T T T"
Y        2.27728236       1.61028181       3.94436868       0.00000072       0.00000156      -0.00000083
Y        6.83184710       4.83084468      11.83310638       0.00000011      -0.00000162      -0.00000058
As       0.00000004      -0.00000004       0.00000016      -0.00000035       0.00000021      -0.00000102
I        2.33861348       1.65364950       7.88873753      -0.00015262      -0.00010687       0.00000062
I        6.77051592       4.78747762       7.88873745       0.00015235       0.00010717       0.00000042
I        5.66254044       1.65364957       5.96966740       0.00007609      -0.00010720      -0.00013202
I        3.44658914       4.78747745       9.80780747      -0.00007625       0.00010714       0.00013211
I        3.44658917       4.78747752       5.96966745      -0.00007634       0.00010653      -0.00013119
I        5.66254053       1.65364957       9.80780754       0.00007628      -0.00010690       0.00013253
