9
Lattice="4.548910173230836 -8.598303121947034e-08 2.626314514940084 1.5163033602692502 4.288753250310127 2.62631442789089 1.4165068385750982e-08 -9.659684347424344e-08 5.252629005345572" Properties=species:S:1:pos:R:3:forces:R:3 energy=-67.39309692382812 free_energy=-67.39309692382812 stress="-0.0002827929856721312 -4.874164361012845e-08 -4.0507583065618746e-08 -4.874164361012845e-08 -0.0002825727278832346 4.7079531384497386e-08 -4.0507583065618746e-08 4.7079531384497386e-08 -0.00028272366034798324" pbc="T T T"
Y        1.51630320       1.07218819       2.62631426       0.00000063       0.00000026       0.00000039
Y        4.54891016       3.21656463       7.87894353      -0.00000106      -0.00000044      -0.00000076
As      -0.00000006      -0.00000013      -0.00000011       0.00000145       0.00000535       0.00000110
O        1.50157174       1.06177123       5.25262896       0.00100493       0.00071299       0.00000188
O        4.56364193       3.22698186       5.25262895      -0.00100911      -0.00071502       0.00000113
O        3.79812451       1.06177132       3.92671346      -0.00050014       0.00071144       0.00087118
O        2.26708911       3.22698182       6.57854441       0.00050265      -0.00071573      -0.00087380
O        2.26708915       3.22698176       3.92671354       0.00050282      -0.00071299       0.00087249
O        3.79812457       1.06177131       6.57854462      -0.00050235       0.00071406      -0.00087368
