9
Lattice="6.300570186603092 1.2523366265501356e-08 3.637636006288881 2.1001900894943617 5.940234930242536 3.6376359794659727 6.65190164827522e-08 1.4184862161230533e-08 7.2752718973634565" Properties=species:S:1:pos:R:3:forces:R:3 energy=-34.302310943603516 free_energy=-34.302310943603516 stress="0.00019144777616020292 2.1457447374473304e-08 1.1817415490611438e-08 2.1457447374473304e-08 0.00019145672558806837 1.001155425228717e-08 1.1817415490611438e-08 1.001155425228717e-08 0.0001914181193569675" pbc="T T T"
Y        2.10019105       1.48505966       3.63763655       0.00000571       0.00000452       0.00000316
Y        6.30057103       4.45517688      10.91290736       0.00000320       0.00000205      -0.00000351
As       0.00000016      -0.00000041      -0.00000013      -0.00000296       0.00000165       0.00000123
Br       2.12592393       1.50325510       7.27527187       0.00453699       0.00320825      -0.00000132
Br       6.27483609       4.43697969       7.27527244      -0.00453591      -0.00320837      -0.00000014
Br       5.23760778       1.50325467       5.47873996      -0.00227147       0.00320816       0.00392997
Br       3.16315192       4.43697974       9.07180389       0.00226769      -0.00321046      -0.00393075
Br       3.16315129       4.43697927       5.47873984       0.00226665      -0.00321281       0.00392938
Br       5.23760810       1.50325526       9.07180376      -0.00226980       0.00320718      -0.00392848
