9
Lattice="5.990251584501994 5.965227768667068e-08 3.4584732960157094 1.9967506192900462 5.647663526013406 3.45847323559821 -9.38883339773783e-09 -8.063491722582382e-08 6.916946608293474" Properties=species:S:1:pos:R:3:forces:R:3 energy=-37.6214599609375 free_energy=-37.6214599609375 stress="3.1859199225436896e-05 4.1326654098838844e-08 -2.5824844485100584e-08 4.1326654098838844e-08 3.1799769203644246e-05 -2.5947203496912152e-08 -2.5824844485100584e-08 -2.5947203496912152e-08 3.177239705109969e-05" pbc="T T T"
Y        1.99674828       1.41191451       3.45847036      -0.00001364      -0.00000496      -0.00001735
Y        5.99025038       4.23574711      10.37541956      -0.00000564      -0.00000509       0.00000073
As      -0.00000008      -0.00000002      -0.00000076       0.00000797       0.00000397       0.00002450
Cl       2.01771572       1.42674165       6.91694709      -0.00094867      -0.00066954       0.00000684
Cl       5.96928764       4.22092273       6.91694613       0.00094134       0.00066406      -0.00000228
Cl       4.98139501       1.42674088       5.20586750       0.00048265      -0.00066924      -0.00081688
Cl       3.00560894       4.22092433       8.62802792      -0.00046334       0.00066525       0.00081086
Cl       3.00560839       4.22092265       5.20586606      -0.00046879       0.00067353      -0.00081825
Cl       4.98139451       1.42674038       8.62802874       0.00046784      -0.00065804       0.00081182
