9
Lattice="5.53930222608207 -2.4057235171322396e-08 3.1981176126362016 1.846434074472528 5.222504137823017 3.198117574889251 8.202876820455503e-08 1.1772736269873608e-08 6.396235083194441" Properties=species:S:1:pos:R:3:forces:R:3 energy=-49.12788009643555 free_energy=-49.12788009643555 stress="-3.588392064557411e-05 3.7671103569891784e-08 -1.4140808524132353e-09 3.7671103569891784e-08 -3.592511347960681e-05 7.864957574099662e-09 -1.4140808524132353e-09 7.864957574099662e-09 -3.593787187128328e-05" pbc="T T T"
Y        1.84643455       1.30562637       3.19811718       0.00000168       0.00000170      -0.00000197
Y        5.53930218       3.91687721       9.59435257      -0.00000078      -0.00000175      -0.00000056
As       0.00000012       0.00000019      -0.00000013      -0.00000537      -0.00000856       0.00000249
S        1.89051192       1.33679358       6.39623533       0.00037378       0.00026387       0.00000113
S        5.49522422       3.88571058       6.39623525      -0.00036532      -0.00025696       0.00000001
S        4.59404643       1.33679406       4.83534856      -0.00018579       0.00026399       0.00032181
S        2.79168989       3.88571015       7.95712168       0.00018430      -0.00026429      -0.00032157
S        2.79168990       3.88571049       4.83534882       0.00018397      -0.00026280       0.00032097
S        4.59404646       1.33679387       7.95712184      -0.00018662       0.00026470      -0.00032252
