9
Lattice="5.319932802011904 2.87037587233808e-07 3.071464335049192 1.773311396791603 5.015679263782411 3.071464002207913 5.000932215673432e-07 -5.402634710866692e-08 6.1429278039114905" Properties=species:S:1:pos:R:3:forces:R:3 energy=-36.707244873046875 free_energy=-36.707244873046875 stress="-4.8465073632542044e-05 -7.685260783318881e-08 5.1250442112404926e-08 -7.685260783318881e-08 -4.8616268031764776e-05 8.792447658834135e-08 5.1250442112404926e-08 8.792447658834135e-08 -4.844539216719568e-05" pbc="T T T"
Y        1.77330645       1.25391735       3.07146498      -0.00002024      -0.00000795       0.00000089
Y        5.31993566       3.76175906       9.21439416       0.00001177       0.00000000       0.00000706
B        0.00000191      -0.00000078      -0.00000889      -0.00000959       0.00000997       0.00005730
Cl       1.62216657       1.14704401       6.14292916       0.00100136       0.00070834      -0.00002024
Cl       5.47107877       3.86863783       6.14292926      -0.00100577      -0.00072110      -0.00001283
Cl       4.50885200       1.14704285       4.47629967      -0.00050032       0.00072336       0.00087035
Cl       2.58439385       3.86863665       7.80955790       0.00050306      -0.00070512      -0.00088131
Cl       2.58439355       3.86863685       4.47630011       0.00050783      -0.00072050       0.00086415
Cl       4.50885068       1.14704438       7.80955770      -0.00048745       0.00071239      -0.00088429
