9
Lattice="4.692207906967638 1.7498626748244754e-07 2.709047702000269 1.5640694131322361 4.423856310535514 2.709047795823696 4.2181357896063266e-07 4.131769720915008e-07 5.418094673397959" Properties=species:S:1:pos:R:3:forces:R:3 energy=-50.60113525390625 free_energy=-50.60113525390625 stress="0.0003561226185411215 1.0210008838384965e-07 6.212763281610023e-08 1.0210008838384965e-07 0.0003553314309101552 4.576641643438961e-08 6.212763281610023e-08 4.576641643438961e-08 0.0003561392077244818" pbc="T T T"
Y        1.56406770       1.10596563       2.70904998      -0.00003059       0.00002147       0.00002830
Y        4.69220411       3.31788873       8.12714340      -0.00004898      -0.00005208       0.00001504
B       -0.00000068       0.00000017       0.00000019      -0.00000005       0.00000038       0.00000420
F        1.66542773       1.17763679       5.41809330      -0.00490624      -0.00346090      -0.00001518
F        4.59085251       3.24621958       5.41809511       0.00491902       0.00345111      -0.00000675
F        3.85949572       1.17763837       4.15134908       0.00246811      -0.00343987      -0.00426626
F        2.39678466       3.24622060       6.68484009      -0.00243796       0.00346702       0.00425684
F        2.39678425       3.24621950       4.15134903      -0.00243700       0.00345875      -0.00427149
F        3.85949619       1.17763826       6.68484022       0.00247304      -0.00344607       0.00425455
