9
Lattice="6.244185505306979 -3.767991875958618e-08 3.6050821470654597 2.0813950655519458 5.887074773801868 3.6050822637342494 -1.4059448444633986e-07 4.347411320443819e-08 7.210164537647741" Properties=species:S:1:pos:R:3:forces:R:3 energy=-37.157352447509766 free_energy=-37.157352447509766 stress="5.4385560360969976e-05 1.060635912430996e-09 -1.919865333377402e-08 1.060635912430996e-09 5.440319364424795e-05 6.694964138631576e-09 -1.919865333377402e-08 6.694964138631576e-09 5.443895497592166e-05" pbc="T T T"
Y        2.08139642       1.47176905       3.60508254       0.00000558       0.00000230       0.00000110
Y        6.24418497       4.41530728      10.81524740      -0.00000149       0.00000557       0.00000509
Bi       0.00000025       0.00000035       0.00000020      -0.00000314      -0.00000221      -0.00000232
Cl       2.18178655       1.54275516       7.21016420       0.00557727       0.00394014      -0.00000102
Cl       6.14379398       4.34431908       7.21016403      -0.00557274      -0.00393906      -0.00000039
Cl       5.15329152       1.54275604       5.49456437      -0.00278795       0.00393924       0.00482494
Cl       3.17228803       4.34431819       8.92576422       0.00278378      -0.00394124      -0.00482419
Cl       3.17228819       4.34431847       5.49456465       0.00278670      -0.00394252       0.00482407
Cl       5.15329173       1.54275560       8.92576415      -0.00278795       0.00393778      -0.00482729
