9
Lattice="6.98794998585971 -8.975104368328116e-09 4.034494770740793 2.3293166467726407 6.588302301559657 4.034494782378004 -3.092918620697533e-08 -7.617576388808612e-09 8.068989595052498" Properties=species:S:1:pos:R:3:forces:R:3 energy=-29.81159782409668 free_energy=-29.81159782409668 stress="0.00014957367966417223 3.3350817663091448e-09 -6.052570444836647e-09 3.3350817663091448e-09 0.00014958722749724984 1.2049354403131929e-08 -6.052570444836647e-09 1.2049354403131929e-08 0.00014958252722863108" pbc="T T T"
Y        2.32931654       1.64707491       4.03449464      -0.00000391      -0.00000089       0.00000108
Y        6.98794979       4.94122714      12.10348433       0.00000393       0.00000063      -0.00000213
Bi       0.00000013      -0.00000011       0.00000003      -0.00000026       0.00000110      -0.00000231
I        2.46039018       1.73975847       8.06898957       0.00053012       0.00037473      -0.00000001
I        6.85687643       4.84854386       8.06898958      -0.00052996      -0.00037434       0.00000088
I        5.75775488       1.73975854       6.16525525      -0.00026451       0.00037330       0.00045768
I        3.55951170       4.84854381       9.97272402       0.00026362      -0.00037289      -0.00045737
I        3.55951175       4.84854396       6.16525519       0.00026529      -0.00037468       0.00046006
I        5.75775494       1.73975855       9.97272400      -0.00026432       0.00037310      -0.00045802
