9
Lattice="6.987834920006768 4.838525402134252e-08 4.034428414807847 2.3292783788151734 6.588194075706451 4.034428368859654 2.2692892318202712e-08 -4.022851255043586e-08 8.068856790310459" Properties=species:S:1:pos:R:3:forces:R:3 energy=-29.81160545349121 free_energy=-29.81160545349121 stress="0.0001395003782818094 -5.513915990462692e-09 2.7145350411927893e-09 -5.513915990462692e-09 0.00013948882406111807 9.299307990318084e-09 2.7145350411927893e-09 9.299307990318084e-09 0.00013948071864433587" pbc="T T T"
Y        2.32927821       1.64704850       4.03442880      -0.00000126       0.00000222      -0.00000004
Y        6.98783526       4.94114560      12.10328410       0.00000227      -0.00000119      -0.00000412
Bi       0.00000003      -0.00000014      -0.00000026      -0.00000195       0.00000138       0.00000075
I        2.46037354       1.73974682       8.06885685       0.00044857       0.00031782      -0.00000011
I        6.85673979       4.84844734       8.06885706      -0.00044958      -0.00031801       0.00000208
I        5.75764806       1.73974661       6.16517441      -0.00022541       0.00031710       0.00038872
I        3.55946523       4.84844745       9.97253949       0.00022633      -0.00031897      -0.00039034
I        3.55946475       4.84844729       6.16517448       0.00022376      -0.00031772       0.00039060
I        5.75764837       1.73974684       9.97253938      -0.00022268       0.00031733      -0.00038756
