9
Lattice="6.4948025503053275 -3.3126430787805346e-08 3.749775935409495 2.1649341919698055 6.123358235035825 3.7497758665317367 9.649870909381701e-09 -7.753419526321827e-08 7.499551854104908" Properties=species:S:1:pos:R:3:forces:R:3 energy=-33.64800262451172 free_energy=-33.64800262451172 stress="0.00016351403610315174 1.41054234958915e-08 -8.207079460476052e-09 1.41054234958915e-08 0.0001635302760405466 1.1849548897657769e-08 -8.207079460476052e-09 1.1849548897657769e-08 0.0001635251537663862" pbc="T T T"
Y        2.16493372       1.53083966       3.74977590      -0.00000118       0.00000110      -0.00000115
Y        6.49480231       4.59251924      11.24932756      -0.00000099       0.00000160      -0.00000007
Bi       0.00000021       0.00000056      -0.00000043      -0.00000029      -0.00000373      -0.00000045
Br       2.28502040       1.61575256       7.49955190       0.00111142       0.00078438       0.00000102
Br       6.37471642       4.50760502       7.49955183      -0.00110802      -0.00078423       0.00000078
Br       5.35229282       1.61575253       5.72866134      -0.00055423       0.00078474       0.00096488
Br       3.30744415       4.50760506       9.27044266       0.00055517      -0.00078636      -0.00096208
Br       3.30744423       4.50760523       5.72866118       0.00055470      -0.00078481       0.00096154
Br       5.35229275       1.61575266       9.27044278      -0.00055666       0.00078720      -0.00096449
