9
Lattice="6.494848488687691 8.733798627005573e-08 3.749802623085325 2.1649495675635166 6.1234021096535525 3.749802642153045 -4.806479975733396e-08 -1.063382375616673e-08 7.499605329421291" Properties=species:S:1:pos:R:3:forces:R:3 energy=-33.64800262451172 free_energy=-33.64800262451172 stress="0.00016745459288358688 -3.3859315351492114e-09 4.5773602685983406e-09 -3.3859315351492114e-09 0.0001674383966019377 -9.273716905511264e-09 4.5773602685983406e-09 -9.273716905511264e-09 0.00016743810556363314" pbc="T T T"
Y        2.16494919       1.53085024       3.74980243      -0.00000146      -0.00000185       0.00000043
Y        6.49484868       4.59255147      11.24940769       0.00000039       0.00000080       0.00000027
Bi       0.00000047       0.00000022      -0.00000052      -0.00000067      -0.00000018       0.00000591
Br       2.28502265       1.61575521       7.49960533       0.00119033       0.00084160       0.00000037
Br       6.37477520       4.50764695       7.49960520      -0.00118890      -0.00084162       0.00000048
Br       5.35233696       1.61575515       5.72869038      -0.00059479       0.00084144       0.00103086
Br       3.30746082       4.50764738       9.27052063       0.00059707      -0.00084399      -0.00103447
Br       3.30746115       4.50764724       5.72869053       0.00059441      -0.00083858       0.00102952
Br       5.35233693       1.61575489       9.27052064      -0.00059645       0.00084239      -0.00103325
