9
Lattice="6.491968849707244 2.187900461407035e-09 3.748139893531339 2.163989596848592 6.120686793422221 3.7481399312609884 -4.957080354190826e-08 1.115738396466817e-08 7.496279872921761" Properties=species:S:1:pos:R:3:forces:R:3 energy=-38.48301696777344 free_energy=-38.48301696777344 stress="-6.417318945750594e-05 1.7487444381458772e-08 -5.354747756314282e-09 1.7487444381458772e-08 -6.419705459848046e-05 -7.738025331605058e-09 -5.354747756314282e-09 -7.738025331605058e-09 -6.417786062229425e-05" pbc="T T T"
Y        2.16398933       1.53017154       3.74813993      -0.00000170      -0.00000007       0.00000001
Y        6.49196911       4.59051524      11.24441972       0.00000071       0.00000005       0.00000060
Bi       0.00000005       0.00000009       0.00000014       0.00000034      -0.00000021       0.00000583
Te       2.36644662       1.67333029       7.49627996       0.00007498       0.00005347       0.00000101
Te       6.28951165       4.44735633       7.49627982      -0.00007415      -0.00005293      -0.00000090
Te       5.30874557       1.67333030       5.79754292      -0.00003715       0.00005211       0.00006521
Te       3.34721285       4.44735649       9.19501684       0.00003904      -0.00005454      -0.00006799
Te       3.34721271       4.44735646       5.79754272       0.00003713      -0.00005399       0.00006448
Te       5.30874566       1.67333047       9.19501671      -0.00003943       0.00005606      -0.00006838
