9
Lattice="6.064692961256809 3.1395986048670234e-09 3.501452088817911 2.021564324627064 5.717847243042991 3.5014520866562164 3.514752625928289e-08 2.220549312495203e-08 7.002904116758518" Properties=species:S:1:pos:R:3:forces:R:3 energy=-42.22468566894531 free_energy=-42.22468566894531 stress="-7.076977635733783e-05 2.170112622934539e-08 6.46176667729037e-09 2.170112622934539e-08 -7.075307075865567e-05 -1.0346915324532802e-08 6.46176667729037e-09 -1.0346915324532802e-08 -7.080357318045571e-05" pbc="T T T"
Y        2.02156400       1.42946064       3.50145166      -0.00000148      -0.00000659      -0.00000252
Y        6.06469279       4.28838609      10.50435707      -0.00000273       0.00000169       0.00000471
Bi      -0.00000009       0.00000011       0.00000037       0.00000210      -0.00000016      -0.00000702
Se       2.19188359       1.54989554       7.00290443       0.00006388       0.00004309       0.00000180
Se       5.89437339       4.16795188       7.00290396      -0.00006469      -0.00004326      -0.00000232
Se       4.96875147       1.54989571       5.39967840      -0.00003278       0.00004930       0.00005655
Se       3.11750663       4.16795176       8.60612943       0.00003073      -0.00004214      -0.00005344
Se       3.11750621       4.16795215       5.39967886       0.00003408      -0.00004281       0.00005843
Se       4.96875130       1.54989514       8.60612890      -0.00002930       0.00004094      -0.00005613
