9
Lattice="5.0845868514576384 -7.85061140615123e-07 2.9355865400012098 1.6948616287882587 4.793791261828698 2.935586392548804 -2.6463463642942976e-07 -3.6771656817285074e-07 5.8711735383629735" Properties=species:S:1:pos:R:3:forces:R:3 energy=-47.28744125366211 free_energy=-47.28744125366211 stress="-2.044284155999776e-05 4.5992618424861575e-07 3.9581226474183495e-07 4.5992618424861575e-07 -1.6665429939166643e-05 2.2740481142591307e-07 3.9581226474183495e-07 2.2740481142591307e-07 -1.928524397953879e-05" pbc="T T T"
Y        1.69485931       1.19843714       2.93558862      -0.00002227      -0.00011827       0.00002313
Y        5.08457808       3.59534895       8.80675794      -0.00008257       0.00008098      -0.00002154
Bi      -0.00000216      -0.00000039      -0.00000016      -0.00000331      -0.00000325       0.00000262
F        1.82179973       1.28819235       5.87117199       0.00094378       0.00055856      -0.00001386
F        4.95764817       3.50559796       5.87117449      -0.00094241      -0.00056869       0.00001371
F        4.17368678       1.28819502       4.51330913      -0.00046802       0.00059080       0.00079906
F        2.60576792       3.50559746       7.22903949       0.00052255      -0.00056618      -0.00078660
F        2.60576396       3.50559515       4.51330700       0.00049463      -0.00058186       0.00078642
F        4.17369099       1.28819710       7.22903700      -0.00044185       0.00060743      -0.00080281
