9
Lattice="6.632469008789343 -6.483220952036113e-09 3.8292578110009154 2.2108229899469145 6.253151957129043 3.829257822900853 -1.663280241615851e-08 2.8132259006220627e-09 7.658515650810735" Properties=species:S:1:pos:R:3:forces:R:3 energy=-30.5565128326416 free_energy=-30.5565128326416 stress="1.231194255524315e-05 -2.1559036778029395e-09 -2.4225250694343003e-09 -2.1559036778029395e-09 1.2314607374719344e-05 7.910130328525611e-10 -2.4225250694343003e-09 7.910130328525611e-10 1.2314842024352401e-05" pbc="T T T"
Y        2.21082319       1.56328834       3.82925787       0.00000164       0.00000052       0.00000126
Y        6.63246877       4.68986463      11.48777330      -0.00000124       0.00000343      -0.00000102
B       -0.00000001       0.00000005       0.00000013      -0.00000012      -0.00000107       0.00000027
I        2.21658542       1.56736206       7.65851563       0.00185876       0.00131287       0.00000027
I        6.62670685       4.68578955       7.65851556      -0.00185780      -0.00131449       0.00000060
I        5.52417624       1.56736210       5.74887706      -0.00092905       0.00131285       0.00160904
I        3.31911559       4.68578941       9.56815451       0.00092892      -0.00131393      -0.00160850
I        3.31911553       4.68578928       5.74887681       0.00092818      -0.00131387       0.00160723
I        5.52417636       1.56736238       9.56815428      -0.00092930       0.00131363      -0.00160913
