9
Lattice="5.085682987435325 -5.686128636091305e-07 2.9362207173245123 1.6952274037301007 4.794825929948068 2.9362202369489614 5.479696833237261e-08 -5.495902584382626e-07 5.872441339737868" Properties=species:S:1:pos:R:3:forces:R:3 energy=-47.287437438964844 free_energy=-47.287437438964844 stress="0.00012076347775291651 1.6481403974921705e-07 -7.203076535233777e-08 1.6481403974921705e-07 0.00012327793228905648 -1.5811188802672405e-08 -7.203076535233777e-08 -1.5811188802672405e-08 0.00012126779620302841" pbc="T T T"
Y        1.69523205       1.19867622       2.93621125       0.00003744      -0.00027169      -0.00009682
Y        5.08568480       3.59610735       8.80865037       0.00001740      -0.00010779      -0.00009492
Bi       0.00000125      -0.00000408      -0.00000275      -0.00000609      -0.00004367      -0.00001062
F        1.82197748       1.28833354       5.87245105       0.00148278       0.00107896       0.00006370
F        4.95891815       3.50650769       5.87245028      -0.00157827      -0.00091445       0.00006778
F        4.17469245       1.28833775       4.51409676      -0.00074390       0.00107402       0.00127494
F        2.60621746       3.50649640       7.23077792       0.00077495      -0.00099170      -0.00132990
F        2.60622061       3.50650780       4.51411232       0.00076044      -0.00091743       0.00138652
F        4.17469708       1.28833654       7.23078236      -0.00074425       0.00109345      -0.00126034
