9
Lattice="6.194972692764303 -1.0109070867301302e-07 3.576669216296739 2.0649908075613665 5.840676538133937 3.576669207147153 3.425000415162569e-08 1.3012501081182404e-08 7.15333837327074" Properties=species:S:1:pos:R:3:forces:R:3 energy=-34.408058166503906 free_energy=-34.408058166503906 stress="0.00020372380095068365 -1.1563961344052132e-08 2.437373414210242e-09 -1.1563961344052132e-08 0.00020372954895719886 -5.756895848918475e-09 2.437373414210242e-09 -5.756895848918475e-09 0.0002037436788668856" pbc="T T T"
Y        2.06499088       1.46016815       3.57666949       0.00000002      -0.00000822       0.00000359
Y        6.19497258       4.38050711      10.73000712       0.00000003       0.00000049      -0.00000254
C       -0.00000012       0.00000015      -0.00000011       0.00000198      -0.00000103       0.00000273
Br       2.11672524       1.49675075       7.15333770       0.00582688       0.00412170      -0.00000112
Br       6.14323809       4.34392629       7.15333864      -0.00582906      -0.00411961       0.00000045
Br       5.13660975       1.49675055       5.40980738      -0.00291354       0.00412061       0.00504668
Br       3.12335371       4.34392619       8.89686933       0.00291533      -0.00411937      -0.00504771
Br       3.12335372       4.34392588       5.40980759       0.00291299      -0.00411710       0.00504542
Br       5.13661022       1.49675074       8.89686999      -0.00291470       0.00412263      -0.00504764
