9
Lattice="4.626386386110017 3.113846149682198e-07 2.6710459319348536 1.5421290319877248 4.361799413314859 2.671046030589907 -3.791446994751247e-08 9.401767397088634e-08 5.342091929539475" Properties=species:S:1:pos:R:3:forces:R:3 energy=-51.48577880859375 free_energy=-51.48577880859375 stress="-0.00014946753799449652 -9.334069517308308e-09 -6.631774684962011e-09 -9.334069517308308e-09 -0.00014963297871872783 -5.8500980060216534e-08 -6.631774684962011e-09 -5.8500980060216534e-08 -0.0001497660850873217" pbc="T T T"
Y        1.54212767       1.09045209       2.67104562      -0.00001525       0.00001994      -0.00000856
Y        4.62638492       3.27135093       8.01313498      -0.00001156       0.00001318      -0.00002631
C        0.00000048      -0.00000033      -0.00000004      -0.00000258      -0.00000412       0.00000631
F        1.63765025       1.15799271       5.34209230      -0.00064242      -0.00046647       0.00000237
F        4.53086613       3.20380596       5.34209323       0.00065553       0.00045061       0.00001220
F        3.80756282       1.15799265       4.08929317       0.00032651      -0.00045907      -0.00054359
F        2.36095348       3.20380580       6.59489205      -0.00031459       0.00044715       0.00056148
F        2.36095310       3.20380561       4.08929252      -0.00032580       0.00045127      -0.00055903
F        3.80756230       1.15799343       6.59489164       0.00033081      -0.00045252       0.00055557
