9
Lattice="6.632504465237594 -9.813832834053095e-08 3.8292782548270368 2.2108347236249695 6.253185251864108 3.82927826451817 -1.5685224655658138e-08 7.780777309245844e-10 7.658556536821685" Properties=species:S:1:pos:R:3:forces:R:3 energy=-31.083663940429688 free_energy=-31.083663940429688 stress="-0.00012270233128219843 -8.03079558409081e-09 6.986116130036635e-10 -8.03079558409081e-09 -0.0001227014436153695 -9.102428144558417e-09 6.986116130036635e-10 -9.102428144558417e-09 -0.00012270762817934155" pbc="T T T"
Y        2.21083525       1.56329622       3.82927821       0.00000092      -0.00000042      -0.00000024
Y        6.63250402       4.68988878      11.48783402      -0.00000131       0.00000116      -0.00000452
C        0.00000012      -0.00000001       0.00000024      -0.00000082       0.00000021       0.00000079
I        2.24518774       1.58758704       7.65855657      -0.00484581      -0.00342601       0.00000083
I        6.59815138       4.66559812       7.65855687       0.00484625       0.00342874       0.00000080
I        5.50991043       1.58758744       5.77366806       0.00242432      -0.00342848      -0.00419821
I        3.33342895       4.66559768       9.54344528      -0.00242348       0.00342578       0.00419715
I        3.33342832       4.66559760       5.77366807      -0.00242435       0.00342683      -0.00419678
I        5.50991048       1.58758772       9.54344498       0.00242427      -0.00342778       0.00420030
