9
Lattice="5.741047609632151 2.0828709515785964e-07 3.314595647403682 1.913682702340892 5.41271199368238 3.314595700366515 8.502975982136441e-08 1.2499107082551058e-07 6.629191147531469" Properties=species:S:1:pos:R:3:forces:R:3 energy=-42.16926574707031 free_energy=-42.16926574707031 stress="0.0004242932773195207 -3.0360148173258494e-08 3.7526831420109374e-08 -3.0360148173258494e-08 0.00042431644396856427 3.813745053093953e-08 3.7526831420109374e-08 3.813745053093953e-08 0.00042422336991876364" pbc="T T T"
Y        1.91368236       1.35317905       3.31459887       0.00000083       0.00000473       0.00002022
Y        5.74104730       4.05953382       9.94378770      -0.00000472      -0.00000499       0.00000602
Co       0.00000003      -0.00000016      -0.00000092       0.00000686       0.00000011       0.00001159
Cl       1.87337056       1.32467258       6.62919057      -0.00343297      -0.00242756      -0.00000746
Cl       5.78136036       4.08803968       6.62919101       0.00342969       0.00242414      -0.00000372
Cl       4.80436208       1.32467312       4.93698085       0.00171518      -0.00242466      -0.00297769
Cl       2.85036794       4.08803946       8.32140083      -0.00171334       0.00242422       0.00296710
Cl       2.85036786       4.08803900       4.93698103      -0.00171869       0.00242544      -0.00297824
Cl       4.80436311       1.32467278       8.32140017       0.00171705      -0.00242148       0.00296205
