9
Lattice="4.4721249582529135 -1.2264381333157524e-07 2.5819825261504277 1.4907082582868825 4.216359458582889 2.5819824317555478 2.98464086032286e-08 -9.450506083196032e-08 5.163965000605412" Properties=species:S:1:pos:R:3:forces:R:3 energy=-65.03206634521484 free_energy=-65.03206634521484 stress="6.600359029107494e-06 -4.066976799776967e-08 -6.528889651136183e-10 -4.066976799776967e-08 6.614405720029026e-06 -1.7646776484525617e-08 -6.528889651136183e-10 -1.7646776484525617e-08 6.653546279267175e-06" pbc="T T T"
Y        1.49070842       1.05408948       2.58198267       0.00000084       0.00000059      -0.00000124
Y        4.47212490       3.16226946       7.74594743      -0.00000091       0.00000060       0.00000087
Co      -0.00000001       0.00000007       0.00000001       0.00000032      -0.00000199      -0.00000104
O        1.48323341       1.04880433       5.16396513      -0.00038922      -0.00027671      -0.00000114
O        4.47959971       3.16755533       5.16396508       0.00039130       0.00027511      -0.00000055
O        3.73050831       1.04880438       3.86650023       0.00019470      -0.00027463      -0.00033543
O        2.23232499       3.16755510       6.46142959      -0.00019480       0.00027581       0.00033778
O        2.23232496       3.16755456       3.86650004      -0.00019710       0.00027683      -0.00033879
O        3.73050820       1.04880417       6.46142966       0.00019494      -0.00027581       0.00033841
