9
Lattice="4.20815270464661 1.9766731112384782e-07 2.4295780127284226 1.4027176914317407 3.967484540057597 2.4295781221010366 2.1332086702840252e-08 1.4903762259007245e-07 4.859155988508556" Properties=species:S:1:pos:R:3:forces:R:3 energy=-68.80638122558594 free_energy=-68.80638122558594 stress="-0.00029526135767810047 5.969946670347781e-08 -4.218225768681805e-08 5.969946670347781e-08 -0.00029523042030632496 1.9970633147181616e-08 -4.218225768681805e-08 1.9970633147181616e-08 -0.00029539293609559536" pbc="T T T"
Y        1.40271760       0.99187117       2.42957810       0.00000001       0.00000194       0.00000026
Y        4.20815290       2.97561378       7.28873420       0.00000056      -0.00000128      -0.00000214
C        0.00000012      -0.00000087       0.00000042       0.00000025       0.00000117       0.00000054
O        1.28118038       0.90593142       4.85915590       0.00718224       0.00507760       0.00000067
O        4.32969044       3.06155359       4.85915608      -0.00718224      -0.00507903      -0.00000111
O        3.56756230       0.90593151       3.53911260      -0.00358868       0.00507742       0.00621819
O        2.04330787       3.06155358       6.17919935       0.00358951      -0.00507933      -0.00621116
O        2.04330757       3.06155372       3.53911250       0.00359136      -0.00507849       0.00621510
O        3.56756251       0.90593165       6.17919915      -0.00359356       0.00508034      -0.00621939
