9
Lattice="6.033927833408983 1.3150444351622474e-08 3.4836897820667874 2.0113092253001463 5.688841550591515 3.483689894478946 4.701683152254432e-08 1.709221742337252e-07 6.967379482698022" Properties=species:S:1:pos:R:3:forces:R:3 energy=-38.107749938964844 free_energy=-38.107749938964844 stress="0.00018077745335176587 -2.1528519411617708e-08 -4.173581658051262e-08 -2.1528519411617708e-08 0.00018079503206536174 -2.0402971756539046e-08 -4.173581658051262e-08 -2.0402971756539046e-08 0.00018072722014039755" pbc="T T T"
Y        2.01131185       1.42221264       3.48368954       0.00001359       0.00001062      -0.00000106
Y        6.03392775       4.26663091      10.45106589       0.00000001      -0.00000033      -0.00001713
Co      -0.00000046       0.00000001       0.00000055       0.00000248      -0.00000154      -0.00000083
Br       1.97664682       1.39770078       6.96737967      -0.00019782      -0.00013895       0.00000165
Br       6.06858991       4.29114060       6.96738058       0.00019487       0.00013686       0.00000558
Br       5.04560357       1.39770018       5.19551653       0.00009269      -0.00013951      -0.00016832
Br       2.99963322       4.29114037       8.73924324      -0.00009841       0.00013511       0.00017539
Br       2.99963207       4.29114059       5.19551674      -0.00010106       0.00013438      -0.00016846
Br       5.04560374       1.39770090       8.73924390       0.00009366      -0.00013661       0.00017296
