9
Lattice="6.608527377894856 2.90470593195557e-08 3.81543510281165 2.20284247502694 6.230579437746053 3.815435123002517 -2.9769528473604566e-08 3.6783492621959696e-09 7.630870257185628" Properties=species:S:1:pos:R:3:forces:R:3 energy=-33.50224304199219 free_energy=-33.50224304199219 stress="8.643070032121614e-05 3.6680956050361146e-09 -8.049183541913862e-09 3.6680956050361146e-09 8.643212640890852e-05 3.1012306056510397e-09 -8.049183541913862e-09 3.1012306056510397e-09 8.643471664981917e-05" pbc="T T T"
Y        2.20284188       1.55764429       3.81543506      -0.00000268      -0.00000323       0.00000024
Y        6.60852738       4.67293423      11.44630551      -0.00000052      -0.00000154       0.00000011
Co      -0.00000005      -0.00000017      -0.00000004       0.00000056       0.00000179      -0.00000069
I        2.17158001       1.53553925       7.63087032      -0.00522248      -0.00369179      -0.00000007
I        6.63979000       4.69504074       7.63087024       0.00522046       0.00369278      -0.00000016
I        5.52273745       1.53553919       5.69607861       0.00261172      -0.00369134      -0.00452307
I        3.28863264       4.69504052       9.56566190      -0.00261022       0.00369342       0.00452138
I        3.28863262       4.69504065       5.69607851      -0.00260870       0.00369191      -0.00452150
I        5.52273737       1.53553919       9.56566182       0.00261185      -0.00369197       0.00452377
