9
Lattice="4.583513897817573 2.4879231261513016e-07 2.6462931341199933 1.5278380371496598 4.321379673224694 2.6462934170557926 -9.614521071107458e-08 2.7853947254531335e-07 5.292586434768302" Properties=species:S:1:pos:R:3:forces:R:3 energy=-54.26676559448242 free_energy=-54.26676559448242 stress="8.498099487042055e-05 1.8973555881984794e-07 -1.51494727873569e-08 1.8973555881984794e-07 8.48472845973447e-05 -1.3800519838014225e-08 -1.51494727873569e-08 -1.3800519838014225e-08 8.463527774438262e-05" pbc="T T T"
Y        1.52783816       1.08034549       2.64629294       0.00000192       0.00000455      -0.00000291
Y        4.58351435       3.24103520       7.93887898       0.00000279      -0.00000030      -0.00000829
Co       0.00000005       0.00000006      -0.00000004      -0.00000414      -0.00001066      -0.00000755
F        1.54982152       1.09588994       5.29258692      -0.00271738      -0.00192222       0.00000145
F        4.56153014       3.22548980       5.29258715       0.00272560       0.00192773       0.00000273
F        3.80860318       1.09588985       3.98847775       0.00135237      -0.00191438      -0.00234324
F        2.30274859       3.22548995       6.59669531      -0.00135833       0.00191802       0.00235307
F        2.30274810       3.22549005       3.98847826      -0.00135788       0.00191531      -0.00234503
F        3.80860334       1.09589057       6.59669509       0.00135529      -0.00191694       0.00234991
