9
Lattice="5.342646903404621 -8.570297294339572e-08 3.0845786634591645 1.7808822299573561 5.037096124465036 3.084578646789856 -9.411012947813854e-08 -8.696153296218543e-08 6.169157489921842" Properties=species:S:1:pos:R:3:forces:R:3 energy=-52.995296478271484 free_energy=-52.995296478271484 stress="9.019347089633811e-06 1.0098784919421178e-08 1.7507696625784774e-08 1.0098784919421178e-08 8.969568625616375e-06 -8.81816930586865e-09 1.7507696625784774e-08 -8.81816930586865e-09 9.03376167116221e-06" pbc="T T T"
Y        1.78088278       1.25927364       3.08457860       0.00000000      -0.00000007      -0.00000032
Y        5.34264698       3.77782177       9.25373633      -0.00000036       0.00000138       0.00000085
Co      -0.00000007       0.00000010       0.00000006      -0.00000188      -0.00000030      -0.00000079
S        1.77977456       1.25849080       6.16915735      -0.00041169      -0.00029045      -0.00000136
S        5.34375432       3.77860539       6.16915738       0.00041229       0.00029010       0.00000126
S        4.45275955       1.25849082       4.62590863       0.00020589      -0.00029042      -0.00035620
S        2.67076922       3.77860522       7.71240601      -0.00020522       0.00029072       0.00035650
S        2.67076961       3.77860540       4.62590877      -0.00020555       0.00028965      -0.00035644
S        4.45275926       1.25849059       7.71240611       0.00020683      -0.00029063       0.00035679
