9
Lattice="6.095845262492517 2.1144428532773505e-08 3.5194378274059557 2.03194847108354 5.747217888129348 3.5194377748944534 4.798422140418228e-08 -3.038324577277431e-08 7.038875571700811" Properties=species:S:1:pos:R:3:forces:R:3 energy=-44.532169342041016 free_energy=-44.532169342041016 stress="4.7600542529835366e-06 1.4365752143419286e-08 -9.390705990597326e-09 1.4365752143419286e-08 4.749377694679424e-06 1.6188849372156255e-08 -9.390705990597326e-09 1.6188849372156255e-08 4.7498010644630995e-06" pbc="T T T"
Y        2.03194868       1.43680472       3.51943781       0.00000048       0.00000072      -0.00000021
Y        6.09584505       4.31041299      10.55831342      -0.00000043      -0.00000091       0.00000013
Co      -0.00000007      -0.00000013       0.00000003      -0.00000213       0.00000123      -0.00000072
Te       2.02206318       1.42981473       7.03887560       0.00202346       0.00143089       0.00000033
Te       6.10573074       4.31740332       7.03887551      -0.00202272      -0.00143016       0.00000009
Te       5.08481356       1.42981466       5.27059590      -0.00101149       0.00143034       0.00175161
Te       3.04298021       4.31740300       8.80715537       0.00101167      -0.00143091      -0.00175349
Te       3.04298011       4.31740338       5.27059571       0.00101289      -0.00143236       0.00175480
Te       5.08481367       1.42981490       8.80715536      -0.00101179       0.00143104      -0.00175260
