9
Lattice="5.3967340030139015 1.680274472535972e-07 3.1158059362828427 1.7989113810762634 5.08808990997551 3.1158061297173947 -6.127677326580149e-08 1.9357874950312508e-07 6.231611978700185" Properties=species:S:1:pos:R:3:forces:R:3 energy=-56.102901458740234 free_energy=-56.102901458740234 stress="8.954565419116989e-05 -1.6342216468956394e-08 -9.957599189647226e-09 -1.6342216468956394e-08 8.956217061495408e-05 1.4979615770016608e-08 -9.957599189647226e-09 1.4979615770016608e-08 8.958436228567734e-05" pbc="T T T"
Y        1.79891145       1.27202271       3.11580594       0.00000013      -0.00000010      -0.00000062
Y        5.39673380       3.81606716       9.34741696      -0.00000014       0.00000024      -0.00000007
Cr      -0.00000018       0.00000005      -0.00000000      -0.00000116       0.00000177       0.00000114
S        1.82523434       1.29063584       6.23161204      -0.00128588      -0.00090888      -0.00000087
S        5.37041098       3.79745438       6.23161242       0.00128698       0.00090912      -0.00000101
S        4.48411675       1.29063597       4.69650532       0.00064406      -0.00091052      -0.00111482
S        2.71152873       3.79745419       7.76671902      -0.00064433       0.00091067       0.00111437
S        2.71152855       3.79745443       4.69650550      -0.00064354       0.00090906      -0.00111347
S        4.48411673       1.29063640       7.76671893       0.00064377      -0.00091138       0.00111562
