9
Lattice="4.520849871571101 9.061952553273518e-08 2.610113833809307 1.5069499849387533 4.262298403009093 2.610113933728735 5.477560573406897e-09 1.262490362439046e-07 5.220227658131227" Properties=species:S:1:pos:R:3:forces:R:3 energy=-69.48450469970703 free_energy=-69.48450469970703 stress="-3.7561032513622195e-05 2.3049553377063603e-08 -1.212481848256175e-08 2.3049553377063603e-08 -3.7404119211714715e-05 1.8417988911778593e-08 -1.212481848256175e-08 1.8417988911778593e-08 -3.7696805520681664e-05" pbc="T T T"
Y        1.50695064       1.06557502       2.61011373      -0.00000176       0.00000144      -0.00000041
Y        4.52084983       3.19672409       7.83034142       0.00000194      -0.00000178       0.00000042
Cr      -0.00000020      -0.00000006      -0.00000015       0.00000252      -0.00000101       0.00000191
O        1.48570546       1.05055231       5.22022763       0.00015628       0.00011024       0.00000055
O        4.54209433       3.21174581       5.22022785      -0.00015137      -0.00010584      -0.00000141
O        3.77799715       1.05055256       3.89677248      -0.00007853       0.00010808       0.00013468
O        2.24980279       3.21174599       6.54368303       0.00007524      -0.00011018      -0.00013506
O        2.24980255       3.21174597       3.89677256       0.00007655      -0.00010754       0.00013363
O        3.77799693       1.05055275       6.54368316      -0.00008050       0.00010660      -0.00013468
