9
Lattice="6.126126721095499 2.3777151012852676e-07 3.536921659967171 2.0420425620582416 5.775768355430216 3.536921491057747 6.400677836876324e-07 2.457253284275782e-07 7.073842211304446" Properties=species:S:1:pos:R:3:forces:R:3 energy=-40.87208938598633 free_energy=-40.87208938598633 stress="0.00016475084703415632 -4.607359471719974e-08 2.510027741209342e-08 -4.607359471719974e-08 0.0001647899189265445 9.257316690991502e-09 2.510027741209342e-08 9.257316690991502e-09 0.00016475537267979234" pbc="T T T"
Y        2.04204018       1.44394319       3.53691917      -0.00000915       0.00000276      -0.00000845
Y        6.12612837       4.33182530      10.61076471       0.00000324      -0.00000420       0.00000090
Cr       0.00000068      -0.00000041       0.00000224      -0.00000405       0.00000650      -0.00001919
Br       1.97655758       1.39763683       7.07384243       0.00110951       0.00078633       0.00000125
Br       6.19161284       4.37813167       7.07384326      -0.00110984      -0.00078765      -0.00000107
Br       5.13784986       1.39763728       5.24867035      -0.00055179       0.00078931       0.00096530
Br       3.03032127       4.37813103       8.89901477       0.00054999      -0.00078204      -0.00095412
Br       3.03032048       4.37813203       5.24867001       0.00055946      -0.00078905       0.00096676
Br       5.13784856       1.39763842       8.89901447      -0.00054741       0.00077799      -0.00095144
