9
Lattice="5.672857562962144 1.2333539462532653e-07 3.2752258719402194 1.8909526278150526 5.348421443042457 3.2752258883151066 4.036610849108919e-08 4.859822652581837e-08 6.550451673964228" Properties=species:S:1:pos:R:3:forces:R:3 energy=-51.277164459228516 free_energy=-51.277164459228516 stress="6.237065099412575e-05 1.6353233434074355e-08 -5.032020133910464e-09 1.6353233434074355e-08 6.23718515271321e-05 -1.186565778965587e-08 -5.032020133910464e-09 -1.186565778965587e-08 6.236866465769708e-05" pbc="T T T"
Y        1.89095298       1.33710531       3.27522589       0.00000135       0.00000065      -0.00000067
Y        5.67285753       4.01131620       9.82567765       0.00000013      -0.00000062       0.00000095
Cr       0.00000014       0.00000015      -0.00000001       0.00000012      -0.00000127      -0.00000047
Se       1.93218006       1.36625779       6.55045175      -0.00149879      -0.00106193      -0.00000105
Se       5.63162989       3.98216389       6.55045168       0.00150256       0.00106106       0.00000001
Se       4.70676750       1.36625786       4.94854281       0.00074843      -0.00106031      -0.00129803
Se       2.85704266       3.98216373       8.15236049      -0.00075139       0.00106151       0.00129998
Se       2.85704259       3.98216380       4.94854295      -0.00075229       0.00106232      -0.00129818
Se       4.70676760       1.36625775       8.15236059       0.00074991      -0.00106165       0.00129761
