9
Lattice="5.935197601995833 -6.078853372201507e-08 3.4266877118483796 1.9783991563468217 5.595757684538835 3.4266876893429474 1.1453393267118475e-08 -1.9464619883080476e-08 6.853375403858887" Properties=species:S:1:pos:R:3:forces:R:3 energy=-44.443397521972656 free_energy=-44.443397521972656 stress="2.3305923605221324e-05 -7.244828292840566e-09 8.633925574486057e-09 -7.244828292840566e-09 2.3254244297277182e-05 1.463417209635054e-08 8.633925574486057e-09 1.463417209635054e-08 2.3313787096412852e-05" pbc="T T T"
Y        1.97840107       1.39893712       3.42668495       0.00001032      -0.00001320      -0.00001554
Y        5.93519916       4.19681987      10.28006134       0.00001018       0.00001116      -0.00000907
Cr       0.00000000       0.00000035      -0.00000021      -0.00000275      -0.00000080       0.00000068
Cl       1.90858354       1.34957228       6.85337630       0.00292999       0.00207210       0.00000633
Cl       6.00501250       4.24618573       6.85337618      -0.00293365      -0.00206646       0.00000293
Cl       4.98090521       1.34957156       5.07957060      -0.00146802       0.00206709       0.00253960
Cl       2.93269108       4.24618520       8.62718148       0.00146338      -0.00207046      -0.00253606
Cl       2.93269002       4.24618624       5.07957089       0.00146246      -0.00206846       0.00254509
Cl       4.98090453       1.34957218       8.62718169      -0.00147200       0.00206912      -0.00253412
