9
Lattice="6.1590113844832155 -1.8416117182605515e-08 3.5559068202250286 2.053003794648233 5.8067714078039385 3.5559067904625494 7.066661009320541e-09 -3.145455940798826e-08 7.111813628210234" Properties=species:S:1:pos:R:3:forces:R:3 energy=-46.76628112792969 free_energy=-46.76628112792969 stress="-0.00017387613479513675 2.229838536038642e-09 5.072869235789312e-09 2.229838536038642e-09 -0.00017387612024322152 -9.327934868963439e-09 5.072869235789312e-09 -9.327934868963439e-09 -0.00017387962725479156" pbc="T T T"
Y        2.05300423       1.45169329       3.55590675       0.00000096       0.00000097      -0.00000017
Y        6.15901112       4.35507835      10.66772032      -0.00000116      -0.00000097       0.00000031
Cr      -0.00000005      -0.00000005      -0.00000001       0.00000138       0.00000130       0.00000144
Te       2.09235783       1.47951995       7.11181352       0.00047038       0.00033236       0.00000027
Te       6.11965737       4.32725144       7.11181347      -0.00047286      -0.00033360       0.00000035
Te       5.11283264       1.47952027       5.36794175      -0.00023463       0.00033285       0.00040728
Te       3.09918239       4.32725086       8.85568581       0.00023600      -0.00033514      -0.00040937
Te       3.09918260       4.32725118       5.36794163       0.00023462      -0.00033219       0.00040714
Te       5.11283260       1.47952019       8.85568577      -0.00023483       0.00033439      -0.00040706
