9
Lattice="4.83866661053781 -6.123275111792418e-07 2.7936046302398014 1.6128887856657301 4.561938873176627 2.793603776694609 1.2017238756869731e-06 -1.9562768300171646e-07 5.587207179032654" Properties=species:S:1:pos:R:3:forces:R:3 energy=-55.564414978027344 free_energy=-55.564414978027344 stress="2.042502637777943e-05 7.117079690033279e-07 -7.987013646015839e-07 7.117079690033279e-07 1.8609174730954692e-05 -4.4390020548235043e-07 -7.987013646015839e-07 -4.4390020548235043e-07 2.244934694317635e-05" pbc="T T T"
Y        1.61286266       1.14056053       2.79359339      -0.00027652       0.00078232      -0.00010141
Y        4.83862525       3.42150408       8.38081841      -0.00044056       0.00053680       0.00005881
Cr      -0.00000370       0.00000541      -0.00000082      -0.00003534       0.00007354      -0.00000338
F        1.68377010       1.19056186       5.58721135      -0.00091034      -0.00107343       0.00004883
F        4.76782982       3.37131363       5.58720835       0.00134766       0.00043528      -0.00002225
F        3.99680189       1.19058409       4.25178078       0.00065542      -0.00087216      -0.00085212
F        2.45477072       3.37131827       6.92266668      -0.00049081       0.00049163       0.00121259
F        2.45477699       3.37132785       4.25175149      -0.00042462       0.00056323      -0.00118816
F        3.99679269       1.19057526       6.92263193       0.00057493      -0.00093728       0.00084721
