9
Lattice="6.7249787763547495 -2.9963463846968825e-08 3.8826682819840057 2.2416595627677216 6.340370666329777 3.8826682838905087 1.7315689942914934e-08 1.4579020971197877e-08 7.765336533976347" Properties=species:S:1:pos:R:3:forces:R:3 energy=-36.25489044189453 free_energy=-36.25489044189453 stress="0.00012699105718638748 3.5134315456986087e-09 -2.6788586904302747e-09 3.5134315456986087e-09 0.00012698397040367126 -6.110729700026241e-10 -2.6788586904302747e-09 -6.110729700026241e-10 0.00012697384227067232" pbc="T T T"
Y        2.24165926       1.58509258       3.88266882      -0.00000186       0.00000048       0.00000122
Y        6.72497855       4.75527828      11.64800451      -0.00000231      -0.00000041      -0.00000048
Cr       0.00000023       0.00000011      -0.00000009      -0.00000095      -0.00000141       0.00000142
I        2.22611192       1.57409852       7.76533630       0.00052571       0.00037073      -0.00000057
I        6.74052626       4.76627178       7.76533663      -0.00052361      -0.00036990       0.00000084
I        5.61192299       1.57409878       5.81053759      -0.00026172       0.00037090       0.00045483
I        3.35471552       4.76627204       9.72013560       0.00026380      -0.00037138      -0.00045639
I        3.35471555       4.76627166       5.81053739       0.00026278      -0.00037138       0.00045478
I        5.61192314       1.57409888       9.72013566      -0.00026187       0.00037235      -0.00045560
