9
Lattice="5.2886594169511225 6.874803526478739e-08 3.0534093006650904 1.7628864413124337 4.986196215743062 3.053409466631766 -1.50164640545489e-08 1.92648584134758e-07 6.106818627339431" Properties=species:S:1:pos:R:3:forces:R:3 energy=-50.352745056152344 free_energy=-50.352745056152344 stress="0.00021858667605556548 9.213198204349737e-09 2.921025910040953e-08 9.213198204349737e-09 0.00021862216817680746 -3.995458897065873e-08 2.921025910040953e-08 -3.995458897065873e-08 0.0002186162892030552" pbc="T T T"
Y        1.76288641       1.24654871       3.05340933       0.00000134      -0.00000030       0.00000089
Y        5.28865956       3.73964640       9.16022850       0.00000146       0.00000101       0.00000042
C        0.00000708      -0.00000105       0.00000438       0.00012712      -0.00002543       0.00008544
S        1.64219795       1.16120935       6.10681879      -0.00505468      -0.00357416       0.00000095
S        5.40934388       3.82498402       6.10681861       0.00497666       0.00351724       0.00000035
S        4.46755944       1.16121144       4.47559699       0.00250842      -0.00354311      -0.00433972
S        2.58398672       3.82498565       7.73804110      -0.00250711       0.00354722       0.00434569
S        2.58398448       3.82498824       4.47559329      -0.00253430       0.00358553      -0.00439030
S        4.46755788       1.16121309       7.73803832       0.00248168      -0.00350787       0.00429612
