9
Lattice="6.622816889968721 4.397875977767483e-08 3.8236851609828104 2.2076056508220656 6.244051771783299 3.8236851967169274 -4.559161719695314e-08 1.1527011804725802e-08 7.647370400932618" Properties=species:S:1:pos:R:3:forces:R:3 energy=-34.54951095581055 free_energy=-34.54951095581055 stress="-0.00014202228339854628 -1.8031585113931214e-08 2.5077304677267875e-09 -1.8031585113931214e-08 -0.00014200981240719557 1.0236359537785233e-09 2.5077304677267875e-09 1.0236359537785233e-09 -0.00014201825251802802" pbc="T T T"
Y        2.20760541       1.56101317       3.82368487      -0.00000018       0.00000007      -0.00000056
Y        6.62281630       4.68303847      11.47105486      -0.00000374      -0.00000244      -0.00000066
Fe      -0.00000005       0.00000010      -0.00000024       0.00000084      -0.00000086      -0.00000089
I        2.17584561       1.53855520       7.64737055       0.00325871       0.00230533       0.00000077
I        6.65457682       4.70549676       7.64737057      -0.00325786      -0.00230470       0.00000086
I        5.53489398       1.53855544       5.70802326      -0.00162702       0.00230407       0.00282039
I        3.29552898       4.70549659       9.58671786       0.00162909      -0.00230356      -0.00281953
I        3.29552874       4.70549622       5.70802322       0.00162855      -0.00230279       0.00281939
I        5.53489420       1.53855535       9.58671804      -0.00162834       0.00230491      -0.00281979
