9
Lattice="6.060862762089466 -3.520289537766242e-08 3.4992408351965576 2.0202875226943156 5.714236476181934 3.4992408897202734 -6.614409087598426e-08 2.0006668753685908e-08 6.998481784958028" Properties=species:S:1:pos:R:3:forces:R:3 energy=-46.031837463378906 free_energy=-46.031837463378906 stress="-1.6074936866061762e-05 -5.473329789396075e-09 -8.942232732067623e-09 -5.473329789396075e-09 -1.6080961358966306e-05 -1.0637198899487998e-09 -8.942232732067623e-09 -1.0637198899487998e-09 -1.607024751137942e-05" pbc="T T T"
Y        2.02028792       1.42855843       3.49924072       0.00000036      -0.00000117      -0.00000051
Y        6.06086278       4.28567585      10.49772375       0.00000013      -0.00000129       0.00000120
Fe       0.00000009      -0.00000001      -0.00000042       0.00000155       0.00000330       0.00000527
Te       1.96693179       1.39083183       6.99848204       0.00512264       0.00362246      -0.00000080
Te       6.11421770       4.32340571       6.99848092      -0.00512540      -0.00362355       0.00000110
Te       5.07739669       1.39083195       5.20265365      -0.00256111       0.00362023       0.00443488
Te       3.00375356       4.32340549       8.79430956       0.00256357      -0.00362294      -0.00443854
Te       3.00375388       4.32340553       5.20265416       0.00256018      -0.00362227       0.00443683
Te       5.07739646       1.39083112       8.79430964      -0.00256200       0.00362532      -0.00443944
