9
Lattice="5.740782322504215 3.096828493014426e-08 3.314441735004185 1.913594131304959 5.412461326492735 3.314441744346191 -1.5598421535745062e-07 -9.885593865276013e-08 6.628883740180938" Properties=species:S:1:pos:R:3:forces:R:3 energy=-43.35052490234375 free_energy=-43.35052490234375 stress="0.0004058709309902042 -5.233682642824533e-08 -5.616066900415717e-08 -5.233682642824533e-08 0.00040583970258012414 -5.432422156559369e-08 -5.616066900415717e-08 -5.432422156559369e-08 0.00040571854333393276" pbc="T T T"
Y        1.91359426       1.35311595       3.31444737      -0.00000107       0.00000433       0.00003380
Y        5.74077958       4.05934419       9.94332331      -0.00001327      -0.00000922      -0.00001426
Fe       0.00000056       0.00000047       0.00000299      -0.00000977      -0.00001628      -0.00009359
Cl       1.83108710       1.29477362       6.62888217       0.00097635       0.00068642      -0.00001513
Cl       5.82328908       4.11768717       6.62888362      -0.00095813      -0.00067864       0.00000347
Cl       4.82523927       1.29477402       4.90020773      -0.00050450       0.00070961       0.00085761
Cl       2.82913897       4.11768684       8.35755661       0.00047590      -0.00065924      -0.00080740
Cl       2.82913686       4.11768719       4.90020843       0.00049633      -0.00070883       0.00085120
Cl       4.82523953       1.29477557       8.35755646      -0.00046176       0.00067179      -0.00081573
