9
Lattice="5.684718943550493 2.3265720555117443e-08 3.282073750452925 1.8949063268173671 5.359604144762909 3.2820737671405267 -2.745262368406211e-08 1.0261171259291177e-09 6.5641475484552085" Properties=species:S:1:pos:R:3:forces:R:3 energy=-50.011741638183594 free_energy=-50.011741638183594 stress="-0.00011600622383411974 8.900362757913172e-08 6.639682581521811e-09 8.900362757913172e-08 -0.00011602562881307676 8.86316264825382e-09 6.639682581521811e-09 8.86316264825382e-09 -0.0001161027976195328" pbc="T T T"
Y        1.89490606       1.33990096       3.28207375      -0.00000044      -0.00000027       0.00000063
Y        5.68471876       4.01970304       9.84622106      -0.00000172      -0.00000079      -0.00000138
Fe      -0.00000003       0.00000017      -0.00000013       0.00000019      -0.00000144       0.00000513
Se       1.86270053       1.31712837       6.56414764       0.00365475       0.00258482       0.00000074
Se       5.71692478       4.04247572       6.56414748      -0.00365338      -0.00258344      -0.00000008
Se       4.75336890       1.31712800       4.89521945      -0.00182968       0.00258660       0.00316933
Se       2.82625690       4.04247647       8.23307570       0.00183217      -0.00258824      -0.00317127
Se       2.82625628       4.04247608       4.89521947       0.00182974      -0.00258717       0.00316966
Se       4.75336876       1.31712783       8.23307588      -0.00183190       0.00259009      -0.00317255
