9
Lattice="5.953267673154068 9.480199548938545e-08 3.437120631707351 1.9844225725930462 5.6127947210819995 3.437120760754034 -1.726259122034198e-07 3.5984316856538524e-08 6.874241562411574" Properties=species:S:1:pos:R:3:forces:R:3 energy=-39.71003723144531 free_energy=-39.71003723144531 stress="0.00011257378355367109 3.187901942425242e-09 -1.859674370052744e-08 3.187901942425242e-09 0.00011265344801358879 4.4958689215945924e-08 -1.859674370052744e-08 4.4958689215945924e-08 0.00011257264850428328" pbc="T T T"
Y        1.98442202       1.40319928       3.43711970      -0.00000234       0.00000406      -0.00000646
Y        5.95326715       4.20959730      10.31136244      -0.00000217       0.00000444      -0.00000019
Fe       0.00000003       0.00000016      -0.00000040       0.00000062      -0.00000767       0.00000398
Br       1.86742685       1.32047002       6.87424215      -0.00242023      -0.00171365       0.00000077
Br       6.07026343       4.29232385       6.87424134       0.00242759       0.00171863      -0.00000192
Br       5.01955448       1.32047010       5.05436022       0.00121247      -0.00171859      -0.00210068
Br       2.91813633       4.29232398       8.69412339      -0.00121495       0.00171646       0.00210403
Br       2.91813586       4.29232440       5.05435996      -0.00121239       0.00171384      -0.00209936
Br       5.01955417       1.32047033       8.69412310       0.00121132      -0.00171757       0.00209985
