9
Lattice="4.676589702554863 4.979765618960119e-08 2.7000301990663242 1.5588633088188815 4.409130447802781 2.700030151115827 2.2640832933868624e-08 -4.271772107543225e-08 5.400060358917631" Properties=species:S:1:pos:R:3:forces:R:3 energy=-55.28047561645508 free_energy=-55.28047561645508 stress="0.0004475280293263495 -3.329766684601054e-08 -9.34941652985799e-08 -3.329766684601054e-08 0.00044754744158126414 -2.1323126375705215e-08 -9.34941652985799e-08 -2.1323126375705215e-08 0.00044751123641617596" pbc="T T T"
Y        1.55886343       1.10228348       2.70002971       0.00000023       0.00000828      -0.00000393
Y        4.67658964       3.30684879       8.10009132      -0.00000026       0.00001017       0.00000552
Fe       0.00000021       0.00000019       0.00000023       0.00000041       0.00000106       0.00000295
F        1.62356929       1.14803642       5.40006041      -0.00506923      -0.00359015       0.00000131
F        4.61188382       3.26109409       5.40005974       0.00507255       0.00358596      -0.00000308
F        3.86480515       1.14803636       4.10608242       0.00253659      -0.00358935      -0.00439198
F        2.37064743       3.26109299       6.69403896      -0.00253873       0.00357865       0.00439586
F        2.37064773       3.26109404       4.10608206      -0.00253556       0.00358516      -0.00439335
F        3.86480538       1.14803555       6.69403796       0.00253418      -0.00359017       0.00438651
