9
Lattice="6.009155824553256 7.204140176282238e-08 3.4693871306653077 2.0030519502973716 5.6654869822055485 3.4693872331016653 -3.792423286218121e-07 -1.4270642626978385e-07 6.938774918197581" Properties=species:S:1:pos:R:3:forces:R:3 energy=-37.78003692626953 free_energy=-37.78003692626953 stress="-5.25638934050221e-05 2.5351580390520212e-08 -4.989675783662051e-09 2.5351580390520212e-08 -5.259944009594619e-05 -3.7496143967530315e-09 -4.989675783662051e-09 -3.7496143967530315e-09 -5.261581827653572e-05" pbc="T T T"
Y        2.00305089       1.41637296       3.46938741      -0.00000712       0.00000648      -0.00000138
Y        6.00915483       4.24911322      10.40815827      -0.00000144      -0.00001164      -0.00002077
Ga       0.00000037       0.00000154       0.00000075      -0.00000518      -0.00001728      -0.00000931
Cl       1.99477728       1.41052135       6.93877493      -0.00129607      -0.00091444       0.00000154
Cl       6.01742918       4.25496459       6.93877611       0.00130826       0.00092079       0.00000852
Cl       5.01176768       1.41052059       5.19691558       0.00064918      -0.00091331      -0.00111699
Cl       3.00044163       4.25496504       8.68063364      -0.00064869       0.00092213       0.00113517
Cl       3.00044035       4.25496587       5.19691642      -0.00065142       0.00091876      -0.00112432
Cl       5.01176735       1.41052249       8.68063420       0.00065243      -0.00091147       0.00112739
