9
Lattice="6.248530902011195 2.6089912709635636e-08 3.607591051941814 2.0828436084173285 5.891171646281814 3.607591138863481 -2.99639766858556e-08 8.526911760670701e-08 7.215182155782787" Properties=species:S:1:pos:R:3:forces:R:3 energy=-34.321319580078125 free_energy=-34.321319580078125 stress="0.0001935381442308426 -1.431236817950321e-08 1.4099073020190644e-08 -1.431236817950321e-08 0.0001935342006618157 8.154389163905762e-09 1.4099073020190644e-08 8.154389163905762e-09 0.00019357967539690435" pbc="T T T"
Y        2.08284391       1.47279265       3.60759147       0.00000054      -0.00000289       0.00000066
Y        6.24853046       4.41837856      10.82277249      -0.00000088      -0.00000074      -0.00000490
Ga      -0.00000008       0.00000007       0.00000032       0.00000184       0.00000024      -0.00000354
Br       2.09503058       1.48141056       7.21518229       0.00194862       0.00137855      -0.00000092
Br       6.23634371       4.40976133       7.21518251      -0.00195065      -0.00137718       0.00000095
Br       5.20101544       1.48141030       5.42194105      -0.00097680       0.00137828       0.00168717
Br       3.13035947       4.40976113       9.00842313       0.00097480      -0.00137523      -0.00168443
Br       3.13035874       4.40976129       5.42194109       0.00097481      -0.00137857       0.00168878
Br       5.20101566       1.48141115       9.00842304      -0.00097226       0.00137761      -0.00168373
