9
Lattice="5.7497844269645135 -2.3018331486686624e-08 3.319639743362982 1.9165948534162427 5.4209489014667485 3.3196396288224506 3.2827338193800525e-08 -1.1707044287611415e-07 6.639279429867297" Properties=species:S:1:pos:R:3:forces:R:3 energy=-43.5196418762207 free_energy=-43.5196418762207 stress="-1.3646816114487592e-05 -1.7377374206262175e-08 -1.074786304400277e-08 -1.7377374206262175e-08 -1.3680161828233395e-05 -4.683001986194313e-09 -1.074786304400277e-08 -4.683001986194313e-09 -1.3653983842232265e-05" pbc="T T T"
Y        1.91659510       1.35523836       3.31963961       0.00000160       0.00000246       0.00000005
Y        5.74978451       4.06571166       9.95891832      -0.00000026      -0.00000114      -0.00000115
Ga      -0.00000005       0.00000059      -0.00000008       0.00000202      -0.00001204       0.00000132
Se       1.99721120       1.41224136       6.63927952      -0.00017631      -0.00012749       0.00000029
Se       5.66916748       4.00870725       6.63927959       0.00018603       0.00012870       0.00000123
Se       4.75117883       1.41224177       5.04927534       0.00008975      -0.00012711      -0.00015175
Se       2.91520069       4.00870636       8.22928313      -0.00009353       0.00012955       0.00016344
Se       2.91520059       4.00870636       5.04927596      -0.00009649       0.00013147      -0.00016315
Se       4.75117894       1.41224130       8.22928382       0.00008720      -0.00012441       0.00014958
