9
Lattice="6.767195452325831 4.54900869306013e-08 3.907042085682374 2.255731873136035 6.38017300765594 3.90704206350238 1.4589729779727458e-08 -1.684834153797336e-08 7.814084146094574" Properties=species:S:1:pos:R:3:forces:R:3 energy=-29.949087142944336 free_energy=-29.949087142944336 stress="0.00024638729519210756 9.761499164540055e-09 5.826410465203935e-09 9.761499164540055e-09 0.0002463938726577908 3.762441913579551e-09 5.826410465203935e-09 3.762441913579551e-09 0.0002463889541104436" pbc="T T T"
Y        2.25573182       1.59504317       3.90704246      -0.00000194       0.00000092       0.00000119
Y        6.76719566       4.78512981      11.72112627       0.00000229       0.00000023       0.00000031
Ga       0.00000008       0.00000004      -0.00000011       0.00000014      -0.00000024      -0.00000052
I        2.28686413       1.61705708       7.81408416       0.00027266       0.00019254      -0.00000062
I        6.73606323       4.76311584       7.81408409      -0.00027235      -0.00019258      -0.00000077
I        5.62376334       1.61705711       5.88752445      -0.00013661       0.00019281       0.00023507
I        3.39916398       4.76311594       9.74064373       0.00013521      -0.00019117      -0.00023477
I        3.39916383       4.76311599       5.88752438       0.00013614      -0.00019376       0.00023539
I        5.62376332       1.61705719       9.74064374      -0.00013563       0.00019118      -0.00023527
