9
Lattice="4.925078178680217 1.5792460965270526e-07 2.843494961761195 1.6416928472955326 4.643408632184654 2.8434950099537293 -7.615801174638365e-08 5.171650229496933e-09 5.6869900554319734" Properties=species:S:1:pos:R:3:forces:R:3 energy=-49.99150085449219 free_energy=-49.99150085449219 stress="-0.0001455259189242497 -9.338498863087352e-09 -9.073346518562175e-09 -9.338498863087352e-09 -0.00014546803140547127 7.35316660893659e-08 -9.073346518562175e-09 7.35316660893659e-08 -0.00014550094783771783" pbc="T T T"
Y        1.64168632       1.16084348       2.84349592      -0.00005852      -0.00008512       0.00000966
Y        4.92507738       3.48255065       8.53048317      -0.00000915      -0.00005774      -0.00001349
Ga      -0.00000032      -0.00000087       0.00000008      -0.00000463      -0.00000073       0.00000360
F        1.62175523       1.14675644       5.68698878       0.00261796       0.00187540      -0.00000806
F        4.94501245       3.49665511       5.68699087      -0.00263989      -0.00184399       0.00000985
F        4.11420301       1.14675677       4.24797853      -0.00128400       0.00186998       0.00227946
F        2.45257178       3.49665778       7.12599921       0.00132975      -0.00181955      -0.00230199
F        2.45257374       3.49665752       4.24797997       0.00132757      -0.00182188       0.00229657
F        4.11420410       1.14675858       7.12600301      -0.00127959       0.00188351      -0.00227541
