9
Lattice="4.476124820386403 2.7537218616118267e-08 2.584291915420118 1.4920416070631335 4.220131036073322 2.584291959924593 1.5770617876105864e-08 6.565812493167919e-08 5.168583803524706" Properties=species:S:1:pos:R:3:forces:R:3 energy=-62.647552490234375 free_energy=-62.647552490234375 stress="7.72097882872913e-06 -1.779903691101481e-08 -1.910609093158655e-08 -1.779903691101481e-08 7.734018254268449e-06 7.753159536605381e-08 -1.910609093158655e-08 7.753159536605381e-08 7.50280378269963e-06" pbc="T T T"
Y        1.49204133       1.05503295       2.58429203       0.00000165      -0.00000145      -0.00000062
Y        4.47612487       3.16509806       7.75287587       0.00000021       0.00000207       0.00000008
Ga      -0.00000009      -0.00000008      -0.00000021       0.00000241       0.00000122       0.00000297
O        1.55396331       1.09881830       5.16858364      -0.00050843      -0.00036067       0.00000030
O        4.41420312       3.12131324       5.16858380       0.00050771       0.00035638       0.00000083
O        3.69914305       1.09881833       3.93006375       0.00025547      -0.00036091      -0.00044149
O        2.26902331       3.12131286       6.40710400      -0.00025472       0.00035924       0.00044137
O        2.26902360       3.12131305       3.93006377      -0.00025654       0.00036073      -0.00044179
O        3.69914332       1.09881780       6.40710402       0.00025252      -0.00035757       0.00043845
