9
Lattice="5.446151869891744 5.704233397275974e-09 3.14433705463197 1.8153839707012067 5.134681787689339 3.1443370395759227 2.1677659863537322e-08 -3.1113763072695293e-09 6.2886740717171445" Properties=species:S:1:pos:R:3:forces:R:3 energy=-47.99201583862305 free_energy=-47.99201583862305 stress="-0.00021535134874284267 -4.77847095226025e-08 -5.518443035867904e-09 -4.77847095226025e-08 -0.0002153168898075819 6.348694014945977e-09 -5.518443035867904e-09 6.348694014945977e-09 -0.0002152950910385698" pbc="T T T"
Y        1.81538443       1.28367087       3.14433690      -0.00000052       0.00000036      -0.00000036
Y        5.44615220       3.85101093       9.43301128       0.00000060       0.00000013      -0.00000063
Ga       0.00000001      -0.00000009      -0.00000002      -0.00000015       0.00000289      -0.00000006
S        1.86748760       1.32051335       6.28867414      -0.00645989      -0.00456658       0.00000009
S        5.39404815       3.81416848       6.28867385       0.00645804       0.00456454      -0.00000030
S        4.51240787       1.32051322       4.76162915       0.00323062      -0.00456811      -0.00559661
S        2.74912781       3.81416838       7.81571897      -0.00323065       0.00456798       0.00559597
S        2.74912766       3.81416864       4.76162924      -0.00323057       0.00456651      -0.00559486
S        4.51240778       1.32051333       7.81571913       0.00323240      -0.00456768       0.00559674
