9
Lattice="6.280966543756779 -1.1810264628355975e-07 3.626317814438651 2.0936554508700715 5.921752047518166 3.626317731936351 2.6017834580394458e-08 -8.264687186673874e-08 7.252635583813121" Properties=species:S:1:pos:R:3:forces:R:3 energy=-39.353126525878906 free_energy=-39.353126525878906 stress="-0.00014499800454359502 -6.122558460219807e-09 6.414268560739345e-10 -6.122558460219807e-09 -0.00014499782992061228 -3.744937249194891e-09 6.414268560739345e-10 -3.744937249194891e-09 -0.0001450105628464371" pbc="T T T"
Y        2.09365540       1.48043807       3.62631795      -0.00000033       0.00000072       0.00000045
Y        6.28096666       4.44131369      10.87895336       0.00000034      -0.00000041      -0.00000032
Ga      -0.00000007       0.00000002       0.00000006      -0.00000021      -0.00000026       0.00000326
Te       2.18925549       1.54803744       7.25263560       0.00587596       0.00415478      -0.00000061
Te       6.18536654       4.37371454       7.25263553      -0.00587526      -0.00415448       0.00000082
Te       5.18633895       1.54803745       5.52226867      -0.00293758       0.00415354       0.00508808
Te       3.18828309       4.37371431       8.98300236       0.00293811      -0.00415564      -0.00508907
Te       3.18828318       4.37371455       5.52226869       0.00293726      -0.00415433       0.00508793
Te       5.18633885       1.54803732       8.98300232      -0.00293830       0.00415595      -0.00509037
