9
Lattice="4.925078032598681 2.2474211599240207e-07 2.8434946386490747 1.6416928151023027 4.6434091585171675 2.8434947673742315 -1.739189541785312e-07 3.4676200656155776e-08 5.686989578534615" Properties=species:S:1:pos:R:3:forces:R:3 energy=-49.99150085449219 free_energy=-49.99150085449219 stress="-0.00014551440835930407 -9.849090432112462e-09 1.522689174748848e-08 -9.849090432112462e-09 -0.00014569367340300232 3.454679031733576e-08 1.522689174748848e-08 3.454679031733576e-08 -0.00014562346041202545" pbc="T T T"
Y        1.64167969       1.16085767       2.84349528      -0.00012874       0.00004890       0.00000471
Y        4.92507328       3.48254920       8.53048260      -0.00004391      -0.00007033      -0.00001971
Ga      -0.00000139       0.00000031      -0.00000041       0.00000352      -0.00000764       0.00000360
F        1.62175483       1.14675676       5.68698972       0.00261831       0.00187755      -0.00000240
F        4.94501823       3.49664726       5.68699152      -0.00259590      -0.00191510       0.00001277
F        4.11420757       1.14675975       4.24797835      -0.00125247       0.00189483       0.00229037
F        2.45257186       3.49665375       7.12600260       0.00132915      -0.00186217      -0.00226653
F        2.45257050       3.49665269       4.24797569       0.00131845      -0.00186700       0.00226605
F        4.11420794       1.14676020       7.12600032      -0.00124869       0.00190097      -0.00228852
