9
Lattice="6.767195633580329 -1.3279003614803501e-08 3.907042087686221 2.2557318653799827 6.380173192783547 3.9070420876179695 -1.4961848072162217e-08 -1.0663250623098734e-08 7.814084201287152" Properties=species:S:1:pos:R:3:forces:R:3 energy=-29.94908905029297 free_energy=-29.94908905029297 stress="0.00024643822689540684 1.0805574213179625e-08 -2.5349047305667227e-09 1.0805574213179625e-08 0.0002464258286636323 3.033125750562249e-09 -2.5349047305667227e-09 3.033125750562249e-09 0.00024641159689053893" pbc="T T T"
Y        2.25573182       1.59504340       3.90704225      -0.00000123       0.00000109       0.00000125
Y        6.76719594       4.78512981      11.72112641       0.00000200       0.00000077      -0.00000032
Ga      -0.00000002       0.00000011      -0.00000004      -0.00000013       0.00000023      -0.00000016
I        2.28686452       1.61705751       7.81408418       0.00026938       0.00019000       0.00000049
I        6.73606294       4.76311563       7.81408429      -0.00026920      -0.00019108      -0.00000075
I        5.62376331       1.61705729       5.88752471      -0.00013488       0.00018971       0.00023340
I        3.39916405       4.76311571       9.74064338       0.00013401      -0.00019028      -0.00023408
I        3.39916403       4.76311588       5.88752484       0.00013565      -0.00019059       0.00023445
I        5.62376334       1.61705735       9.74064348      -0.00013562       0.00019019      -0.00023429
