9
Lattice="6.009156286514759 2.5293795920893465e-08 3.469387878964006 2.0030521450364738 5.6654870306620335 3.4693878344774514 1.35239192050903e-07 4.114388397972441e-08 6.938775523686874" Properties=species:S:1:pos:R:3:forces:R:3 energy=-37.780033111572266 free_energy=-37.780033111572266 stress="-5.260151010588743e-05 8.9117948576245e-09 -3.270880455374936e-08 8.9117948576245e-09 -5.263003185973503e-05 2.1709258390956165e-08 -3.270880455374936e-08 2.1709258390956165e-08 -5.263829734758474e-05" pbc="T T T"
Y        2.00305014       1.41637231       3.46938906      -0.00001199       0.00000238       0.00000466
Y        6.00915571       4.24911309      10.40816366      -0.00000288      -0.00000978       0.00000207
Ga       0.00000017       0.00000034       0.00000117      -0.00000118      -0.00000197      -0.00001116
Cl       1.99477838       1.41052144       6.93877519      -0.00130033      -0.00091612      -0.00000330
Cl       6.01743037       4.25496590       6.93877565       0.00130185       0.00091769      -0.00000190
Cl       5.01176830       1.41052135       5.19691593       0.00065175      -0.00091095      -0.00112328
Cl       3.00044205       4.25496532       8.68063417      -0.00064991       0.00092313       0.00112793
Cl       3.00044125       4.25496616       5.19691632      -0.00064512       0.00091529      -0.00112408
Cl       5.01176787       1.41052239       8.68063364       0.00065795      -0.00091964       0.00112888
