9
Lattice="5.55010566414229 -4.365526482215576e-08 3.2043550585937126 1.8500351629559113 5.232689707891476 3.204355088499743 -5.404140537273468e-09 3.2805957585163016e-08 6.408710126547653" Properties=species:S:1:pos:R:3:forces:R:3 energy=-49.40766143798828 free_energy=-49.40766143798828 stress="-6.576691521331668e-05 1.2695798856654505e-09 -1.722826503680608e-08 1.2695798856654505e-09 -6.568693061126396e-05 2.7960235016166735e-08 -1.722826503680608e-08 2.7960235016166735e-08 -6.574539293069392e-05" pbc="T T T"
Y        1.85003548       1.30817195       3.20435513       0.00000078      -0.00000148       0.00000043
Y        5.55010583       3.92451720       9.61306563       0.00000111      -0.00000100       0.00000150
Ge       0.00000011      -0.00000021      -0.00000023      -0.00000102       0.00000328       0.00000172
S        1.87754527       1.32762504       6.40870993       0.00011998       0.00008601      -0.00000019
S        5.52259529       3.90506492       6.40870991      -0.00012201      -0.00008479      -0.00000099
S        4.61133279       1.32762515       4.83035714      -0.00005886       0.00008410       0.00010133
S        2.78880776       3.90506480       7.98706364       0.00006056      -0.00008518      -0.00010633
S        2.78880782       3.90506482       4.83035683       0.00006115      -0.00008610       0.00010598
S        4.61133296       1.32762518       7.98706320      -0.00006139       0.00008512      -0.00010395
