9
Lattice="5.811287260163579 2.4226170965667746e-08 3.3551482470097045 1.9370957699580678 5.478934223520783 3.3551482578703693 -8.611552527688668e-09 7.212277309135675e-09 6.710296508934994" Properties=species:S:1:pos:R:3:forces:R:3 energy=-44.7797966003418 free_energy=-44.7797966003418 stress="-0.00023895554477348924 -9.096130071384323e-09 4.09976719240035e-09 -9.096130071384323e-09 -0.00023895263439044356 -1.1985888948018442e-09 4.09976719240035e-09 -1.1985888948018442e-09 -0.0002389003348071128" pbc="T T T"
Y        1.93709535       1.36973277       3.35514875      -0.00000076      -0.00000366       0.00000265
Y        5.81128713       4.10920126      10.06544350      -0.00000243       0.00000371      -0.00000630
Ge      -0.00000017      -0.00000001       0.00000052       0.00000015       0.00000024      -0.00001384
Se       1.98641822       1.40460946       6.71029669      -0.00022189      -0.00015858      -0.00000078
Se       5.76196491       4.07432486       6.71029715       0.00022174       0.00015810       0.00000173
Se       4.81807815       1.40460933       5.07543655       0.00010769      -0.00015497      -0.00018854
Se       2.93030542       4.07432448       8.34515615      -0.00011311       0.00016454       0.00019844
Se       2.93030464       4.07432487       5.07543672      -0.00010885       0.00015345      -0.00018997
Se       4.81807844       1.40461001       8.34515604       0.00011745      -0.00016293       0.00019652
