9
Lattice="6.284064875052131 4.642608425642183e-08 3.6281064926169404 2.094688321674297 5.924673234948356 3.628106516485786 8.328800727943062e-10 2.982220715105205e-08 7.25621298379125" Properties=species:S:1:pos:R:3:forces:R:3 energy=-40.36370086669922 free_energy=-40.36370086669922 stress="-2.6841949875233695e-05 8.322493805223985e-09 -1.5528589969449058e-08 8.322493805223985e-09 -2.6832933144760318e-05 -7.764257681230902e-09 -1.5528589969449058e-08 -7.764257681230902e-09 -2.6814213924808428e-05" pbc="T T T"
Y        2.09468862       1.48116818       3.62810632       0.00000121       0.00000045      -0.00000081
Y        6.28406458       4.44350460      10.88432031      -0.00000046      -0.00000066       0.00000216
Ge       0.00000007      -0.00000010       0.00000012      -0.00000060      -0.00000050      -0.00000044
Te       2.19430975       1.55161165       7.25621299      -0.00008729      -0.00006121      -0.00000121
Te       6.18444326       4.37306207       7.25621288       0.00008674       0.00006133       0.00000048
Te       5.18690984       1.55161175       5.52843436       0.00004313      -0.00006155      -0.00007512
Te       3.19184310       4.37306153       8.98399133      -0.00004337       0.00006160       0.00007421
Te       3.19184370       4.37306201       5.52843440      -0.00004308       0.00006187      -0.00007460
Te       5.18690989       1.55161159       8.98399125       0.00004373      -0.00006135       0.00007522
