9
Lattice="5.004559848888825 -3.0813340190518226e-06 2.88937926447429 1.6681839217404646 4.7183347351053735 2.8893788997848047 4.873046142955814e-07 -1.0207507118589141e-07 5.778757684911918" Properties=species:S:1:pos:R:3:forces:R:3 energy=-49.06745910644531 free_energy=-49.06745910644531 stress="0.0002862887631636113 3.7370853078755317e-06 -3.808965232110495e-07 3.7370853078755317e-06 0.00029771283152513206 -2.5713418949635525e-07 -3.808965232110495e-07 -2.5713418949635525e-07 0.0002970736240968108" pbc="T T T"
Y        1.66831898       1.17958930       2.88939371       0.00154874       0.00004138       0.00016403
Y        5.00454019       3.53881877       8.66816089      -0.00023386       0.00085393       0.00027370
Ge       0.00001511       0.00001113       0.00000244      -0.00000580       0.00000732       0.00000714
F        1.75240513       1.23907538       5.77875161      -0.00535822      -0.00436816      -0.00007618
F        4.92034291       3.47926246       5.77874763       0.00538635       0.00441918      -0.00012558
F        4.12829272       1.23908974       4.40695148       0.00205725      -0.00421080      -0.00517341
F        2.54437735       3.47920647       7.15055463      -0.00279236       0.00383210       0.00504419
F        2.54438868       3.47920102       4.40695018      -0.00268397       0.00377414      -0.00515315
F        4.12829577       1.23907191       7.15055077       0.00208181      -0.00434911       0.00503904
