9
Lattice="6.091575495421197 2.2048285326383695e-07 3.516972842858197 2.030525273660875 5.743192895040303 3.516973014942103 -2.6342850182161464e-07 2.448694709208342e-08 7.033946141987846" Properties=species:S:1:pos:R:3:forces:R:3 energy=-38.0517692565918 free_energy=-38.0517692565918 stress="-8.179219003068283e-05 -5.432356342538469e-09 -1.921807779581286e-08 -5.432356342538469e-09 -8.17909967736341e-05 -7.962807302419606e-09 -1.921807779581286e-08 -7.962807302419606e-09 -8.181508746929467e-05" pbc="T T T"
Y        2.03052458       1.43579820       3.51697274      -0.00000805      -0.00000313      -0.00000264
Y        6.09157613       4.30739655      10.55092138       0.00000349       0.00000494       0.00001248
Ge      -0.00000063      -0.00000050      -0.00000065       0.00000123       0.00000103       0.00000081
Cl       2.08788311       1.47635651       7.03394643      -0.00732765      -0.00518477       0.00000161
Cl       6.03421515       4.26683502       7.03394539       0.00733280       0.00518599      -0.00000635
Cl       5.04763460       1.47635785       5.32513340       0.00366615      -0.00518152      -0.00634679
Cl       3.07446687       4.26683560       8.74275788      -0.00366883       0.00518245       0.00634697
Cl       3.07446752       4.26683632       5.32513452      -0.00366552       0.00518540      -0.00634843
Cl       5.04763465       1.47635711       8.74275721       0.00366636      -0.00519034       0.00634223
