9
Lattice="6.347512376887333 2.221854475431417e-07 3.664737965555312 2.115837575570443 5.984492674319343 3.6647381264116907 1.3809904395904677e-09 1.97984539095232e-07 7.329475928718646" Properties=species:S:1:pos:R:3:forces:R:3 energy=-34.76138687133789 free_energy=-34.76138687133789 stress="0.00016666385636199266 9.31717902830087e-09 1.551407358135748e-08 9.31717902830087e-09 0.00016669495380483568 1.0049036269776934e-08 1.551407358135748e-08 1.0049036269776934e-08 0.00016665463044773787" pbc="T T T"
Y        2.11583748       1.49612386       3.66473858      -0.00000103       0.00000291       0.00000274
Y        6.34751309       4.48836854      10.99421318       0.00000348      -0.00000650      -0.00000459
Ge      -0.00000002       0.00000007      -0.00000030      -0.00000136       0.00000089      -0.00000093
Br       2.18830920       1.54736954       7.32947586      -0.00729311      -0.00515202      -0.00000092
Br       6.27504052       4.43712404       7.32947655       0.00729242       0.00515424       0.00000219
Br       5.25335774       1.54736908       5.55986961       0.00364582      -0.00515530      -0.00631610
Br       3.20999225       4.43712405       9.09908249      -0.00364569       0.00515376       0.00631425
Br       3.20999184       4.43712388       5.55986975      -0.00364916       0.00515530      -0.00631344
Br       5.25335772       1.54736933       9.09908245       0.00364840      -0.00515330       0.00631669
