9
Lattice="4.522214417161186 -2.2480237059383733e-07 2.6109016042627955 1.5074046382817339 4.2635845362252835 2.6109015271743052 -7.721190210690927e-08 -1.49010781417804e-07 5.221803342260521" Properties=species:S:1:pos:R:3:forces:R:3 energy=-66.21919250488281 free_energy=-66.21919250488281 stress="-0.0003564528888091445 5.230995725469256e-08 4.9082533593036715e-08 5.230995725469256e-08 -0.0003563873760867864 7.2964844832768e-08 4.9082533593036715e-08 7.2964844832768e-08 -0.00035670120269060135" pbc="T T T"
Y        1.50740456       1.06589596       2.61090164       0.00000122       0.00000138       0.00000079
Y        4.52221435       3.19768804       7.83270511      -0.00000147       0.00000032      -0.00000096
Ge      -0.00000005       0.00000010      -0.00000006      -0.00000156      -0.00000351       0.00000119
O        1.52723783       1.07992045       5.22180345      -0.00092447      -0.00065625      -0.00000179
O        4.50238103       3.18366390       5.22180315       0.00093055       0.00065815      -0.00000112
O        3.75859512       1.07992038       3.93352854       0.00046128      -0.00065750      -0.00080299
O        2.27102381       3.18366389       6.51007767      -0.00046492       0.00065821       0.00080657
O        2.27102385       3.18366384       3.93352860      -0.00046515       0.00065631      -0.00080574
O        3.75859515       1.07992033       6.51007767       0.00046438      -0.00065792       0.00080478
