9
Lattice="6.8162802300589185 6.834720007451167e-08 3.9353811898048505 2.272093454831702 6.426450647897604 3.9353812237985983 8.124540738149971e-09 4.737853825222564e-08 7.870762365537625" Properties=species:S:1:pos:R:3:forces:R:3 energy=-31.00653076171875 free_energy=-31.00653076171875 stress="0.00019616038480307907 -1.6541394920466246e-09 -4.355096283603643e-09 -1.6541394920466246e-09 0.00019614779739640653 1.9441037668599392e-09 -4.355096283603643e-09 1.9441037668599392e-09 0.00019615273049566895" pbc="T T T"
Y        2.27209306       1.60661262       3.93538091      -0.00000154       0.00000069      -0.00000115
Y        6.81628045       4.81983854      11.80614263       0.00000062       0.00000143      -0.00000322
Ge      -0.00000000      -0.00000001      -0.00000016      -0.00000039       0.00000088       0.00000027
I        2.36194387       1.67014650       7.87076259      -0.00159749      -0.00113042       0.00000088
I        6.72642985       4.75630421       7.87076286       0.00159752       0.00112976       0.00000142
I        5.63530845       1.67014631       5.98088483       0.00079917      -0.00113121      -0.00138366
I        3.45306549       4.75630417       9.76064041      -0.00079852       0.00113001       0.00138326
I        3.45306517       4.75630413       5.98088471      -0.00079890       0.00112920      -0.00138220
I        5.63530845       1.67014662       9.76064039       0.00079954      -0.00113016       0.00138433
