9
Lattice="4.653457275379185 5.717336772966815e-08 2.6866747614856408 1.5511524112170516 4.387321903510634 2.6866748789410404 -1.4121180335763614e-07 4.4001076500718646e-08 5.37334976755731" Properties=species:S:1:pos:R:3:forces:R:3 energy=-74.3628921508789 free_energy=-74.3628921508789 stress="-0.00011822010856121778 1.9519568184023228e-07 -2.3985164077089394e-08 1.9519568184023228e-07 -0.00011807337432401255 1.2854136421935891e-08 -2.3985164077089394e-08 1.2854136421935891e-08 -0.00011835475743282586" pbc="T T T"
Y        1.55115254       1.09683058       2.68667440      -0.00000284       0.00000219       0.00000066
Y        4.65345689       3.29049151       8.06002462       0.00000297      -0.00000130      -0.00000035
Hf      -0.00000001       0.00000012      -0.00000021      -0.00000400      -0.00000159       0.00000286
O        1.62399843       1.14834053       5.37334986      -0.00147200      -0.00104201      -0.00000096
O        4.58061109       3.23898115       5.37334969       0.00147498       0.00104609       0.00000137
O        3.84145814       1.14834048       4.09309892       0.00073451      -0.00104114      -0.00127548
O        2.36315158       3.23898167       6.65360069      -0.00073022       0.00103724       0.00126970
O        2.36315177       3.23898167       4.09309871      -0.00073230       0.00103712      -0.00127095
O        3.84145777       1.14834046       6.65360085       0.00072971      -0.00103626       0.00127292
