9
Lattice="6.19684578213289 -6.893459579609274e-08 3.5777509044820626 2.065615359545211 5.842441419001274 3.577750620726335 2.262513557937228e-07 -1.8754447645347318e-07 7.155501417085246" Properties=species:S:1:pos:R:3:forces:R:3 energy=-45.603912353515625 free_energy=-45.603912353515625 stress="1.7994645531871356e-05 1.1056577875478979e-07 -1.3425937694933054e-08 1.1056577875478979e-07 1.7874024706543423e-05 -6.686894948870759e-08 -1.3425937694933054e-08 -6.686894948870759e-08 1.7801674403017387e-05" pbc="T T T"
Y        2.06561926       1.46060816       3.57775069       0.00001126      -0.00000750       0.00000082
Y        6.19684460       4.38183737      10.73324882      -0.00000391       0.00002139      -0.00001016
Hf      -0.00000065       0.00000062      -0.00000039       0.00000715      -0.00001265       0.00000042
Cl       2.05133929       1.45051146       7.15550085      -0.00104952      -0.00075018       0.00000172
Cl       6.21112249       4.39192736       7.15550241       0.00105184       0.00075042       0.00000854
Cl       5.17117571       1.45051203       5.35426125       0.00051674      -0.00074840      -0.00090057
Cl       3.09128386       4.39192788       8.95674170      -0.00052187       0.00074160       0.00091058
Cl       3.09128388       4.39192728       5.35426209      -0.00052771       0.00074399      -0.00091279
Cl       5.17117742       1.45051253       8.95674343       0.00051564      -0.00073844       0.00090170
