9
Lattice="5.046432313935997 3.968265829639172e-08 2.9135594821348274 1.682144078420533 4.757822274352706 2.9135595923590993 -1.411279815139578e-07 3.5204050196688526e-08 5.8271192087105375" Properties=species:S:1:pos:R:3:forces:R:3 energy=-58.38581085205078 free_energy=-58.38581085205078 stress="-0.00023275197600014508 -2.0853976323564893e-08 1.0033840425194285e-07 -2.0853976323564893e-08 -0.00023265172785613686 4.584212476288485e-08 1.0033840425194285e-07 4.584212476288485e-08 -0.00023292236437555403" pbc="T T T"
Y        1.68213677       1.18945612       2.91355754      -0.00005548       0.00000410      -0.00001345
Y        5.04642783       3.56836880       8.74067676      -0.00003864       0.00001715      -0.00002053
Hf      -0.00000212       0.00000007      -0.00000128      -0.00001030       0.00000570       0.00000130
F        1.71611827       1.21347556       5.82712104      -0.00345314      -0.00246823       0.00001080
F        5.01246065       3.54434296       5.82712284       0.00347185       0.00243342       0.00001725
F        4.18837611       1.21347774       4.39976295       0.00175786      -0.00245923      -0.00298417
F        2.54020456       3.54434470       7.25447895      -0.00171155       0.00245243       0.00300807
F        2.54020462       3.54434537       4.39975949      -0.00171655       0.00245959      -0.00300372
F        4.18837800       1.21347801       7.25447545       0.00175586      -0.00244504       0.00298429
