9
Lattice="6.369621585699229 1.3221965358150704e-08 3.6775027306950148 2.1232071538332633 6.005336865989086 3.677502823992925 -1.4526675770058792e-08 1.0399422491513946e-07 7.35500548655097" Properties=species:S:1:pos:R:3:forces:R:3 energy=-48.02619552612305 free_energy=-48.02619552612305 stress="0.00011351816647220403 -1.838044560997787e-08 -1.6215034648325855e-08 -1.838044560997787e-08 0.00011352251749485731 2.526545372916189e-08 -1.6215034648325855e-08 2.526545372916189e-08 0.00011353524314472452" pbc="T T T"
Y        2.12320675       1.50133382       3.67750307      -0.00000097      -0.00000096      -0.00000014
Y        6.36962175       4.50400233      11.03250751       0.00000051      -0.00000080      -0.00000113
Hf       0.00000025       0.00000022       0.00000057      -0.00000303       0.00000207      -0.00000622
Te       2.24748558       1.58921249       7.35500562      -0.00250643      -0.00177203      -0.00000164
Te       6.24534318       4.41612476       7.35500557       0.00250641       0.00177459      -0.00000035
Te       5.24587894       1.58921240       5.62388255       0.00125387      -0.00177333      -0.00217293
Te       3.24695019       4.41612447       9.08612846      -0.00125666       0.00177798       0.00217596
Te       3.24694968       4.41612478       5.62388237      -0.00125071       0.00176926      -0.00216903
Te       5.24587858       1.58921265       9.08612847       0.00125693      -0.00177705       0.00217557
