9
Lattice="6.9448650120191235 -1.8060802541711476e-08 4.009619727473387 2.3149549567252654 6.547681514853763 4.009619779873493 -2.8766786260701877e-09 6.214267111653309e-08 8.019239459929338" Properties=species:S:1:pos:R:3:forces:R:3 energy=-37.460662841796875 free_energy=-37.460662841796875 stress="0.00011152047227369621 -1.3951471089512779e-08 -8.537257123464315e-09 -1.3951471089512779e-08 0.00011152864317409694 6.613237513164449e-09 -8.537257123464315e-09 6.613237513164449e-09 0.00011152160732308403" pbc="T T T"
Y        2.31495477       1.63692008       4.00961987      -0.00000215      -0.00000089      -0.00000119
Y        6.94486485       4.91076165      12.02885861      -0.00000046       0.00000213      -0.00000099
Hf       0.00000004      -0.00000003       0.00000024       0.00000102      -0.00000012      -0.00000005
I        2.32954235       1.64723501       8.01923946       0.00082755       0.00058472       0.00000006
I        6.93027775       4.90044643       8.01923969      -0.00082821      -0.00058496       0.00000060
I        5.78009397       1.64723493       6.02706280      -0.00041384       0.00058487       0.00071716
I        3.47972622       4.90044655      10.01141635       0.00041446      -0.00058451      -0.00071710
I        3.47972606       4.90044655       6.02706259       0.00041503      -0.00058591       0.00071758
I        5.78009389       1.64723510      10.01141627      -0.00041351       0.00058466      -0.00071573
