9
Lattice="6.413838161851824 -1.7528372462123493e-07 3.703031075978554 2.137945993315667 6.047024086466518 3.7030308947642028 6.531430525763786e-08 -1.75757165581493e-07 7.406062038829431" Properties=species:S:1:pos:R:3:forces:R:3 energy=-41.819969177246094 free_energy=-41.819969177246094 stress="2.76924893114483e-05 3.540945980873289e-09 -8.52409254292752e-09 3.540945980873289e-09 2.7646745365927927e-05 -2.561099665676636e-10 -8.52409254292752e-09 -2.561099665676636e-10 2.764574674074538e-05" pbc="T T T"
Y        2.13794612       1.51175625       3.70303096      -0.00000014       0.00000062       0.00000080
Y        6.41383729       4.53526724      11.10909320      -0.00000241      -0.00000213       0.00000121
Hf       0.00000035       0.00000002       0.00000050      -0.00000320      -0.00000717      -0.00000383
Br       2.13957057       1.51290392       7.40606195       0.00370240       0.00261563       0.00000002
Br       6.41221352       4.53411964       7.40606183      -0.00369388      -0.00261176      -0.00000071
Br       5.34405328       1.51290497       5.55595294      -0.00184938       0.00261682       0.00320297
Br       3.20773122       4.53411895       9.25617054       0.00184685      -0.00261211      -0.00319833
Br       3.20773123       4.53411905       5.55595337       0.00184813      -0.00261444       0.00319964
Br       5.34405338       1.51290486       9.25617077      -0.00184891       0.00261438      -0.00320166
