9
Lattice="5.892105625284297 -5.987221630251376e-08 3.401808801522063 1.9640351553091466 5.5551303536017 3.4018087957559002 1.9624865801050287e-08 6.814786330967384e-09 6.8036175690528715" Properties=species:S:1:pos:R:3:forces:R:3 energy=-52.4821891784668 free_energy=-52.4821891784668 stress="-4.0347837057197466e-05 -1.2874943777774206e-08 3.3635694229872115e-09 -1.2874943777774206e-08 -4.0335791709367186e-05 1.9868743095230457e-08 3.3635694229872115e-09 1.9868743095230457e-08 -4.0359584090765566e-05" pbc="T T T"
Y        1.96403525       1.38878255       3.40180880       0.00000065      -0.00000150       0.00000051
Y        5.89210585       4.16634771      10.20542551       0.00000144      -0.00000191      -0.00000631
Hf      -0.00000002      -0.00000009      -0.00000006       0.00000079       0.00000335       0.00000176
Se       2.07171319       1.46492234       6.80361764      -0.00090998      -0.00064155      -0.00000040
Se       5.78442780       4.09020801       6.80361781       0.00090852       0.00064197       0.00000154
Se       4.85624875       1.46492235       5.19596514       0.00045549      -0.00064406      -0.00078899
Se       2.99989201       4.09020788       8.41127024      -0.00045557       0.00064360       0.00078823
Se       2.99989148       4.09020786       5.19596534      -0.00045511       0.00064281      -0.00078551
Se       4.85624890       1.46492261       8.41127022       0.00045392      -0.00064278       0.00078930
