9
Lattice="5.57232617278339 3.1396562818097672e-09 3.217183915713882 1.8574420154791422 5.253639696962235 3.2171839937867563 -8.999290028288261e-08 3.198478476924507e-08 6.434367987300015" Properties=species:S:1:pos:R:3:forces:R:3 energy=-58.060089111328125 free_energy=-58.060089111328125 stress="1.6803378457552753e-05 2.7541782188222896e-08 1.0352425583448621e-08 2.7541782188222896e-08 1.6787811546237208e-05 2.3882980926259734e-08 1.0352425583448621e-08 2.3882980926259734e-08 1.6742753359721974e-05" pbc="T T T"
Y        1.85744220       1.31341029       3.21718389       0.00000230       0.00000137      -0.00000167
Y        5.57232587       3.94022960       9.65155277      -0.00000237       0.00000048       0.00000353
Hf      -0.00000007      -0.00000005      -0.00000016      -0.00000295       0.00000345      -0.00000200
S        1.96048994       1.38627573       6.43436804      -0.00065093      -0.00046001      -0.00000029
S        5.46927809       3.86736404       6.43436780       0.00065124       0.00046153      -0.00000089
S        4.59208125       1.38627615       4.91501760       0.00032459      -0.00045948      -0.00056423
S        2.83768677       3.86736370       7.95371810      -0.00032506       0.00045779       0.00056165
S        2.83768720       3.86736383       4.91501774      -0.00032256       0.00045669      -0.00055867
S        4.59208113       1.38627564       7.95371782       0.00032584      -0.00046182       0.00056256
