9
Lattice="5.938099936644717 -7.536666144159462e-08 3.428363506057116 1.979366555144054 5.598494385118925 3.4283635395685303 -1.5855312189556425e-07 -7.107103460095335e-08 6.856727286736306" Properties=species:S:1:pos:R:3:forces:R:3 energy=-41.8593864440918 free_energy=-41.8593864440918 stress="8.054808131419122e-05 -7.500612042576904e-08 2.2926949228008198e-08 -7.500612042576904e-08 8.05373492767103e-05 -4.658578234284505e-08 2.2926949228008198e-08 -4.658578234284505e-08 8.060339314397424e-05" pbc="T T T"
Y        1.97936692       1.39962280       3.42836432       0.00000065      -0.00000471       0.00000252
Y        5.93809931       4.19887468      10.28509250      -0.00000254       0.00002178       0.00000829
Ir      -0.00000013      -0.00000030      -0.00000025       0.00000164       0.00000020      -0.00000337
Cl       1.93289796       1.36676420       6.85672695       0.00193719       0.00136194      -0.00000147
Cl       5.98456856       4.23172935       6.85672660      -0.00193374      -0.00136726      -0.00000424
Cl       4.97165053       1.36676433       5.10230230      -0.00096844       0.00136171       0.00167356
Cl       2.94581572       4.23172861       8.61115178       0.00096418      -0.00136290      -0.00167058
Cl       2.94581569       4.23172901       5.10230206       0.00096567      -0.00136394       0.00166703
Cl       4.97165078       1.36676425       8.61115102      -0.00096452       0.00135323      -0.00167201
