9
Lattice="4.6574690396979 -1.4286268256121314e-08 2.6889910213878583 1.5524896909229347 4.391103701982594 2.6889909789649904 4.235915982529355e-08 -2.200474940544955e-08 5.3779819694075055" Properties=species:S:1:pos:R:3:forces:R:3 energy=-68.44960021972656 free_energy=-68.44960021972656 stress="-4.693952723755501e-05 1.0014149154358165e-07 -3.5204454462700596e-08 1.0014149154358165e-07 -4.707614425569773e-05 -1.0692745994189679e-10 -3.5204454462700596e-08 -1.0692745994189679e-10 -4.709287532023154e-05" pbc="T T T"
Y        1.55248950       1.09777582       2.68899089       0.00000154       0.00000083       0.00000237
Y        4.65746914       3.29332815       8.06697321      -0.00000104       0.00000199      -0.00000052
Ir       0.00000004       0.00000013      -0.00000000      -0.00000356      -0.00001251       0.00000719
O        1.56373531       1.10572748       5.37798206      -0.00036196      -0.00025549       0.00000147
O        4.64622368       3.28537596       5.37798185       0.00036909       0.00026027      -0.00000356
O        3.87560142       1.10572723       4.04322527       0.00017895      -0.00025185      -0.00030848
O        2.33435722       3.28537636       6.71273877      -0.00017902       0.00025116       0.00030869
O        2.33435704       3.28537600       4.04322517      -0.00018073       0.00025420      -0.00031238
O        3.87560178       1.10572751       6.71273881       0.00017668      -0.00024872       0.00030507
