9
Lattice="6.1699601944224005 -5.9582008554709734e-08 3.5622281843117416 2.0566533281529478 5.817094407226083 3.5622282082372716 -7.871318088793655e-08 -2.6355985428443052e-08 7.124456504958726" Properties=species:S:1:pos:R:3:forces:R:3 energy=-39.1424674987793 free_energy=-39.1424674987793 stress="4.3704632844310254e-05 -2.7367665467181723e-08 3.434092565868241e-09 -2.7367665467181723e-08 4.3726147850975394e-05 7.857418715673248e-09 3.434092565868241e-09 7.857418715673248e-09 4.3744759750552475e-05" pbc="T T T"
Y        2.05665376       1.45427332       3.56222796       0.00000151      -0.00000231      -0.00000292
Y        6.16996080       4.36282068      10.68668480       0.00000443       0.00000008       0.00000005
Ir      -0.00000013      -0.00000007      -0.00000007       0.00000165       0.00000382       0.00000392
Br       2.00710184       1.41923569       7.12445666       0.00120115       0.00085116      -0.00000032
Br       6.21951129       4.39785901       7.12445637      -0.00120619      -0.00085250       0.00000025
Br       5.16640903       1.41923550       5.30042963      -0.00060074       0.00084823       0.00104018
Br       3.06020410       4.39785879       8.94848321       0.00059985      -0.00084885      -0.00104269
Br       3.06020438       4.39785886       5.30042959       0.00059935      -0.00084886       0.00104207
Br       5.16640872       1.41923552       8.94848343      -0.00060100       0.00084923      -0.00104055
