9
Lattice="6.171803732918232 1.5919810707200562e-07 3.5632925951678387 2.0572680358460422 5.818832750690706 3.563292638850345 1.0238764120763703e-08 6.073984305133558e-08 7.126585172601636" Properties=species:S:1:pos:R:3:forces:R:3 energy=-39.142425537109375 free_energy=-39.142425537109375 stress="0.00030471544596366584 6.929376183961722e-08 -1.0500575520211441e-08 6.929376183961722e-08 0.00030463517759926617 1.2048126052377484e-08 -1.0500575520211441e-08 1.2048126052377484e-08 0.00030458992114290595" pbc="T T T"
Y        2.05726793       1.45470751       3.56329297       0.00000062      -0.00000271       0.00000161
Y        6.17180336       4.36412514      10.68987771      -0.00000230       0.00000172      -0.00000063
Ir       0.00000014       0.00000016      -0.00000001      -0.00000663      -0.00000441       0.00000120
Br       2.00742675       1.41946502       7.12658499       0.00071248       0.00050081       0.00000031
Br       6.22164503       4.39936810       7.12658523      -0.00070687      -0.00049982       0.00000028
Br       5.16809080       1.41946487       5.30177460      -0.00035725       0.00050643       0.00062006
Br       3.06098121       4.39936798       8.95139555       0.00035817      -0.00050404      -0.00061982
Br       3.06098111       4.39936814       5.30177486       0.00035852      -0.00050483       0.00061949
Br       5.16809076       1.41946496       8.95139570      -0.00035679       0.00050697      -0.00062242
