9
Lattice="6.660804545750292 2.50810680547683e-08 3.8456172251688656 2.220268241437931 6.279866710188809 3.845617163032377 6.156631249942723e-08 -3.256733712168258e-08 7.691234343701736" Properties=species:S:1:pos:R:3:forces:R:3 energy=-35.55782699584961 free_energy=-35.55782699584961 stress="0.00022710520715918392 5.148178328084896e-09 1.6660203883134272e-08 5.148178328084896e-09 0.0002270956611027941 -2.18673772423017e-08 1.6660203883134272e-08 -2.18673772423017e-08 0.00022708515461999923" pbc="T T T"
Y        2.22026779       1.56996672       3.84561707      -0.00000175      -0.00000004      -0.00000032
Y        6.66080486       4.70989976      11.53685103       0.00000012      -0.00000104      -0.00000199
Ir      -0.00000011       0.00000021       0.00000001      -0.00000166       0.00000052      -0.00000000
I        2.17855522       1.54047133       7.69123428      -0.00283852      -0.00200719      -0.00000007
I        6.70251761       4.73939546       7.69123456       0.00284004       0.00200759       0.00000063
I        5.57152730       1.54047105       5.73230136       0.00141890      -0.00200534      -0.00245565
I        3.30954581       4.73939548       9.65016755      -0.00141841       0.00200592       0.00245664
I        3.30954570       4.73939553       5.73230142      -0.00141926       0.00200745      -0.00245814
I        5.57152722       1.54047127       9.65016762       0.00142062      -0.00200790       0.00245881
