9
Lattice="4.617517886660255 1.2076511202133006e-07 2.6659252249953354 1.5391726755319066 4.353437665135273 2.6659253414121564 -1.5550546587486937e-08 1.3158501739039537e-07 5.33185047692501" Properties=species:S:1:pos:R:3:forces:R:3 energy=-53.88508605957031 free_energy=-53.88508605957031 stress="0.00010352479148423299 2.0904028730228674e-08 5.923783685801709e-09 2.0904028730228674e-08 0.00010356029815739021 -1.8184353578476475e-08 5.923783685801709e-09 -1.8184353578476475e-08 0.00010344608017476276" pbc="T T T"
Y        1.53917230       1.08835816       2.66592518      -0.00000562      -0.00000910       0.00000028
Y        4.61751818       3.26507895       7.99777577       0.00000140       0.00000292      -0.00000004
Ir       0.00000002       0.00000012       0.00000033       0.00000105      -0.00000522      -0.00000750
F        1.69934995       1.20162210       5.33185066      -0.00142986      -0.00101334       0.00000109
F        4.45734028       3.15181603       5.33185072       0.00143218       0.00101680       0.00000077
F        3.76784275       1.20162205       4.13760578       0.00071487      -0.00101349      -0.00123572
F        2.38884775       3.15181608       6.52609485      -0.00071710       0.00101954       0.00124198
F        2.38884781       3.15181610       4.13760603      -0.00071701       0.00101885      -0.00123924
F        3.76784314       1.20162215       6.52609492       0.00071937      -0.00101668       0.00123832
