9
Lattice="6.661136664385623 -3.119993613006327e-08 3.8458090178540782 2.220378899318752 6.280179933587036 3.845808947522779 6.334041007525582e-08 -4.134947291665818e-08 7.6916179259993145" Properties=species:S:1:pos:R:3:forces:R:3 energy=-35.55781555175781 free_energy=-35.55781555175781 stress="0.0002760591742116958 8.853381139317662e-09 -1.3295529122103744e-08 8.853381139317662e-09 0.0002760511124506593 6.0038227722714055e-09 -1.3295529122103744e-08 6.0038227722714055e-09 0.00027604098431766033" pbc="T T T"
Y        2.22037892       1.57004513       3.84580910      -0.00000028      -0.00000081       0.00000069
Y        6.66113651       4.71013484      11.53742746       0.00000004       0.00000009       0.00000330
Ir       0.00000002       0.00000000       0.00000007       0.00000039      -0.00000017      -0.00000163
I        2.17866652       1.54054998       7.69161791      -0.00359406      -0.00254112       0.00000034
I        6.70284915       4.73962982       7.69161791       0.00359479       0.00254139      -0.00000188
I        5.57180333       1.54054987       5.73258942       0.00179677      -0.00253974      -0.00311211
I        3.30971214       4.73963004       9.65064616      -0.00179767       0.00254160       0.00311156
I        3.30971245       4.73962999       5.73258943      -0.00179549       0.00254034      -0.00311078
I        5.57180347       1.54054976       9.65064611       0.00179558      -0.00254156       0.00311045
