9
Lattice="4.617579679269927 1.2943025723426276e-07 2.6659608593304696 1.539193293847717 4.353496121869592 2.665960953906731 6.07870908995336e-08 1.5881472887379676e-07 5.331921613374641" Properties=species:S:1:pos:R:3:forces:R:3 energy=-53.88508224487305 free_energy=-53.88508224487305 stress="0.00014763027138542384 -2.2481032146970392e-08 -1.3520923936027884e-08 -2.2481032146970392e-08 0.0001477005862398073 7.249438027656652e-08 -1.3520923936027884e-08 7.249438027656652e-08 0.00014771480346098542" pbc="T T T"
Y        1.53919365       1.08837425       2.66596073       0.00000180       0.00000136      -0.00000063
Y        4.61758015       3.26512222       7.99788298       0.00000152      -0.00000132       0.00000297
Ir       0.00000006       0.00000012       0.00000004       0.00000046      -0.00000351       0.00000029
F        1.69942910       1.20167762       5.33192186      -0.00265056      -0.00187430       0.00000106
F        4.45734405       3.15181870       5.33192167       0.00264961       0.00187427      -0.00000168
F        3.76786531       1.20167841       4.13770935       0.00132638      -0.00187230      -0.00229657
F        2.38890733       3.15181839       6.52613370      -0.00132877       0.00187531       0.00229838
F        2.38890744       3.15181807       4.13770957      -0.00132737       0.00187376      -0.00229922
F        3.76786510       1.20167793       6.52613389       0.00132629      -0.00187325       0.00229537
