9
Lattice="5.532996102236954 -5.132108728919843e-08 3.1944768535435486 1.8443320121218147 5.216558422331135 3.194476807767512 1.4346182948119361e-08 -4.591969831958061e-08 6.3889536822387365" Properties=species:S:1:pos:R:3:forces:R:3 energy=-54.04863357543945 free_energy=-54.04863357543945 stress="2.9856659239158034e-05 -5.6517293067770424e-09 1.558992046568619e-08 -5.6517293067770424e-09 2.9872384402551688e-05 -4.257330132872994e-08 1.558992046568619e-08 -4.257330132872994e-08 2.987737207149621e-05" pbc="T T T"
Y        1.84433208       1.30413924       3.19447661       0.00000031      -0.00000088      -0.00000022
Y        5.53299627       3.91241889       9.58343049      -0.00000028      -0.00000002      -0.00000026
Ir      -0.00000023       0.00000005       0.00000014       0.00000164      -0.00000035       0.00000151
S        1.87895334       1.32862050       6.38895357      -0.00019038      -0.00013459      -0.00000142
S        5.49837476       3.88793786       6.38895357       0.00018996       0.00013316       0.00000040
S        4.59351950       1.32862050       4.82169842       0.00009307      -0.00013280      -0.00016356
S        2.78380857       3.88793768       7.95620901      -0.00009415       0.00013494       0.00016493
S        2.78380875       3.88793792       4.82169855      -0.00009587       0.00013590      -0.00016618
S        4.59351938       1.32862070       7.95620905       0.00009573      -0.00013512       0.00016510
