9
Lattice="6.121322246940522 -6.513477933304838e-08 3.5341471588359727 2.040440667257152 5.77123809079603 3.5341471940197926 -7.308839918717119e-08 -8.59012420806603e-09 7.068294444264841" Properties=species:S:1:pos:R:3:forces:R:3 energy=-46.385719299316406 free_energy=-46.385719299316406 stress="-4.603615161613561e-05 -7.021652592698047e-09 -1.5350881676923223e-09 -7.021652592698047e-09 -4.603468914865516e-05 -5.306402872662375e-09 -1.5350881676923223e-09 -5.306402872662375e-09 -4.603415072779171e-05" pbc="T T T"
Y        2.04044005       1.44280932       3.53414798      -0.00000189      -0.00000020       0.00000128
Y        6.12132219       4.32842864      10.60244094       0.00000046      -0.00000024      -0.00000111
Mn      -0.00000003      -0.00000012       0.00000001       0.00000100      -0.00000049      -0.00000240
Te       2.05353022       1.45206547       7.06829450       0.00585552       0.00414055      -0.00000061
Te       6.10823273       4.31917270       7.06829458      -0.00585544      -0.00414087       0.00000097
Te       5.09455707       1.45206505       5.31255671      -0.00292844       0.00414066       0.00507186
Te       3.06720599       4.31917300       8.82403212       0.00292696      -0.00413816      -0.00506976
Te       3.06720577       4.31917282       5.31255654       0.00292753      -0.00414099       0.00507070
Te       5.09455739       1.45206519       8.82403173      -0.00292580       0.00413980      -0.00507085
