9
Lattice="5.732298157101825 -3.334826616610375e-08 3.30954389849427 1.9107660828780748 5.404462078665978 3.309543791190534 1.0344569355723416e-07 -5.82725246467953e-08 6.619087617815267" Properties=species:S:1:pos:R:3:forces:R:3 energy=-50.76809310913086 free_energy=-50.76809310913086 stress="-9.913912799675018e-05 2.7641128497180034e-08 -1.4379147650345203e-08 2.7641128497180034e-08 -9.907278581522405e-05 1.609206812247521e-08 -1.4379147650345203e-08 1.609206812247521e-08 -9.916346607496962e-05" pbc="T T T"
Y        1.91076570       1.35111582       3.30954421      -0.00000143      -0.00000009       0.00000135
Y        5.73229831       4.05334614       9.92863170      -0.00000004      -0.00000062       0.00000085
Mn      -0.00000008      -0.00000002      -0.00000058      -0.00000104       0.00000100       0.00000672
Se       1.90649830       1.34809781       6.61908769       0.00439873       0.00311199       0.00000121
Se       5.73656630       4.05636411       6.61908770      -0.00439870      -0.00311121       0.00000088
Se       4.77904894       1.34809779       4.96061933      -0.00220034       0.00311074       0.00380802
Se       2.86401530       4.05636443       8.27755576       0.00220242      -0.00311357      -0.00381452
Se       2.86401531       4.05636437       4.96061940       0.00220111      -0.00311181       0.00380981
Se       4.77904936       1.34809749       8.27755593      -0.00220059       0.00311357      -0.00381449
