9
Lattice="6.696326613609114 -1.0873946207251879e-08 3.8661259879072682 2.232108853258544 6.3133571368053625 3.866126001230929 1.6192817964824766e-08 2.776816226655717e-08 7.732251947767769" Properties=species:S:1:pos:R:3:forces:R:3 energy=-36.323421478271484 free_energy=-36.323421478271484 stress="-1.3458683497447055e-05 3.5070135684378556e-09 5.678967851530103e-10 3.5070135684378556e-09 -1.3460329682857264e-05 9.595654132388276e-12 5.678967851530103e-10 9.595654132388276e-12 -1.3476136700774077e-05" pbc="T T T"
Y        2.23210938       1.57834055       3.86612598       0.00000200       0.00000669       0.00000017
Y        6.69632627       4.73501828      11.59837803      -0.00000185       0.00000206       0.00000072
Mn       0.00000015       0.00000030      -0.00000000      -0.00000082      -0.00000275      -0.00000129
I        2.23970577       1.58371111       7.73225200       0.00313115       0.00221305      -0.00000059
I        6.68872960       4.72964532       7.73225198      -0.00312819      -0.00221351      -0.00000006
I        5.57647350       1.58371106       5.80576809      -0.00156643       0.00221282       0.00271069
I        3.35196192       4.72964556       9.65873578       0.00156493      -0.00221436      -0.00270924
I        3.35196189       4.72964549       5.80576821       0.00156484      -0.00221488       0.00270918
I        5.57647344       1.58371093       9.65873571      -0.00156566       0.00221069      -0.00270954
