9
Lattice="4.488136851731084 1.9099981327523932e-07 2.591227031340545 1.49604572536498 4.231456902998429 2.591227155970439 -5.356799966834071e-08 1.1476154006968077e-07 5.18245415546354" Properties=species:S:1:pos:R:3:forces:R:3 energy=-69.04075622558594 free_energy=-69.04075622558594 stress="-4.130900924792513e-05 4.033901390698702e-08 1.2300695573230769e-08 4.033901390698702e-08 -4.1373652493348345e-05 -5.599866526040387e-08 1.2300695573230769e-08 -5.599866526040387e-08 -4.1423376387683675e-05" pbc="T T T"
Y        1.49604553       1.05786450       2.59122680      -0.00000115       0.00000190       0.00000107
Y        4.48813737       3.17359317       7.77368111      -0.00000109      -0.00000148      -0.00000026
Mn      -0.00000017       0.00000017       0.00000001       0.00000496      -0.00000294      -0.00000057
O        1.50924140       1.06719490       5.18245413      -0.00060618      -0.00043213       0.00000193
O        4.47494145       3.16426227       5.18245451       0.00060272       0.00042576      -0.00000361
O        3.73351630       1.06719454       3.89826806       0.00030020      -0.00041997      -0.00051644
O        2.25066611       3.16426188       6.46664034      -0.00030369       0.00042868       0.00052068
O        2.25066577       3.16426225       3.89826830      -0.00029719       0.00042659      -0.00051883
O        3.73351635       1.06719510       6.46664038       0.00030127      -0.00042602       0.00051510
