9
Lattice="4.647529258681116 1.8423954361480477e-08 2.6832522737307265 1.5491764354716502 4.381732586906663 2.6832522762577624 3.8603842997499545e-08 3.039200918499897e-08 5.366504480597621" Properties=species:S:1:pos:R:3:forces:R:3 energy=-70.19111633300781 free_energy=-70.19111633300781 stress="-9.623482765164226e-05 -1.7125973528209215e-08 7.405256496895163e-08 -1.7125973528209215e-08 -9.624875383451581e-05 -6.746736147533738e-08 7.405256496895163e-08 -6.746736147533738e-08 -9.618015610612929e-05" pbc="T T T"
Y        1.54917571       1.09543284       2.68325239      -0.00000187      -0.00000244       0.00000081
Y        4.64753010       3.28629869       8.04975766       0.00000318      -0.00000155       0.00000472
Mo       0.00000011      -0.00000016      -0.00000004       0.00000046       0.00000811      -0.00000512
O        1.56463235       1.10636271       5.36650455      -0.00720920      -0.00509603      -0.00000095
O        4.63207317       3.27537036       5.36650400       0.00720528       0.00509372      -0.00000223
O        3.86521311       1.10636241       4.03826355       0.00359999      -0.00509382      -0.00624034
O        2.33149241       3.27537069       6.69474500      -0.00360236       0.00509632       0.00623800
O        2.33149295       3.27537064       4.03826370      -0.00360114       0.00509657      -0.00624055
O        3.86521308       1.10636243       6.69474530       0.00360572      -0.00510062       0.00624476
