9
Lattice="5.882106861960339 4.2955569899615474e-07 3.3960356317033544 1.9607025106758196 5.545704206591373 3.3960359463014766 6.601520641068666e-08 4.3198221577007876e-07 6.792071149065015" Properties=species:S:1:pos:R:3:forces:R:3 energy=-44.173583984375 free_energy=-44.173583984375 stress="0.00027118195430375636 4.8381409101239115e-08 -5.1068056450276345e-08 4.8381409101239115e-08 0.00027104857144877315 2.1407627670555485e-08 -5.1068056450276345e-08 2.1407627670555485e-08 0.00027116204728372395" pbc="T T T"
Y        1.96070185       1.38642464       3.39603759      -0.00000417      -0.00001118       0.00001338
Y        5.88210461       4.15927950      10.18810506      -0.00001676      -0.00000132      -0.00001379
Mo      -0.00000002      -0.00000026       0.00000016       0.00000430       0.00000012       0.00000229
Cl       1.98189178       1.40140891       6.79207088      -0.00071853      -0.00051568      -0.00000628
Cl       5.86091707       4.14429652       6.79207153       0.00072223       0.00051752       0.00000528
Cl       4.89116149       1.40141026       5.11240381       0.00035954      -0.00051351      -0.00062695
Cl       2.95164991       4.14429529       8.47173943      -0.00035201       0.00051646       0.00063306
Cl       2.95164849       4.14429551       5.11240409      -0.00036129       0.00051308      -0.00062740
Cl       4.89116276       1.40140993       8.47173835       0.00036651      -0.00050530       0.00062034
