9
Lattice="5.881943305809726 2.155803873605661e-07 3.395941625642803 1.960647946886597 5.5455494608592435 3.3959416688882955 -5.83021463560257e-09 4.884209625961235e-08 6.791883261383858" Properties=species:S:1:pos:R:3:forces:R:3 energy=-44.173587799072266 free_energy=-44.173587799072266 stress="0.00025909385294653475 -2.1697879049042967e-08 -4.9242238731039834e-08 -2.1697879049042967e-08 0.0002590567455627024 5.622835885787936e-08 -4.9242238731039834e-08 5.622835885787936e-08 0.00025905511574819684" pbc="T T T"
Y        1.96064487       1.38638662       3.39594170      -0.00002045      -0.00000747       0.00000408
Y        5.88194580       4.15916270      10.18782564       0.00001388       0.00000013       0.00000413
Mo      -0.00000002       0.00000002       0.00000005       0.00000246       0.00000193      -0.00000073
Cl       1.98187068       1.40139494       6.79188346      -0.00075608      -0.00052966       0.00000016
Cl       5.86072043       4.14415498       6.79188284       0.00075418       0.00053188      -0.00000213
Cl       4.89100835       1.40139492       5.11229278       0.00038347      -0.00053623      -0.00064993
Cl       2.95158282       4.14415543       8.47147359      -0.00037988       0.00053804       0.00064889
Cl       2.95158343       4.14415506       5.11229214      -0.00038134       0.00053567      -0.00064912
Cl       4.89100865       1.40139419       8.47147382       0.00038363      -0.00053427       0.00064471
