9
Lattice="4.578555693545505 -1.659776058945633e-07 2.6434306300578316 1.526185155911542 4.316703771839659 2.643430489389499 8.277632657610754e-08 -1.1375110564399302e-07 5.286861116742844" Properties=species:S:1:pos:R:3:forces:R:3 energy=-51.87577819824219 free_energy=-51.87577819824219 stress="-0.00044602822163142264 -1.826341105015672e-07 2.415695234958548e-07 -1.826341105015672e-07 -0.0004463631776161492 -2.1061685728795965e-08 2.415695234958548e-07 -2.1061685728795965e-08 -0.00044611928751692176" pbc="T T T"
Y        1.52618301       1.07917482       2.64343025      -0.00002436      -0.00000798      -0.00000853
Y        4.57855532       3.23752780       7.93029114      -0.00000804       0.00000080      -0.00000651
Mo       0.00000006       0.00000046      -0.00000031       0.00000309       0.00000158       0.00002372
F        1.71639675       1.21367487       5.28686132       0.00161576       0.00113916       0.00000242
F        4.38834544       3.10302859       5.28686199      -0.00161028      -0.00113916       0.00000218
F        3.72035855       1.21367504       4.12987307      -0.00079775       0.00114059       0.00140405
F        2.38438348       3.10302874       6.44384975       0.00081718      -0.00114930      -0.00140357
F        2.38438331       3.10302879       4.12987243       0.00081813      -0.00114262       0.00140214
F        3.72035776       1.21367511       6.44384935      -0.00081348       0.00115764      -0.00141501
