9
Lattice="6.206407128694739 -8.504158276886496e-08 3.5832710140830732 2.0688022730975977 5.851457129788968 3.5832710538440367 2.5083545193957195e-09 5.047070423524767e-08 7.1665420238215605" Properties=species:S:1:pos:R:3:forces:R:3 energy=-40.50849914550781 free_energy=-40.50849914550781 stress="0.0003313004272058606 2.72014002433707e-08 -1.2249813607922988e-08 2.72014002433707e-08 0.00033128485665656626 1.4035292039693559e-08 -1.2249813607922988e-08 1.4035292039693559e-08 0.0003312509797979146" pbc="T T T"
Y        2.06880251       1.46286438       3.58327143       0.00000133       0.00000018       0.00000225
Y        6.20640683       4.38859183      10.74981318      -0.00000271      -0.00000421       0.00000029
Mo       0.00000044      -0.00000000      -0.00000034      -0.00000627       0.00000557       0.00000489
Br       2.09928263       1.48441677       7.16654169      -0.00700206      -0.00494952      -0.00000135
Br       6.17592720       4.36704035       7.16654199       0.00700200       0.00495204       0.00000033
Br       5.15676598       1.48441705       5.40130270       0.00350188      -0.00495080      -0.00606741
Br       3.11844310       4.36704055       8.93178158      -0.00349665       0.00494682       0.00605813
Br       3.11844291       4.36704095       5.40130215      -0.00349760       0.00494719      -0.00605960
Br       5.15676602       1.48441647       8.93178200       0.00350003      -0.00494724       0.00606248
