9
Lattice="5.836006575201132 7.487220466353403e-08 3.369419848791284 1.9453355796706615 5.50223978870541 3.3694198764808756 -7.279764845009211e-08 -1.7563008830911305e-08 6.738839823671826" Properties=species:S:1:pos:R:3:forces:R:3 energy=-51.801727294921875 free_energy=-51.801727294921875 stress="-0.0002554337843321264 8.602508927424424e-08 -5.497409194532565e-09 8.602508927424424e-08 -0.0002554951061028987 2.6935197183775017e-08 -5.497409194532565e-09 2.6935197183775017e-08 -0.0002555644605308771" pbc="T T T"
Y        1.94533534       1.37555989       3.36942004      -0.00000017      -0.00000065       0.00000013
Y        5.83600637       4.12667965      10.10826025      -0.00000215      -0.00000194       0.00000255
Mo       0.00000008       0.00000001      -0.00000011      -0.00000261       0.00000034       0.00000051
Se       2.01419143       1.42424849       6.73883986      -0.00736273      -0.00520579      -0.00000082
Se       5.76715049       4.07799127       6.73883959       0.00736538       0.00520818      -0.00000096
Se       4.82891119       1.42424845       5.11376025       0.00368011      -0.00520125      -0.00637259
Se       2.95243128       4.07799163       8.36391897      -0.00367894       0.00520229       0.00637123
Se       2.95243117       4.07799174       5.11376028      -0.00367772       0.00520063      -0.00637029
Se       4.82891099       1.42424824       8.36391908       0.00367879      -0.00520170       0.00637009
