9
Lattice="4.578258126653984 2.7473826585147086e-07 2.6432589805673725 1.5260863318139561 4.3164225578077735 2.6432589276182337 1.9973604105535892e-07 7.638546734616456e-08 5.2865176151818245" Properties=species:S:1:pos:R:3:forces:R:3 energy=-51.875789642333984 free_energy=-51.875789642333984 stress="-0.0005061959964223206 -4.91932155455288e-07 1.0690548180036785e-07 -4.91932155455288e-07 -0.0005056267837062478 -1.174873816012223e-07 1.0690548180036785e-07 -1.174873816012223e-07 -0.0005075123626738787" pbc="T T T"
Y        1.52608501       1.07910605       2.64326009      -0.00002030       0.00000057       0.00001964
Y        4.57826021       3.23732023       7.92977893       0.00003330       0.00004878       0.00002612
Mo       0.00000075       0.00000088       0.00000009      -0.00000356       0.00001321      -0.00002053
F        1.71631110       1.21361365       5.28651627       0.00223446       0.00156748      -0.00001549
F        4.38803572       3.10280814       5.28651737      -0.00221133      -0.00157464      -0.00000558
F        3.72010354       1.21361194       4.12962862      -0.00111330       0.00154209       0.00195527
F        2.38423964       3.10280958       6.44340667       0.00108778      -0.00155389      -0.00195599
F        2.38423864       3.10280865       4.12962811       0.00108969      -0.00157428       0.00195432
F        3.72010406       1.21361268       6.44340572      -0.00109696       0.00153148      -0.00195789
