9
Lattice="6.770767365909958 -2.915464431992418e-08 3.9091043830621177 2.2569224957396696 6.3835404439066945 3.909104265414964 7.790199413976596e-08 -8.900276098071621e-08 7.818208631194055" Properties=species:S:1:pos:R:3:forces:R:3 energy=-36.31956481933594 free_energy=-36.31956481933594 stress="1.0167966138396878e-05 1.5925843754871494e-08 1.0855166543422001e-08 1.5925843754871494e-08 1.0157879842154216e-05 -2.179208635766372e-08 1.0855166543422001e-08 -2.179208635766372e-08 1.0147464308829512e-05" pbc="T T T"
Y        2.25692235       1.59588464       3.90910476      -0.00000033      -0.00000057       0.00000254
Y        6.77076752       4.78765474      11.72731307       0.00000005      -0.00000365      -0.00000017
Mo       0.00000120       0.00000053      -0.00000016      -0.00001582      -0.00000700      -0.00000179
I        2.28095985       1.61288249       7.81820877      -0.00050890      -0.00035826      -0.00000097
I        6.74672890       4.77065748       7.81820845       0.00052410       0.00037022      -0.00000099
I        5.63028731       1.61288214       5.88447343       0.00025532      -0.00036242      -0.00044362
I        3.39740277       4.77065841       9.75194331      -0.00025606       0.00036350       0.00044280
I        3.39740269       4.77065797       5.88447388      -0.00025768       0.00036316      -0.00044488
I        5.63028717       1.61288292       9.75194360       0.00025926      -0.00036502       0.00044704
