9
Lattice="6.334109671197539 -1.8353764261659735e-08 3.656999876684632 2.1113698747118153 5.9718558528812276 3.6569998738843568 -2.22589193473868e-08 -1.9169022721542093e-08 7.313999791922836" Properties=species:S:1:pos:R:3:forces:R:3 energy=-47.272769927978516 free_energy=-47.272769927978516 stress="8.453906048089266e-06 6.225427728878685e-09 2.252807718150507e-09 6.225427728878685e-09 8.478686140733771e-06 -8.024797715222576e-09 2.252807718150507e-09 -8.024797715222576e-09 8.475813956465572e-06" pbc="T T T"
Y        2.11136978       1.49296388       3.65699960       0.00000000      -0.00000037      -0.00000079
Y        6.33410978       4.47889209      10.97099970       0.00000056       0.00000053       0.00000114
Nb       0.00000000      -0.00000009      -0.00000023       0.00000112       0.00000161      -0.00000142
Te       2.21427647       1.56572964       7.31399983      -0.00011342      -0.00007978      -0.00000004
Te       6.23120300       4.40612610       7.31399978       0.00011102       0.00007831       0.00000043
Te       5.22697158       1.56572964       5.57461948       0.00005670      -0.00007838      -0.00009649
Te       3.21850783       4.40612614       9.05338037      -0.00005642       0.00007866       0.00009615
Te       3.21850813       4.40612609       5.57461951      -0.00005652       0.00007876      -0.00009682
Te       5.22697154       1.56572975       9.05338014       0.00005697      -0.00007933       0.00009765
