9
Lattice="5.712269281571582 1.461835419334283e-07 3.2979804000008808 1.9040899402737046 5.3855795176295205 3.2979803273816404 3.084597852102667e-07 1.2917399461673689e-07 6.595960265733729" Properties=species:S:1:pos:R:3:forces:R:3 energy=-43.972721099853516 free_energy=-43.972721099853516 stress="0.00012461173173505813 2.7403565638906002e-08 1.926973425270262e-08 2.7403565638906002e-08 0.0001245853491127491 -1.456687837020354e-08 1.926973425270262e-08 -1.456687837020354e-08 0.0001245021412614733" pbc="T T T"
Y        1.90408923       1.34639271       3.29798074      -0.00000408      -0.00001505       0.00000493
Y        5.71227001       4.03918647       9.89394061      -0.00000071       0.00001063      -0.00000030
Nb       0.00000073       0.00000066      -0.00000031      -0.00000618      -0.00000192       0.00000852
Cl       1.98288075       1.40210823       6.59596021      -0.00196320      -0.00139254      -0.00000012
Cl       5.63347898       3.98347185       6.59596086       0.00197271       0.00139868       0.00000090
Cl       4.72082931       1.40210781       5.01520498       0.00098734      -0.00139704      -0.00170577
Cl       2.89552940       3.98347225       8.17671616      -0.00098275       0.00139201       0.00169918
Cl       2.89552995       3.98347190       5.01520468      -0.00098559       0.00139740      -0.00170663
Cl       4.72082984       1.40210750       8.17671596       0.00098225      -0.00139236       0.00169912
