9
Lattice="5.10441971249185 1.9159590669568774e-06 2.9470408856506625 1.7014751353651876 4.812498571543776 2.9470407271954646 3.0152394163794307e-06 1.938028841491137e-06 5.894076548754196" Properties=species:S:1:pos:R:3:forces:R:3 energy=-55.98165512084961 free_energy=-55.98165512084961 stress="-8.06842654128559e-05 -8.10879271284648e-07 -2.038033926510252e-06 -8.10879271284648e-07 -8.622896712040529e-05 -1.4121613958195667e-06 -2.038033926510252e-06 -1.4121613958195667e-06 -8.308765973197296e-05" pbc="T T T"
Y        1.70146856       1.20310102       2.94703635      -0.00005920      -0.00021076      -0.00003079
Y        5.10443731       3.60929680       8.84118506       0.00014661      -0.00066528       0.00048245
Nb       0.00000308      -0.00001291      -0.00000661       0.00001317      -0.00003329       0.00001238
F        1.75153884       1.23858811       5.89408634       0.00130713       0.00141585       0.00007330
F        5.05432433       3.57395265       5.89404196      -0.00160319      -0.00110459      -0.00032263
F        4.22866830       1.23859234       4.46391413      -0.00055316       0.00147861       0.00113332
F        2.57723844       3.57395703       7.32418732       0.00059053      -0.00107962      -0.00153458
F        2.57726577       3.57396421       4.46395512       0.00087669      -0.00102985       0.00141805
F        4.22864545       1.23857041       7.32423305      -0.00071853       0.00122911      -0.00123131
