9
Lattice="5.58908273977384 -2.0078312585054606e-08 3.226858440394828 1.8630275210476066 5.269437902457431 3.2268585095850586 -7.441448732695636e-08 3.212137904802211e-08 6.4537170096793295" Properties=species:S:1:pos:R:3:forces:R:3 energy=-57.62187957763672 free_energy=-57.62187957763672 stress="-0.0002493721549399197 9.462507222224303e-09 -1.5060042102277293e-08 9.462507222224303e-09 -0.0002493456413503736 1.495964951914175e-08 -1.5060042102277293e-08 1.495964951914175e-08 -0.0002493697975296527" pbc="T T T"
Y        1.86302744       1.31735947       3.22685847      -0.00000038      -0.00000054       0.00000083
Y        5.58908245       3.95207861       9.68057491      -0.00000105       0.00000053      -0.00000105
Nb       0.00000005      -0.00000012      -0.00000010       0.00000333      -0.00000547      -0.00000309
S        1.93224358       1.36630269       6.45371705      -0.00422846      -0.00299095      -0.00000056
S        5.51986650       3.90313517       6.45371715       0.00423056       0.00299165       0.00000008
S        4.62296085       1.36630256       4.90023110       0.00211326      -0.00299016      -0.00366369
S        2.82914956       3.90313523       8.00720311      -0.00211693       0.00299464       0.00366803
S        2.82914944       3.90313529       4.90023094      -0.00211395       0.00299031      -0.00366369
S        4.62296087       1.36630278       8.00720315       0.00211361      -0.00299019       0.00366309
