9
Lattice="5.8844372125580255 3.067817569320087e-08 3.3973815021233054 1.9614790785745582 5.54790067865031 3.397381538845862 6.45413771771585e-08 9.061341929380392e-08 6.794762892457612" Properties=species:S:1:pos:R:3:forces:R:3 energy=-52.147701263427734 free_energy=-52.147701263427734 stress="-5.494401921168901e-05 -4.007582887766148e-08 1.2372403546123678e-08 -4.007582887766148e-08 -5.492427953868173e-05 -2.1272617445333708e-08 1.2372403546123678e-08 -2.1272617445333708e-08 -5.492192576639354e-05" pbc="T T T"
Y        1.96147912       1.38697510       3.39738147      -0.00000012      -0.00000099       0.00000014
Y        5.88443720       4.16092590      10.19214450      -0.00000007       0.00000069      -0.00000068
Nb      -0.00000030      -0.00000013       0.00000006       0.00000877       0.00000217       0.00000127
Se       2.02878256       1.43456594       6.79476286      -0.00051902      -0.00036723      -0.00000003
Se       5.81713419       4.11333504       6.79476305       0.00050966       0.00035959       0.00000023
Se       4.87004590       1.43456592       5.15435856       0.00025793      -0.00036535      -0.00044569
Se       2.97587045       4.11333477       8.43516732      -0.00025714       0.00036806       0.00044757
Se       2.97587042       4.11333478       5.15435874      -0.00025915       0.00036902      -0.00044967
Se       4.87004588       1.43456590       8.43516718       0.00025900      -0.00036593       0.00044701
