9
Lattice="4.6462940618875255 -2.2235980955565984e-07 2.682538965601056 1.5487645239533474 4.38056775314991 2.682538885406489 -9.333095041683286e-08 -1.6421281443140947e-07 5.365078092856042" Properties=species:S:1:pos:R:3:forces:R:3 energy=-74.54480743408203 free_energy=-74.54480743408203 stress="-7.543000538134947e-05 -1.259749815574196e-08 -1.0449583420779618e-08 -1.259749815574196e-08 -7.548939902335405e-05 2.9301654436153513e-08 -1.0449583420779618e-08 2.9301654436153513e-08 -7.554684270871803e-05" pbc="T T T"
Y        1.54876414       1.09514194       2.68253920       0.00000110      -0.00000065       0.00000006
Y        4.64629410       3.28542512       8.04761738      -0.00000253      -0.00000069       0.00000164
Nb      -0.00000009      -0.00000004      -0.00000001      -0.00000163      -0.00000078      -0.00000130
O        1.59573036       1.12835175       5.36507805      -0.00022936      -0.00016481      -0.00000249
O        4.59932813       3.25221595       5.36507766       0.00023079       0.00016463       0.00000201
O        3.84842899       1.12835184       4.06448174       0.00011474      -0.00016379      -0.00019509
O        2.34662943       3.25221574       6.66567370      -0.00011277       0.00016242       0.00019652
O        2.34662988       3.25221555       4.06448179      -0.00011557       0.00016332      -0.00019836
O        3.84842911       1.12835173       6.66567371       0.00011569      -0.00015944       0.00019652
