9
Lattice="5.684724689433346 -1.0645763168732764e-08 3.2820774626752054 1.8949082947984537 5.35960958106407 3.282077332729414 2.326852625448864e-07 5.38286194204528e-09 6.564154522327712" Properties=species:S:1:pos:R:3:forces:R:3 energy=-37.671566009521484 free_energy=-37.671566009521484 stress="-0.00010249103070236742 -8.66665239573905e-10 -1.7260859408452234e-08 -8.66665239573905e-10 -0.00010244899749523029 -1.579248554151036e-08 -1.7260859408452234e-08 -1.579248554151036e-08 -0.00010248813487123698" pbc="T T T"
Y        1.89490800       1.33990258       3.28207738      -0.00000119       0.00000085      -0.00000036
Y        5.68472483       4.01970713       9.84623206      -0.00000097       0.00000011       0.00000283
N       -0.00000004      -0.00000001      -0.00000016      -0.00000052       0.00000065      -0.00000037
Cl       1.96351222       1.38841263       6.56415468       0.00278477       0.00196832       0.00000035
Cl       5.61612089       3.97119693       6.56415479      -0.00278269      -0.00196932      -0.00000037
Cl       4.70296880       1.38841284       4.98252875      -0.00139137       0.00196846       0.00240985
Cl       2.87666452       3.97119700       8.14578022       0.00139173      -0.00196946      -0.00241019
Cl       2.87666459       3.97119668       4.98252908       0.00139137      -0.00196721       0.00241007
Cl       4.70296906       1.38841258       8.14578037      -0.00139128       0.00196772      -0.00241179
