9
Lattice="5.685304546706267 -1.064560403579062e-07 3.282412076230133 1.8951015100521416 5.360156391852649 3.2824119119432504 4.438701854152393e-08 -1.6982320200970161e-07 6.564824075579735" Properties=species:S:1:pos:R:3:forces:R:3 energy=-37.671573638916016 free_energy=-37.671573638916016 stress="-1.0703441148507409e-05 -2.200386006734334e-08 2.675492716264216e-09 -2.200386006734334e-08 -1.0737890079326462e-05 -9.409486523281885e-09 2.675492716264216e-09 -9.409486523281885e-09 -1.0725845640990883e-05" pbc="T T T"
Y        1.89510201       1.34003971       3.28241226       0.00000327       0.00000389       0.00000179
Y        5.68530471       4.02011664       9.84723598      -0.00000025      -0.00000229      -0.00000143
N        0.00000032       0.00000082       0.00000028      -0.00000016      -0.00000013      -0.00000087
Cl       1.96388543       1.38867624       6.56482390       0.00013059       0.00009126       0.00000082
Cl       5.61652043       3.97147914       6.56482386      -0.00012691      -0.00009084      -0.00000046
Cl       4.70336122       1.38867688       4.98318617      -0.00006843       0.00009156       0.00011034
Cl       2.87704416       3.97147904       8.14646162       0.00006423      -0.00009359      -0.00010933
Cl       2.87704382       3.97147962       4.98318683       0.00006216      -0.00009204       0.00011231
Cl       4.70336245       1.38867636       8.14646142      -0.00006445       0.00009214      -0.00011300
