9
Lattice="4.456419243690019 -2.816450477653319e-07 2.5729149437255927 1.4854730274221335 4.201552054918353 2.572914576999141 -1.1555772643911179e-07 -5.308580283433369e-07 5.14583008760312" Properties=species:S:1:pos:R:3:forces:R:3 energy=-51.23932647705078 free_energy=-51.23932647705078 stress="2.379988472966943e-05 1.5025825916836766e-07 1.128758668755836e-07 1.5025825916836766e-07 2.4247368855867535e-05 1.3704641332878964e-07 1.128758668755836e-07 1.3704641332878964e-07 2.3994500224944204e-05" pbc="T T T"
Y        1.48547227       1.05038860       2.57291513       0.00000064       0.00000398       0.00000267
Y        4.45642001       3.15116439       7.71874515       0.00000071       0.00000345       0.00000157
N        0.00000031       0.00000104      -0.00000025      -0.00000455      -0.00000586       0.00000196
F        1.55922882       1.10254030       5.14582970      -0.00131631      -0.00093162      -0.00000088
F        4.38266391       3.09901050       5.14582978       0.00131297       0.00092852      -0.00000089
F        3.67680488       1.10253964       3.92324632       0.00065660      -0.00092649      -0.00113392
F        2.26508676       3.09901016       6.36841313      -0.00065494       0.00092649       0.00113177
F        2.26508649       3.09900985       3.92324576      -0.00065589       0.00092828      -0.00113809
F        3.67680497       1.10253971       6.36841313       0.00065911      -0.00092721       0.00113487
