9
Lattice="4.456395501883207 1.5094502837095835e-07 2.5729012393475617 1.4854652730919353 4.201530080309511 2.572901302593021 4.668249822128625e-08 1.1046906298250355e-07 5.145802397838662" Properties=species:S:1:pos:R:3:forces:R:3 energy=-51.239322662353516 free_energy=-51.239322662353516 stress="1.9253538994234987e-05 -3.908736445623617e-08 -1.43661026186237e-07 -3.908736445623617e-08 1.941012669703923e-05 2.3333255327884217e-09 -1.43661026186237e-07 2.3333255327884217e-09 1.9475954104564153e-05" pbc="T T T"
Y        1.48546525       1.05038233       2.57290130       0.00000008       0.00000250       0.00000430
Y        4.45639526       3.15114809       7.71870437      -0.00000086       0.00000349       0.00000467
N       -0.00000016       0.00000091      -0.00000006      -0.00000100      -0.00000797      -0.00000077
F        1.55925779       1.10256182       5.14580229      -0.00170517      -0.00120449      -0.00000152
F        4.38260353       3.09896792       5.14580176       0.00170422       0.00120640      -0.00000250
F        3.67676719       1.10256154       3.92325806       0.00085282      -0.00120425      -0.00147521
F        2.26509390       3.09896851       6.36834681      -0.00085175       0.00120676       0.00147319
F        2.26509411       3.09896845       3.92325745      -0.00084913       0.00120485      -0.00147414
F        3.67676626       1.10256109       6.36834681       0.00085104      -0.00120568       0.00147307
