9
Lattice="6.1152146122953885 -6.077501787962813e-08 3.53062080296206 2.038404794107778 5.765479675785241 3.5306208364912988 -3.146036939820124e-08 1.8818966548382865e-08 7.061241660415083" Properties=species:S:1:pos:R:3:forces:R:3 energy=-43.07556915283203 free_energy=-43.07556915283203 stress="-7.178258238127455e-05 1.0438840014614925e-08 -1.5477311654521486e-09 1.0438840014614925e-08 -7.17913790140301e-05 -8.452333277730872e-10 -1.5477311654521486e-09 -8.452333277730872e-10 -7.179915701271966e-05" pbc="T T T"
Y        2.03840483       1.44137015       3.53062125      -0.00000001      -0.00000002       0.00000003
Y        6.11521433       4.32410982      10.59186298      -0.00000057      -0.00000020       0.00000063
Ni      -0.00000012       0.00000010       0.00000033       0.00000078      -0.00000092      -0.00000239
Te       2.07588212       1.46787029       7.06124142       0.00665332       0.00470392      -0.00000038
Te       6.07773747       4.29760912       7.06124131      -0.00665286      -0.00470398       0.00000010
Te       5.07727365       1.46787033       5.32838733      -0.00332770       0.00470509       0.00576334
Te       3.07634570       4.29760922       8.79409559       0.00332709      -0.00470379      -0.00576150
Te       3.07634592       4.29760918       5.32838735       0.00332669      -0.00470527       0.00576234
Te       5.07727362       1.46787031       8.79409566      -0.00332684       0.00470515      -0.00576220
