9
Lattice="5.323409276201891 3.898723964464343e-08 3.07347181721213 1.774469764613659 5.018958561154643 3.0734718706940893 1.2960150801147857e-08 7.466590583761549e-08 6.146943611976608" Properties=species:S:1:pos:R:3:forces:R:3 energy=-50.86339569091797 free_energy=-50.86339569091797 stress="-1.1763844668166712e-05 2.363253370774032e-09 2.6991533452758176e-09 2.363253370774032e-09 -1.1779051419580355e-05 5.718928886011554e-09 2.6991533452758176e-09 5.718928886011554e-09 -1.1777493455156218e-05" pbc="T T T"
Y        1.77447004       1.25473935       3.07347200       0.00000057      -0.00000070      -0.00000033
Y        5.32340963       3.76421952       9.22041563      -0.00000035      -0.00000059      -0.00000032
Ni      -0.00000012       0.00000001       0.00000010      -0.00000058      -0.00000018      -0.00000119
S        1.79913576       1.27218116       6.14694366       0.00015807       0.00011209      -0.00000049
S        5.29874335       3.74677726       6.14694378      -0.00015688      -0.00011110       0.00000059
S        4.42384132       1.27218113       4.63156891      -0.00008002       0.00011253       0.00013697
S        2.67403760       3.74677760       7.66231819       0.00007889      -0.00011113      -0.00013721
S        2.67403755       3.74677743       4.63156878       0.00007954      -0.00011259       0.00013840
S        4.42384113       1.27218125       7.66231806      -0.00007939       0.00011161      -0.00013661
