9
Lattice="4.657461124770026 7.74530527070491e-08 2.688986570798631 1.552487036604665 4.391096832728815 2.6889867059137984 2.8265351022212342e-08 1.8546824895963275e-07 5.377973092640262" Properties=species:S:1:pos:R:3:forces:R:3 energy=-52.167938232421875 free_energy=-52.167938232421875 stress="2.7484793463372625e-05 2.9606351148458998e-08 -1.0142117901068559e-07 2.9606351148458998e-08 2.741112984949723e-05 -8.417821817374715e-08 -1.0142117901068559e-07 -8.417821817374715e-08 2.7560756279854104e-05" pbc="T T T"
Y        1.55248758       1.09777531       2.68898521       0.00000678       0.00001284      -0.00001779
Y        4.65746114       3.29332293       8.06696154       0.00000023       0.00000019       0.00002071
Ni       0.00000018       0.00000001       0.00000017      -0.00000040       0.00000064       0.00000219
F        1.57903283       1.11654542       5.37797424       0.00100413       0.00070995       0.00000560
F        4.63091545       3.27455159       5.37797169      -0.00100467      -0.00071305      -0.00000854
F        3.86794532       1.11654573       4.05646960      -0.00049868       0.00071099       0.00086811
F        2.34200266       3.27455077       6.69947699       0.00049646      -0.00071731      -0.00086853
F        2.34200444       3.27455167       4.05646882       0.00050637      -0.00070903       0.00086436
F        3.86794327       1.11654490       6.69947741      -0.00051031       0.00070509      -0.00086695
