9
Lattice="4.456043940747275 1.4913998875008657e-07 2.572698135369604 1.485348076536702 4.20119881148373 2.5726982121391244 6.079441267036071e-08 1.3701121949592877e-07 5.145396165440201" Properties=species:S:1:pos:R:3:forces:R:3 energy=-61.46220397949219 free_energy=-61.46220397949219 stress="-0.0001833751448430121 -2.093795004043386e-08 -1.2423674533579288e-08 -2.093795004043386e-08 -0.0001830614492064342 6.697449705939107e-09 -1.2423674533579288e-08 6.697449705939107e-09 -0.0001833142596296966" pbc="T T T"
Y        1.48534785       1.05029971       2.57269775       0.00000038       0.00000053      -0.00000092
Y        4.45604386       3.15089954       7.71809427      -0.00000044      -0.00000095       0.00000084
Ni      -0.00000005       0.00000006      -0.00000016       0.00000141       0.00000457       0.00000397
O        1.48837365       1.05243913       5.14539631      -0.00307517      -0.00217569      -0.00000056
O        4.45301856       3.14875975       5.14539655       0.00307270       0.00217491      -0.00000117
O        3.71185758       1.05243937       3.86166759       0.00153793      -0.00217447      -0.00266370
O        2.22953462       3.14875950       6.42912517      -0.00153745       0.00217370       0.00266079
O        2.22953514       3.14875980       3.86166742      -0.00153621       0.00217526      -0.00266400
O        3.71185688       1.05243958       6.42912526       0.00153652      -0.00217820       0.00266508
