9
Lattice="5.664291729079958 1.7899833316342134e-08 3.2702802217908027 1.8880972475868618 5.340345730480363 3.270280243122628 -7.400410664949733e-09 2.089312462753458e-08 6.540560456399618" Properties=species:S:1:pos:R:3:forces:R:3 energy=-46.574256896972656 free_energy=-46.574256896972656 stress="-0.00034674169728532434 1.3965131273607767e-08 3.917582258594621e-09 1.3965131273607767e-08 -0.00034675144706852734 6.800088936387283e-09 3.917582258594621e-09 6.800088936387283e-09 -0.0003467306378297508" pbc="T T T"
Y        1.88809782       1.33508657       3.27028032       0.00000142       0.00000059      -0.00000035
Y        5.66429163       4.00525943       9.81083970      -0.00000064       0.00000024      -0.00000344
Ni       0.00000010       0.00000009      -0.00000004      -0.00000257      -0.00000214       0.00000028
Se       1.92786279       1.36320462       6.54056050       0.00609595       0.00430983       0.00000087
Se       5.62452608       3.97714113       6.54056111      -0.00609413      -0.00430834      -0.00000006
Se       4.70036041       1.36320475       4.93985819      -0.00304814       0.00431049       0.00528029
Se       2.85202862       3.97714079       8.14126266       0.00304642      -0.00430965      -0.00527918
Se       2.85202818       3.97714061       4.93985810       0.00304855      -0.00431058       0.00528002
Se       4.70036028       1.36320505       8.14126308      -0.00304709       0.00430989      -0.00527832
