9
Lattice="4.369846549025486 1.4175988245911834e-07 2.5229319000869603 1.456615584417075 4.119930821918939 2.5229320136701157 -3.060593751518055e-08 1.1746871663682909e-07 5.045863853184949" Properties=species:S:1:pos:R:3:forces:R:3 energy=-63.07770919799805 free_energy=-63.07770919799805 stress="-0.0001310218940488994 -1.4031365935807116e-07 -3.2263681504218766e-08 -1.4031365935807116e-07 -0.0001308049395447597 -9.655941113351219e-08 -3.2263681504218766e-08 -9.655941113351219e-08 -0.00013067899271845818" pbc="T T T"
Y        1.45661533       1.02998238       2.52293176      -0.00000794      -0.00000870      -0.00000437
Y        4.36984631       3.08994799       7.56879538      -0.00000735      -0.00000846      -0.00000399
N        0.00000812       0.00000891       0.00000465       0.00026688       0.00030187       0.00014656
O        1.34462598       0.95079427       5.04586410       0.00490725       0.00347996       0.00001156
O        4.48182445       3.16912920       5.04586451      -0.00530100      -0.00374490       0.00000800
O        3.69753276       0.95079643       3.68741455      -0.00248313       0.00356323       0.00434673
O        2.12893309       3.16913207       6.40430897       0.00261360      -0.00365543      -0.00448680
O        2.12893146       3.16913443       3.68741640       0.00255477      -0.00356936       0.00440586
O        3.69753126       0.95079891       6.40431069      -0.00254273       0.00364214      -0.00442374
