9
Lattice="6.229369826133305 -3.800973001579109e-08 3.5965284535426174 2.0764564499195846 5.873106645154687 3.596528666508012 -2.3296791497090707e-07 9.609503621859768e-08 7.193057310597493" Properties=species:S:1:pos:R:3:forces:R:3 energy=-39.251190185546875 free_energy=-39.251190185546875 stress="0.00023085798602551222 1.3151276734291173e-09 6.422677500950158e-09 1.3151276734291173e-09 0.00023094797506928444 5.801915059500118e-10 6.422677500950158e-09 5.801915059500118e-10 0.0002308718831045553" pbc="T T T"
Y        2.07645515       1.46827903       3.59652837      -0.00000533       0.00001057      -0.00000013
Y        6.22936858       4.40482776      10.78958602      -0.00000399      -0.00001108       0.00000056
Os       0.00000025       0.00000041      -0.00000015       0.00000120      -0.00000475      -0.00000106
Br       2.03490171       1.43889339       7.19305715       0.00209885       0.00148702      -0.00000003
Br       6.27092482       4.43421314       7.19305705      -0.00209596      -0.00148760      -0.00000012
Br       5.21191945       1.43889329       5.35880511      -0.00104709       0.00148872       0.00181809
Br       3.09390738       4.43421334       9.02730947       0.00104925      -0.00148613      -0.00181474
Br       3.09390761       4.43421323       5.35880512       0.00105058      -0.00148559       0.00181482
Br       5.21191923       1.43889320       9.02730960      -0.00104751       0.00148875      -0.00181728
