9
Lattice="5.787879315450264 -2.108483224709841e-08 3.341633642464792 1.9292930847470933 5.4568649066035455 3.341633643372414 -3.266706741553217e-08 -2.198747433760661e-08 6.683267341510636" Properties=species:S:1:pos:R:3:forces:R:3 energy=-51.83237075805664 free_energy=-51.83237075805664 stress="-9.28975860006176e-05 3.137271775699446e-08 -7.614467278926895e-09 3.137271775699446e-08 -9.289714944316074e-05 2.129265830319582e-08 -7.614467278926895e-09 2.129265830319582e-08 -9.289489389630035e-05" pbc="T T T"
Y        1.92929311       1.36421641       3.34163304       0.00000015       0.00000124      -0.00000312
Y        5.78787932       4.09264829      10.02490143       0.00000036      -0.00000060       0.00000227
Os      -0.00000011       0.00000021       0.00000017      -0.00000136      -0.00000014       0.00000262
Se       1.96849542       1.39193663       6.68326746       0.00049913       0.00035328       0.00000036
Se       5.74867711       4.06492818       6.68326688      -0.00049990      -0.00035387      -0.00000266
Se       4.80363161       1.39193639       5.04640087      -0.00024971       0.00035211       0.00043362
Se       2.91354097       4.06492807       8.32013389       0.00025210      -0.00035375      -0.00043410
Se       2.91354083       4.06492876       5.04640076       0.00025114      -0.00035435       0.00043571
Se       4.80363119       1.39193647       8.32013396      -0.00025204       0.00035590      -0.00043464
