9
Lattice="5.978172498763375 1.3152329112409946e-07 3.4514992957619404 1.9927243169545843 5.63627504389647 3.4514992495182475 -3.46819336526469e-08 -8.11605341682625e-08 6.90299865159471" Properties=species:S:1:pos:R:3:forces:R:3 energy=-42.1790885925293 free_energy=-42.1790885925293 stress="0.00022649792663287371 2.0455491522852753e-08 -3.595023656544072e-08 2.0455491522852753e-08 0.00022643008560407907 3.401325221474849e-09 -3.595023656544072e-08 3.401325221474849e-09 0.00022645320859737694" pbc="T T T"
Y        1.99272310       1.40906761       3.45150013      -0.00000497      -0.00000897       0.00000562
Y        5.97817467       4.22720878      10.35449920       0.00001319       0.00001368       0.00000643
Os      -0.00000008      -0.00000006      -0.00000021      -0.00000110      -0.00000216      -0.00000660
Cl       1.95705278       1.38384461       6.90299873       0.00341991       0.00241751      -0.00000106
Cl       6.01384407       4.25242987       6.90299784      -0.00341870      -0.00241685      -0.00000300
Cl       4.99964632       1.38384407       5.14635616      -0.00171193       0.00241645       0.00296657
Cl       2.97124977       4.25243062       8.65964029       0.00170605      -0.00241438      -0.00296656
Cl       2.97124999       4.25243076       5.14635653       0.00170857      -0.00241925       0.00296651
Cl       4.99964649       1.38384407       8.65964019      -0.00171097       0.00241403      -0.00296783
