9
Lattice="5.498343849598772 4.858227415802689e-08 3.174470153068458 1.8327812543682138 5.1838887489014684 3.1744702823403776 -9.074448185151585e-08 9.415905060492405e-08 6.348940463310981" Properties=species:S:1:pos:R:3:forces:R:3 energy=-56.25363540649414 free_energy=-56.25363540649414 stress="4.669585541705601e-05 -6.727760393232529e-08 2.5819161919571343e-08 -6.727760393232529e-08 4.669170448323712e-05 -2.980968005772411e-08 2.5819161919571343e-08 -2.980968005772411e-08 4.669926784117706e-05" pbc="T T T"
Y        1.83278147       1.29597205       3.17446994       0.00000066      -0.00000058      -0.00000221
Y        5.49834402       3.88791641       9.52341140       0.00000052      -0.00000075       0.00000304
Os      -0.00000001       0.00000004      -0.00000022       0.00000011       0.00000056      -0.00000052
S        1.86641555       1.31975535       6.34894039      -0.00136626      -0.00096542      -0.00000019
S        5.46470921       3.86413396       6.34894005       0.00136578       0.00096560      -0.00000143
S        4.56513605       1.31975545       4.79083377       0.00068524      -0.00096798      -0.00118530
S        2.76598890       3.86413343       7.90704714      -0.00068501       0.00096786       0.00118643
S        2.76598923       3.86413329       4.79083376      -0.00068533       0.00096941      -0.00118679
S        4.56513560       1.31975572       7.90704716       0.00068453      -0.00096840       0.00118697
