9
Lattice="6.713696516347544 -1.0849686904676954e-08 3.876154528544841 2.2378988289480937 6.3297338104388805 3.8761545278611287 -1.4618884128792805e-08 -1.1174494729423774e-08 7.752309082410341" Properties=species:S:1:pos:R:3:forces:R:3 energy=-35.89574432373047 free_energy=-35.89574432373047 stress="5.648958540405147e-05 -6.636006855131882e-09 -8.499716486198849e-10 -6.636006855131882e-09 5.648989463225007e-05 -3.2718738829373706e-09 -8.499716486198849e-10 -3.2718738829373706e-09 5.6476641475455835e-05" pbc="T T T"
Y        2.23789893       1.58243348       3.87615423       0.00000111       0.00000037      -0.00000282
Y        6.71369635       4.74730001      11.62846326      -0.00000004      -0.00000031      -0.00000303
Os       0.00000010       0.00000000       0.00000022      -0.00000054       0.00000082       0.00000149
I        2.20812199       1.56137818       7.75230917       0.00084054       0.00059418       0.00000062
I        6.74347314       4.76835579       7.75230918      -0.00084030      -0.00059415       0.00000097
I        5.60963555       1.56137815       5.78844438      -0.00041972       0.00059363       0.00072797
I        3.34195998       4.76835555       9.71617384       0.00042019      -0.00059526      -0.00072691
I        3.34195981       4.76835578       5.78844446       0.00041906      -0.00059418       0.00072854
I        5.60963545       1.56137821       9.71617386      -0.00042031       0.00059491      -0.00072690
