9
Lattice="4.675426429173251 4.524974646174019e-08 2.6993587775043464 1.55847550485603 4.408034432042312 2.6993588020941335 3.522475883914097e-08 5.5023885554966666e-08 5.398717493997596" Properties=species:S:1:pos:R:3:forces:R:3 energy=-72.0789566040039 free_energy=-72.0789566040039 stress="4.222942880005576e-05 3.569559936522637e-08 1.4455683317038392e-09 3.569559936522637e-08 4.2177733121206984e-05 -4.784281415481928e-09 1.4455683317038392e-09 -4.784281415481928e-09 4.2089657654287294e-05" pbc="T T T"
Y        1.55847557       1.10200833       2.69935859       0.00000077      -0.00000012      -0.00000252
Y        4.67542648       3.30602591       8.09807624      -0.00000113      -0.00000203      -0.00000081
Os      -0.00000020      -0.00000010      -0.00000013       0.00000668       0.00000630       0.00001144
O        1.55131930       1.09694837       5.39871767      -0.00359330      -0.00254231       0.00000029
O        4.68258267       3.31108621       5.39871763       0.00358571       0.00253829       0.00000097
O        3.89976684       1.09694865       4.04284040       0.00179438      -0.00254074      -0.00310887
O        2.33413501       3.31108620       6.75459476      -0.00179029       0.00253578       0.00310291
O        2.33413501       3.31108611       4.04284049      -0.00179690       0.00253896      -0.00310733
O        3.89976725       1.09694846       6.75459468       0.00179372      -0.00253383       0.00310410
