9
Lattice="6.210839392385977 4.7742251185631217e-08 3.585829942098303 2.070279901316779 5.855634946275292 3.5858298401793056 2.0534141043532466e-07 2.0373529496611962e-08 7.171659528534889" Properties=species:S:1:pos:R:3:forces:R:3 energy=-37.435386657714844 free_energy=-37.435386657714844 stress="-0.00011739323963411152 -4.183860813355977e-09 -3.217543920186472e-08 -4.183860813355977e-09 -0.00011743321374524385 -4.281622878465896e-08 -3.217543920186472e-08 -4.281622878465896e-08 -0.00011750537669286132" pbc="T T T"
Y        2.07027698       1.46390900       3.58582991      -0.00001425       0.00000370       0.00000087
Y        6.21084090       4.39172800      10.75749496       0.00000525       0.00000854       0.00002878
Pb      -0.00000010      -0.00000001      -0.00000084       0.00000083      -0.00000066       0.00001048
Cl       2.21318038       1.56495362       7.17165935      -0.00027725      -0.00020020       0.00000054
Cl       6.06793981       4.29068041       7.17165757       0.00028205       0.00019421      -0.00001493
Cl       5.10425028       1.56495445       5.50249963       0.00014509      -0.00019458      -0.00024049
Cl       3.17686876       4.29068103       8.84081905      -0.00014511       0.00019471       0.00023146
Cl       3.17687046       4.29068044       5.50249930      -0.00013638       0.00019829      -0.00024623
Cl       5.10425058       1.56495309       8.84081854       0.00013994      -0.00020404       0.00022933
