9
Lattice="6.362007945138232 -9.191094310133743e-07 3.67310611754429 2.1206684839881165 5.998154871786841 3.6731060560795106 -6.852202327547698e-07 -5.598025403477253e-07 7.346213421924775" Properties=species:S:1:pos:R:3:forces:R:3 energy=-33.888702392578125 free_energy=-33.888702392578125 stress="-0.00010853787534870207 -9.283096957801718e-09 2.2326148041429406e-08 -9.283096957801718e-09 -0.00010846572695299983 9.699608227720091e-09 2.2326148041429406e-08 9.699608227720091e-09 -0.00010853945423150435" pbc="T T T"
Y        2.12066591       1.49953716       3.67311348      -0.00002081      -0.00001387       0.00003178
Y        6.36200099       4.49861587      11.01931759      -0.00002520       0.00001226      -0.00000741
P        0.00000261       0.00000055       0.00000251       0.00000205      -0.00000042      -0.00000742
Br       2.20907123       1.56204445       7.34621062      -0.00001276      -0.00002298      -0.00001769
Br       6.27360512       4.43610818       7.34621414       0.00001979       0.00001791       0.00000696
Br       5.25747557       1.56204523       5.58621665       0.00000963      -0.00000909      -0.00001717
Br       3.22520343       4.43610797       9.10620756       0.00000209       0.00002119       0.00001764
Br       3.22520403       4.43610934       5.58621488       0.00000048       0.00000930      -0.00002035
Br       5.25747442       1.56204518       9.10620511       0.00002450      -0.00001404       0.00001359
