9
Lattice="6.9526676764828865 -3.958115699113432e-09 4.014124569602626 2.31755588269737 6.5550379209775045 4.014124579530463 -8.722047345694763e-09 5.991654223809825e-09 8.028249154312286" Properties=species:S:1:pos:R:3:forces:R:3 energy=-29.889806747436523 free_energy=-29.889806747436523 stress="9.338403469882905e-05 1.3880289140288937e-09 4.814500353944595e-09 1.3880289140288937e-09 9.339350071968511e-05 -1.0525684324136364e-08 4.814500353944595e-09 -1.0525684324136364e-08 9.338199743069708e-05" pbc="T T T"
Y        2.31755582       1.63875886       4.01412439       0.00000142      -0.00000379      -0.00000166
Y        6.95266743       4.91627875      12.04237362      -0.00000295       0.00000140       0.00000177
Pb      -0.00000002       0.00000009       0.00000002      -0.00000101      -0.00000101       0.00000162
I        2.47565872       1.75055483       8.02824922       0.00078819       0.00055598       0.00000014
I        6.79456492       4.80448313       8.02824923      -0.00078666      -0.00055475      -0.00000069
I        5.71483858       1.75055490       6.15810780      -0.00039323       0.00055679       0.00068094
I        3.55538520       4.80448304       9.89839052       0.00039446      -0.00055709      -0.00068204
I        3.55538507       4.80448309       6.15810785       0.00039401      -0.00055513       0.00068112
I        5.71483846       1.75055503       9.89839057      -0.00039429       0.00055762      -0.00068113
