9
Lattice="6.466557028718147 9.69227232799529e-08 3.7334684922350743 2.155519084130102 6.096728333042998 3.7334685213720724 -1.239178702749308e-07 -5.1937773197822224e-08 7.4669371991022375" Properties=species:S:1:pos:R:3:forces:R:3 energy=-33.779205322265625 free_energy=-33.779205322265625 stress="8.057149534579366e-05 1.7208588332096042e-08 6.263574103826386e-09 1.7208588332096042e-08 8.058459934545681e-05 -8.093880565773759e-10 6.263574103826386e-09 -8.093880565773759e-10 8.055657235672697e-05" pbc="T T T"
Y        2.15551846       1.52418198       3.73346896      -0.00000263      -0.00000104       0.00000218
Y        6.46655723       4.57254715      11.20040567       0.00000084       0.00000363       0.00000099
Pb       0.00000008      -0.00000029       0.00000007       0.00000097       0.00000444      -0.00000042
Br       2.30520902       1.63002911       7.46693693       0.00079624       0.00056276      -0.00000079
Br       6.31686723       4.46669908       7.46693709      -0.00079881      -0.00056523      -0.00000061
Br       5.31395263       1.63002841       5.72983815      -0.00039929       0.00056253       0.00069270
Br       3.30812345       4.46669964       9.20403583       0.00040007      -0.00056370      -0.00069351
Br       3.30812362       4.46669980       5.72983808       0.00040124      -0.00056569       0.00069244
Br       5.31395231       1.63002863       9.20403609      -0.00039867       0.00056241      -0.00069298
