9
Lattice="5.70896279612542 -9.223532106152051e-08 3.2960711917664023 1.9029875155791465 5.382461644169742 3.2960711851309763 1.302639125609664e-08 1.0843549383404163e-09 6.592142360970427" Properties=species:S:1:pos:R:3:forces:R:3 energy=-45.87859344482422 free_energy=-45.87859344482422 stress="-0.00019509771664161235 8.055571321108346e-09 -2.924292807904294e-09 8.055571321108346e-09 -0.00019509874982759356 -1.2230284840430983e-10 -2.924292807904294e-09 -1.2230284840430983e-10 -0.00019512252765707672" pbc="T T T"
Y        1.90298715       1.34561469       3.29607093      -0.00000063      -0.00000287       0.00000014
Y        5.70896311       4.03684556       9.88821375      -0.00000106      -0.00000193       0.00000092
Pb      -0.00000009      -0.00000015      -0.00000015       0.00000040       0.00000510      -0.00000048
S        2.03772963       1.44089230       6.59214233      -0.00342208      -0.00241804      -0.00000046
S        5.57422075       3.94156963       6.59214208       0.00341910       0.00241736      -0.00000017
S        4.69009792       1.44089252       5.06079675       0.00171216      -0.00241804      -0.00296301
S        2.92185232       3.94156959       8.12348815      -0.00170970       0.00241736       0.00295949
S        2.92185248       3.94156963       5.06079669      -0.00170964       0.00241935      -0.00296035
S        4.69009802       1.44089245       8.12348841       0.00171135      -0.00241813       0.00296426
