9
Lattice="6.47373433794303 -1.6583247986197022e-08 3.7376122592831407 2.157911410107952 6.103495255340817 3.737612294336701 7.488687370290036e-09 4.8226974923188274e-08 7.475224505595449" Properties=species:S:1:pos:R:3:forces:R:3 energy=-37.998687744140625 free_energy=-37.998687744140625 stress="-0.00010662950080586597 -1.9089938518845884e-08 -5.277764003608354e-09 -1.9089938518845884e-08 -0.00010661517444532365 -2.2129658105995986e-09 -5.277764003608354e-09 -2.2129658105995986e-09 -0.00010658853716449812" pbc="T T T"
Y        2.15791177       1.52587393       3.73761251       0.00000121       0.00000064      -0.00000006
Y        6.47373421       4.57762131      11.21283672      -0.00000140      -0.00000087      -0.00000007
Pb       0.00000004       0.00000021       0.00000031       0.00000139       0.00000125      -0.00000399
Te       2.37938804       1.68248142       7.47522440      -0.00101610      -0.00071909      -0.00000022
Te       6.25225783       4.42101362       7.47522442       0.00101501       0.00071710       0.00000102
Te       5.28403989       1.68248174       5.79822276       0.00050797      -0.00071949      -0.00088009
Te       3.34760566       4.42101363       9.15222611      -0.00050806       0.00072055       0.00088212
Te       3.34760548       4.42101364       5.79822281      -0.00050925       0.00071964      -0.00087991
Te       5.28404010       1.68248168       9.15222620       0.00050913      -0.00071959       0.00088158
