9
Lattice="4.988644189419166 -1.1644346360457328e-08 2.8801949764043786 1.6628814413178081 4.70333909735494 2.8801948797158285 5.981854204511818e-08 -7.612068600144697e-08 5.760389849199989" Properties=species:S:1:pos:R:3:forces:R:3 energy=-48.706878662109375 free_energy=-48.706878662109375 stress="-4.288801210350357e-05 -2.2091402485102662e-08 2.6367086292111708e-09 -2.2091402485102662e-08 -4.3014195398427546e-05 -5.6202893006229715e-08 2.6367086292111708e-09 -5.6202893006229715e-08 -4.288708441890776e-05" pbc="T T T"
Y        1.66288028       1.17583456       2.88019471      -0.00001127      -0.00000033      -0.00000096
Y        4.98864339       3.52750220       8.64058507      -0.00000906      -0.00001896       0.00000174
Pb      -0.00000020      -0.00000011       0.00000010      -0.00000292      -0.00000271       0.00000125
F        1.80301977       1.27492900       5.76039012       0.00196034       0.00139508       0.00000337
F        4.84850547       3.42841015       5.76038954      -0.00195938      -0.00139210      -0.00000342
F        4.08713457       1.27492886       4.44165630      -0.00097632       0.00139573       0.00169665
F        2.56439205       3.42841085       7.07912353       0.00098601      -0.00138813      -0.00169879
F        2.56439229       3.42841127       4.44165612       0.00098747      -0.00138539       0.00169873
F        4.08713516       1.27492909       7.07912353      -0.00097424       0.00139713      -0.00169891
