9
Lattice="5.402594512428184 1.6774243342976083e-07 3.119189551049916 1.8008650152476722 5.093614950029163 3.119189517062681 1.6186080653241442e-07 7.282720487559655e-08 6.238378821748685" Properties=species:S:1:pos:R:3:forces:R:3 energy=-35.20083999633789 free_energy=-35.20083999633789 stress="-3.3260472264373675e-05 5.673063796507449e-08 -4.909821882392862e-08 5.673063796507449e-08 -3.326139994896948e-05 -8.453680067077585e-08 -4.909821882392862e-08 -8.453680067077585e-08 -3.337013549753465e-05" pbc="T T T"
Y        1.80086448       1.27340378       3.11918888      -0.00000249       0.00000042      -0.00000476
Y        5.40259428       3.82021221       9.35757065      -0.00000315       0.00000381       0.00000889
P       -0.00000025      -0.00000010      -0.00000029       0.00000387      -0.00000137      -0.00000221
Cl       1.89416638       1.33937691       6.23837894      -0.00223434      -0.00158413       0.00000028
Cl       5.30929372       3.75423743       6.23837835       0.00223398       0.00157981      -0.00000210
Cl       4.45551201       1.33937739       4.75958464       0.00111555      -0.00157660      -0.00193202
Cl       2.74794754       3.75423744       7.71717288      -0.00111690       0.00157726       0.00193286
Cl       2.74794829       3.75423814       4.75958481      -0.00111473       0.00157924      -0.00193337
Cl       4.45551230       1.33937757       7.71717278       0.00111800      -0.00157851       0.00193247
