9
Lattice="6.135258863315048 -2.623418066264455e-08 3.5421933620178443 2.0450862927120586 5.784377518380521 3.542193310620602 -5.49924529724466e-08 -1.0183402403111175e-07 7.08438681928539" Properties=species:S:1:pos:R:3:forces:R:3 energy=-36.77558517456055 free_energy=-36.77558517456055 stress="0.00032305557397194207 1.1937508759274351e-08 1.7025396203962373e-08 1.1937508759274351e-08 0.0003230548172723502 4.395491082220815e-09 1.7025396203962373e-08 4.395491082220815e-09 0.00032302216277457774" pbc="T T T"
Y        2.04508680       1.44609408       3.54219237       0.00000316      -0.00000190      -0.00000404
Y        6.13525913       4.33828273      10.62658023       0.00000147      -0.00000312      -0.00000096
Pd      -0.00000008      -0.00000000       0.00000029      -0.00000209      -0.00000082      -0.00000268
Br       2.03549026       1.43930929       7.08438708       0.00092113       0.00065190       0.00000205
Br       6.14485448       4.34506830       7.08438678      -0.00091994      -0.00065003      -0.00000023
Br       5.11751352       1.43930909       5.30497983      -0.00046151       0.00065318       0.00079955
Br       3.06283157       4.34506825       8.86379364       0.00045892      -0.00065006      -0.00079643
Br       3.06283135       4.34506857       5.30497990       0.00046086      -0.00065155       0.00079900
Br       5.11751337       1.43930924       8.86379387      -0.00046206       0.00065237      -0.00079624
