9
Lattice="4.564067870564505 4.7150268614212013e-08 2.6350657439861798 1.5213560137816895 4.3030442587454845 2.6350657223820337 1.2291810657891208e-07 6.045664254520935e-08 5.270131275071957" Properties=species:S:1:pos:R:3:forces:R:3 energy=-63.27836990356445 free_energy=-63.27836990356445 stress="-5.067448364570737e-05 -2.3648253133501385e-08 -5.937710412240449e-08 -2.3648253133501385e-08 -5.080342816654593e-05 6.971767874119905e-08 -5.937710412240449e-08 6.971767874119905e-08 -5.0927334086736664e-05" pbc="T T T"
Y        1.52135609       1.07576105       2.63506567       0.00000094      -0.00000024      -0.00000024
Y        4.56406811       3.22728339       7.90519707       0.00000033      -0.00000003       0.00000147
Pd       0.00000022      -0.00000024       0.00000019      -0.00000552       0.00001453      -0.00000470
O        1.59668418       1.12902600       5.27013132      -0.00174323      -0.00123183       0.00000015
O        4.48874001       3.17401842       5.27013135       0.00173846       0.00122958      -0.00000085
O        3.76572581       1.12902623       4.01783449       0.00087391      -0.00123458      -0.00151268
O        2.31969795       3.17401827       6.52242807      -0.00087020       0.00122999       0.00150579
O        2.31969782       3.17401856       4.01783442      -0.00086682       0.00122498      -0.00149950
O        3.76572588       1.12902586       6.52242815       0.00087202      -0.00123250       0.00151014
