9
Lattice="6.646981945089141 -7.081693123158094e-09 3.837636786116224 2.2156606514970374 6.2668346647599 3.8376367691236144 6.747115924209245e-09 -1.6040667013770834e-08 7.675273560546111" Properties=species:S:1:pos:R:3:forces:R:3 energy=-32.686187744140625 free_energy=-32.686187744140625 stress="8.191951928893104e-05 3.282854876829333e-09 3.0469169409741426e-09 3.282854876829333e-09 8.192271343432367e-05 -2.7264051016828716e-09 3.0469169409741426e-09 -2.7264051016828716e-09 8.190979133360088e-05" pbc="T T T"
Y        2.21566089       1.56670863       3.83763685       0.00000041      -0.00000040      -0.00000001
Y        6.64698227       4.70012609      11.51291030       0.00000093       0.00000076      -0.00000055
Pd      -0.00000002      -0.00000008       0.00000000       0.00000020       0.00000005       0.00000225
I        2.21946062       1.56939564       7.67527358       0.00002588       0.00001919       0.00000063
I        6.64318194       4.69743914       7.67527358      -0.00002791      -0.00001905       0.00000046
I        5.53725164       1.56939546       5.75974611      -0.00001249       0.00001815       0.00002329
I        3.32539073       4.69743904       9.59080092       0.00001405      -0.00002041      -0.00002459
I        3.32539076       4.69743907       5.75974601       0.00001242      -0.00001870       0.00002319
I        5.53725158       1.56939556       9.59080109      -0.00001344       0.00002038      -0.00002477
