9
Lattice="5.819854840777755 2.5598945044859264e-08 3.360094833643857 1.9399516491492672 5.487011689346125 3.3600948138608158 2.816006223518726e-08 -4.317037891157632e-09 6.72018961851307" Properties=species:S:1:pos:R:3:forces:R:3 energy=-45.91986846923828 free_energy=-45.91986846923828 stress="4.8551541112829e-05 6.593397827714398e-09 -5.693197024925212e-09 6.593397827714398e-09 4.857205567532219e-05 1.0260501781544917e-08 -5.693197024925212e-09 1.0260501781544917e-08 4.854998041992076e-05" pbc="T T T"
Y        1.93995166       1.37175305       3.36009466       0.00000056       0.00000147      -0.00000085
Y        5.81985485       4.11525845      10.08028454      -0.00000080      -0.00000368      -0.00000083
Pd       0.00000004      -0.00000002      -0.00000034      -0.00000089      -0.00000150       0.00000624
Se       2.01288244       1.42332315       6.72018968      -0.00131464      -0.00092733      -0.00000017
Se       5.74692391       4.06368866       6.72018963       0.00131550       0.00092968      -0.00000001
Se       4.81341339       1.42332313       5.10330231       0.00065826      -0.00093016      -0.00113928
Se       2.94639307       4.06368881       8.33707711      -0.00065647       0.00092784       0.00113696
Se       2.94639314       4.06368869       5.10330216      -0.00065744       0.00093046      -0.00113925
Se       4.81341352       1.42332289       8.33707728       0.00065577      -0.00092700       0.00113648
