9
Lattice="5.879429036589317 -7.535180161402071e-08 3.394489996909766 1.9598096702165233 5.543178717609077 3.3944898888371062 6.479360539216696e-10 -1.3190326781686314e-07 6.78897999269726" Properties=species:S:1:pos:R:3:forces:R:3 energy=-39.738670349121094 free_energy=-39.738670349121094 stress="9.58037780947052e-05 -1.0198729860633193e-08 -2.664780174299608e-09 -1.0198729860633193e-08 9.57473021117039e-05 1.6931543944664895e-09 -2.664780174299608e-09 1.6931543944664895e-09 9.579071047483012e-05" pbc="T T T"
Y        1.95981097       1.38579343       3.39449120       0.00000890      -0.00000845       0.00000684
Y        5.87943009       4.15738314      10.18347428       0.00000964      -0.00000666       0.00003239
Pd       0.00000010       0.00000003      -0.00000074      -0.00000121       0.00000248       0.00000440
Cl       1.96793721       1.39154222       6.78897919       0.00113457       0.00080644      -0.00000451
Cl       5.87130055       4.15163718       6.78897829      -0.00114010      -0.00079922      -0.00001301
Cl       4.89546028       1.39154265       5.09877277      -0.00056966       0.00080794       0.00097583
Cl       2.94377755       4.15163679       8.47918531       0.00056323      -0.00080338      -0.00099309
Cl       2.94377835       4.15163687       5.09877349       0.00056905      -0.00080274       0.00098144
Cl       4.89545969       1.39154171       8.47918580      -0.00057428       0.00080363      -0.00099020
