9
Lattice="5.499449326290922 6.951727023176897e-08 3.175108576773126 1.833149821904707 5.1849307190628595 3.175108609798366 3.339590403204925e-08 6.406193543446464e-08 6.350217095702846" Properties=species:S:1:pos:R:3:forces:R:3 energy=-49.52994918823242 free_energy=-49.52994918823242 stress="-8.018016524147242e-05 -1.10581162005019e-08 1.0155891239094217e-08 -1.10581162005019e-08 -8.019627421163023e-05 -2.5062108832685226e-08 1.0155891239094217e-08 -2.5062108832685226e-08 -8.020747191039845e-05" pbc="T T T"
Y        1.83314968       1.29623300       3.17510841      -0.00000064       0.00000077      -0.00000087
Y        5.49944933       3.88869803       9.52532579      -0.00000043       0.00000046       0.00000059
Pd      -0.00000013       0.00000022       0.00000039       0.00000275      -0.00000595      -0.00001061
S        1.89627696       1.34087044       6.35021712      -0.00342029      -0.00241816      -0.00000011
S        5.43632233       3.84406043       6.35021718       0.00342166       0.00241828      -0.00000016
S        4.55131112       1.34087014       4.81733256       0.00170752      -0.00241488      -0.00295705
S        2.78128845       3.84406016       7.88310143      -0.00171271       0.00242186       0.00296652
S        2.78128849       3.84406047       4.81733269      -0.00170979       0.00241756      -0.00296247
S        4.55131049       1.34087052       7.88310160       0.00171143      -0.00242025       0.00296456
