9
Lattice="4.706378031463218 5.976630194918487e-08 2.7172284984765787 1.5687926603689115 4.43721633051922 2.7172286251478726 6.413238281982266e-09 1.5967485672406416e-07 5.434456985845105" Properties=species:S:1:pos:R:3:forces:R:3 energy=-51.196556091308594 free_energy=-51.196556091308594 stress="-0.000523625232744962 1.433923699778461e-07 -6.08511285804525e-08 1.433923699778461e-07 -0.0005236729048192501 -1.0729303312473348e-07 -6.08511285804525e-08 -1.0729303312473348e-07 -0.0005232733674347401" pbc="T T T"
Y        1.56879358       1.10930507       2.71722837       0.00001149       0.00001050      -0.00000276
Y        4.70637710       3.32791235       8.15168691      -0.00001143      -0.00000190       0.00001357
Pd       0.00000003       0.00000020       0.00000000      -0.00000348      -0.00000555       0.00000153
F        1.68150860       1.18900563       5.43445720       0.00487705       0.00344206       0.00000354
F        4.59366232       3.24821056       5.43445601      -0.00486857      -0.00344144      -0.00000955
F        3.86562400       1.18900640       4.17345689      -0.00243741       0.00344998       0.00421506
F        2.40954627       3.24820969       6.69545731       0.00243361      -0.00345229      -0.00421485
F        2.40954756       3.24820945       4.17345644       0.00244003      -0.00344938       0.00420730
F        3.86562317       1.18900683       6.69545739      -0.00244106       0.00344816      -0.00421405
