9
Lattice="5.97430656062623 0.6745423703302146 3.174972949649699 2.514606790116393 5.588398822283089 3.4329773728380535 0.35809842761178984 0.40440526181930153 5.885462761406046" Properties=species:S:1:pos:R:3:forces:R:3 energy=-59.141536712646484 free_energy=-59.141536712646484 stress="0.0017220075242221355 4.6939625462982804e-05 0.00040980015182867646 4.6939625462982804e-05 0.0010524161625653505 -0.0002725700323935598 0.00040980015182867646 -0.0002725700323935598 -0.00048338770284317434" pbc="T T T"
Y        3.96724785       2.79702620       3.11811530       0.01449196      -0.00978859      -0.01611312
Y        7.35039313       6.17763146      10.03136248      -0.00195499       0.00010143      -0.00828299
P        0.30162648      -0.01987313       0.69048564      -0.00797790       0.00728646       0.00929561
F        3.40257415      -1.01790660       6.17166158      -0.00312493       0.00092892       0.00784329
F        5.80538032       6.36516458       5.87697564      -0.01227584       0.00531626      -0.00105157
F        3.89254038       1.77523740       5.04288452      -0.00015412       0.01012024      -0.00235321
F        2.96410541       4.15882083       7.51268903      -0.00676444       0.00080302      -0.00409231
F        2.16399056       3.83108551       4.28417886       0.00434432       0.01329720      -0.00634582
F        5.54014937       2.60211160       7.24518295       0.01341602      -0.02806499       0.02110025
