9
Lattice="5.1506229596081825 5.742811522708454e-06 2.9737233320792833 1.7168800915963056 4.856088993070588 2.9737227131271484 -3.0396923322644386e-06 -2.9074466633405363e-06 5.947451929063718" Properties=species:S:1:pos:R:3:forces:R:3 energy=-47.39522171020508 free_energy=-47.39522171020508 stress="-0.0003880018775817007 -9.907694220601115e-06 4.295208782423288e-06 -9.907694220601115e-06 -0.00043728455784730613 3.1210886390908854e-06 4.295208782423288e-06 3.1210886390908854e-06 -0.00041606510058045387" pbc="T T T"
Y        1.71649674       1.21422171       2.97388316      -0.00423225       0.00211715       0.00175919
Y        5.15059107       3.64184504       8.92121524      -0.00049926      -0.00242682       0.00052792
P        0.00002294      -0.00000386      -0.00001297       0.00029421       0.00002109      -0.00014573
F        1.87231022       1.32408058       5.94734984      -0.00207782       0.00004229      -0.00101489
F        4.99524553       3.53194024       5.94744291       0.00276172      -0.00090793      -0.00009787
F        4.21459962       1.32407948       4.59527023       0.00242463       0.00004765      -0.00109833
F        2.65304646       3.53209169       7.29963591      -0.00082314       0.00091466       0.00113571
F        2.65304268       3.53204827       4.59522083      -0.00090283       0.00028187      -0.00163865
F        4.21464523       1.32406511       7.29958666       0.00305468      -0.00008985       0.00057197
