9
Lattice="6.779949665027188 1.490153949463163e-08 3.914405724855215 2.2599832188664974 6.392197891787862 3.9144057540550645 -4.312443621342686e-09 3.271301943217056e-08 7.828811457179807" Properties=species:S:1:pos:R:3:forces:R:3 energy=-30.798234939575195 free_energy=-30.798234939575195 stress="0.00020624129683710635 -1.2754400313674807e-10 2.470129212284178e-09 -1.2754400313674807e-10 0.00020625043543986976 -4.308944756559185e-09 2.470129212284178e-09 -4.308944756559185e-09 0.00020624446915462613" pbc="T T T"
Y        2.25998299       1.59804936       3.91440581      -0.00000082      -0.00000075       0.00000114
Y        6.77994980       4.79414846      11.74321666       0.00000011      -0.00000007      -0.00000287
P       -0.00000012      -0.00000004      -0.00000011       0.00000017       0.00000005       0.00000003
I        2.32234848       1.64214849       7.82881152      -0.00077820      -0.00055033      -0.00000027
I        6.71758450       4.75004950       7.82881179       0.00077692       0.00054957       0.00000022
I        5.61877536       1.64214835       5.92561874       0.00038791      -0.00054972      -0.00067282
I        3.42115765       4.75004957       9.73200430      -0.00038747       0.00055043       0.00067356
I        3.42115740       4.75004951       5.92561876      -0.00038853       0.00055011      -0.00067332
I        5.61877547       1.64214860       9.73200422       0.00038992      -0.00054924       0.00067428
