9
Lattice="4.4168726342311535 1.7314137947106687e-07 2.5500825244229413 1.4722909067101488 4.164268083520305 2.550082757567652 -2.1509718803334187e-07 1.334461167793335e-07 5.100165421405124" Properties=species:S:1:pos:R:3:forces:R:3 energy=-71.79219818115234 free_energy=-71.79219818115234 stress="-0.00011714718857547268 -9.230483044575521e-08 1.1810187316996235e-07 -9.230483044575521e-08 -0.00011742878996301442 3.359965461413594e-08 1.1810187316996235e-07 3.359965461413594e-08 -0.00011699653987307101" pbc="T T T"
Y        1.47229072       1.04106694       2.55008264       0.00000050       0.00000051      -0.00000019
Y        4.41687271       3.12320118       7.65024815      -0.00000020      -0.00000073       0.00000094
P       -0.00000027       0.00000010      -0.00000009       0.00000780       0.00000041      -0.00000024
O        1.41052906       0.99739506       5.10016536      -0.00677097      -0.00478709      -0.00000088
O        4.47863410       3.16687337       5.10016492       0.00676823       0.00478578       0.00000318
O        3.71160767       0.99739535       3.77163688       0.00338411      -0.00478959      -0.00586462
O        2.17755540       3.16687324       6.42869372      -0.00338733       0.00478983       0.00586438
O        2.17755554       3.16687339       3.77163695      -0.00338757       0.00478542      -0.00586164
O        3.71160766       0.99739518       6.42869389       0.00338495      -0.00478506       0.00585854
