9
Lattice="5.424092375575671 -6.438101704713942e-08 3.131601284859726 1.808030712331523 5.113883474092597 3.131601317470784 -3.902458275647255e-08 1.2345698373463426e-08 6.263202637312019" Properties=species:S:1:pos:R:3:forces:R:3 energy=-51.54450988769531 free_energy=-51.54450988769531 stress="-1.0935727914329618e-05 -2.4115212937658725e-08 -2.5767205258375725e-08 -2.4115212937658725e-08 -1.089906072593294e-05 -1.6735809182932826e-08 -2.5767205258375725e-08 -1.6735809182932826e-08 -1.0975712939398363e-05" pbc="T T T"
Y        1.80803106       1.27847054       3.13160140       0.00000170       0.00000043       0.00000044
Y        5.42409261       3.83541286       9.39480443       0.00000187       0.00000030      -0.00000055
P       -0.00000019      -0.00000005      -0.00000023       0.00000176       0.00000265      -0.00000170
S        1.77477250       1.25495387       6.26320272       0.00057530       0.00040793       0.00000008
S        5.45735052       3.85892952       6.26320249      -0.00058192      -0.00040954      -0.00000044
S        4.53670593       1.25495392       4.66859947      -0.00028819       0.00040624       0.00049883
S        2.69541669       3.85892953       7.85780558       0.00028777      -0.00040627      -0.00050026
S        2.69541700       3.85892956       4.66859931       0.00028971      -0.00040832       0.00050211
S        4.53670595       1.25495382       7.85780564      -0.00028825       0.00040656      -0.00049794
