9
Lattice="6.031232416267341 8.92206906350747e-08 3.482133810269855 2.0104108969990437 5.686300327609936 3.4821337973512945 1.5014289763273948e-07 9.03451164383765e-08 6.964267360484537" Properties=species:S:1:pos:R:3:forces:R:3 energy=-39.27091979980469 free_energy=-39.27091979980469 stress="0.00012249290011823177 8.856633648690604e-09 -1.5794910934729955e-09 8.856633648690604e-09 0.00012251305452082306 5.679450687523513e-09 -1.5794910934729955e-09 5.679450687523513e-09 0.00012249159044586122" pbc="T T T"
Y        2.01041234       1.42157665       3.48213207       0.00000921       0.00000848      -0.00001198
Y        6.03123315       4.26472462      10.44640097       0.00000260      -0.00000566      -0.00000312
Pt      -0.00000016      -0.00000014       0.00000030      -0.00000053       0.00000104      -0.00000600
Cl       1.98491853       1.40354932       6.96426803       0.00144041       0.00102034       0.00000341
Cl       6.05672465       4.28275088       6.96426785      -0.00144166      -0.00101936       0.00000167
Cl       5.03877343       1.40354956       5.20112328      -0.00072256       0.00102180       0.00125152
Cl       3.00286955       4.28275014       8.72741181       0.00071660      -0.00102308      -0.00124514
Cl       3.00286964       4.28275104       5.20112363       0.00071943      -0.00102273       0.00125310
Cl       5.03877274       1.40354999       8.72741199      -0.00072333       0.00101930      -0.00124335
