9
Lattice="4.726191139988427 1.5770968043133877e-07 2.728666575722691 1.575397308355896 4.455894765085016 2.7286663799957345 1.1465519610664132e-06 5.710191297706643e-07 5.457331165559722" Properties=species:S:1:pos:R:3:forces:R:3 energy=-48.191261291503906 free_energy=-48.191261291503906 stress="6.018735439283773e-05 1.3482762142302818e-06 -1.6896010492928326e-06 1.3482762142302818e-06 5.9844056522706524e-05 -1.2821958534914302e-06 -1.6896010492928326e-06 -1.2821958534914302e-06 6.340640538837761e-05" pbc="T T T"
Y        1.57540801       1.11398073       2.72862551       0.00015943       0.00010201      -0.00059964
Y        4.72616429       3.34190797       8.18599375      -0.00040444      -0.00020267      -0.00004191
Pt       0.00000178       0.00000012       0.00000477       0.00003221       0.00001143       0.00007832
F        1.63865893       1.15870489       5.45734621      -0.00339115      -0.00243551       0.00025862
F        4.66293243       3.29719083       5.45732754       0.00342530       0.00242846      -0.00003466
F        3.90687063       1.15871075       4.14777585       0.00177763      -0.00225729      -0.00299950
F        2.39472647       3.29717569       6.76690281      -0.00164257       0.00220394       0.00318094
F        2.39474125       3.29720090       4.14777953      -0.00149138       0.00246784      -0.00299560
F        3.90685417       1.15870997       6.76690068       0.00153466      -0.00231870       0.00315362
