9
Lattice="6.18629683303659 5.732898228299067e-08 3.5716600282701214 2.062098939593325 5.8324968347458945 3.5716601301190605 -1.4970459082933514e-07 1.8881786514692365e-08 7.143320315836237" Properties=species:S:1:pos:R:3:forces:R:3 energy=-37.07233428955078 free_energy=-37.07233428955078 stress="0.0001210267364513129 6.910894079226182e-09 3.79167675035319e-09 6.910894079226182e-09 0.0001210298141813837 -1.4493476641064262e-08 3.79167675035319e-09 -1.4493476641064262e-08 0.00012101441097911447" pbc="T T T"
Y        2.06209856       1.45812450       3.57166007      -0.00000084       0.00000092      -0.00000102
Y        6.18629653       4.37437290      10.71497957      -0.00000153       0.00000269      -0.00000446
Pt       0.00000021       0.00000007      -0.00000010      -0.00000177       0.00000197       0.00000577
Br       2.02025768       1.42853761       7.14332046       0.00172216       0.00121729      -0.00000009
Br       6.22813809       4.40395918       7.14332038      -0.00172225      -0.00121766       0.00000136
Br       5.17616810       1.42853780       5.32125475      -0.00085963       0.00121574       0.00149062
Br       3.07222757       4.40395885       8.96538612       0.00086325      -0.00122020      -0.00149335
Br       3.07222768       4.40395864       5.32125467       0.00085887      -0.00121713       0.00149047
Br       5.17616805       1.42853815       8.96538591      -0.00085838       0.00121634      -0.00148922
