9
Lattice="5.792508010888236 -4.0173864413932715e-08 3.34430615335636 1.9308359761046472 5.461228993530104 3.3443061354270682 1.30144253488227e-08 -1.275630669142145e-08 6.688612284171114" Properties=species:S:1:pos:R:3:forces:R:3 energy=-47.524940490722656 free_energy=-47.524940490722656 stress="5.61432825634256e-05 -2.8608999613766173e-08 -7.242378696759033e-09 -2.8608999613766173e-08 5.61351262149401e-05 1.2553524442182606e-08 -7.242378696759033e-09 1.2553524442182606e-08 5.617948409053497e-05" pbc="T T T"
Y        1.93083605       1.36530711       3.34430621       0.00000134       0.00000015       0.00000119
Y        5.79250781       4.09592161      10.03291768      -0.00000207      -0.00000066      -0.00000122
Pt      -0.00000001      -0.00000005       0.00000047       0.00000179       0.00000279      -0.00000579
Se       1.98626306       1.40450016       6.68861220      -0.00121939      -0.00086218       0.00000031
Se       5.73708090       4.05672887       6.68861252       0.00121698       0.00086063      -0.00000087
Se       4.79937649       1.40450000       5.06446062       0.00060923      -0.00086203      -0.00105679
Se       2.92396780       4.05672879       8.31276391      -0.00060993       0.00086355       0.00105891
Se       2.92396740       4.05672894       5.06446060      -0.00060791       0.00086099      -0.00105521
Se       4.79937655       1.40450033       8.31276409       0.00060984      -0.00086328       0.00105965
