9
Lattice="6.6715882351896365 -9.921197596472214e-09 3.8518432796481954 2.223862719781447 6.29003376893656 3.851843307236214 -2.6464514165235263e-08 1.507507434225879e-08 7.7036866051342585" Properties=species:S:1:pos:R:3:forces:R:3 energy=-33.122108459472656 free_energy=-33.122108459472656 stress="4.9486508942209184e-05 -1.9003602247380513e-08 -1.754131173647977e-09 -1.9003602247380513e-08 4.949863432557322e-05 -3.973633422305056e-09 -1.754131173647977e-09 -3.973633422305056e-09 4.953475945512764e-05" pbc="T T T"
Y        2.22386285       1.57250846       3.85184294       0.00000071       0.00000010      -0.00000064
Y        6.67158820       4.71752526      11.55552986       0.00000012       0.00000025      -0.00000099
Pt      -0.00000015      -0.00000007      -0.00000025       0.00000225       0.00000090      -0.00000172
I        2.21624777       1.56712393       7.70368665       0.00041591       0.00029440       0.00000020
I        6.67920334       4.72290993       7.70368662      -0.00041918      -0.00029656       0.00000022
I        5.56346428       1.56712390       5.77117035      -0.00020775       0.00029400       0.00036076
I        3.33198656       4.72291000       9.63620315       0.00020760      -0.00029290      -0.00035928
I        3.33198660       4.72290994       5.77117032       0.00020815      -0.00029366       0.00036030
I        5.56346424       1.56712375       9.63620314      -0.00020760       0.00029358      -0.00035888
