9
Lattice="6.262718898711934 5.051562063435681e-08 3.6157825541620503 2.0875730340348695 5.904548058947071 3.6157825192249216 5.329762665514204e-09 -3.902037278323887e-08 7.231565099092601" Properties=species:S:1:pos:R:3:forces:R:3 energy=-49.00138854980469 free_energy=-49.00138854980469 stress="-1.2289189726288896e-05 1.2280305661249713e-08 -4.2698484747916154e-09 1.2280305661249713e-08 -1.2304818483244162e-05 1.0257370064437055e-08 -4.2698484747916154e-09 1.0257370064437055e-08 -1.2315105777815916e-05" pbc="T T T"
Y        2.08757310       1.47613686       3.61578239      -0.00000023      -0.00000031       0.00000007
Y        6.26271867       4.42841100      10.84734799      -0.00000068      -0.00000002       0.00000162
Re       0.00000005      -0.00000003      -0.00000004       0.00000018      -0.00000038      -0.00000111
Te       2.14483657       1.51662857       7.23156511       0.00009508       0.00006611      -0.00000075
Te       6.20545530       4.38791972       7.23156521      -0.00009571      -0.00006720       0.00000031
Te       5.19030087       1.51662859       5.47326554      -0.00004761       0.00006772       0.00008273
Te       3.15999134       4.38791958       8.98986463       0.00004777      -0.00006634      -0.00008294
Te       3.15999146       4.38791966       5.47326519       0.00004891      -0.00006783       0.00008346
Te       5.19030040       1.51662830       8.98986471      -0.00004780       0.00006824      -0.00008346
