9
Lattice="6.737302016877663 1.1664122695049599e-07 3.8897830831012197 2.245767397667943 6.351989205273498 3.8897831718890266 -8.700533992947418e-10 1.0812718058887532e-07 7.779566167709381" Properties=species:S:1:pos:R:3:forces:R:3 energy=-36.783363342285156 free_energy=-36.783363342285156 stress="2.4751279852353036e-05 6.144105224592522e-09 -2.784459107729731e-09 6.144105224592522e-09 2.475096334819682e-05 9.1320977446685e-09 -2.784459107729731e-09 9.1320977446685e-09 2.476866211509332e-05" pbc="T T T"
Y        2.24576774       1.58799690       3.88978314       0.00000108      -0.00000213       0.00000033
Y        6.73730216       4.76399209      11.66934883       0.00000066       0.00000167      -0.00000210
Re       0.00000008       0.00000003       0.00000010       0.00000036       0.00000143      -0.00000197
I        2.22423186       1.57276954       7.77956630      -0.00086878      -0.00061487      -0.00000043
I        6.75883731       4.77922009       7.77956631       0.00086752       0.00061515       0.00000089
I        5.62518610       1.57276936       5.81602450       0.00043362      -0.00061455      -0.00075124
I        3.35788330       4.77921992       9.74310800      -0.00043473       0.00061432       0.00075248
I        3.35788318       4.77922001       5.81602449      -0.00043436       0.00061369      -0.00075150
I        5.62518594       1.57276977       9.74310801       0.00043464      -0.00061481       0.00075354
