9
Lattice="5.853222132568219 -7.94068543763501e-08 3.3793594133616915 1.9510739802727548 5.518470761921644 3.3793593943977074 1.4246949679604294e-08 -1.3151925672142812e-08 6.758718802046941" Properties=species:S:1:pos:R:3:forces:R:3 energy=-53.784881591796875 free_energy=-53.784881591796875 stress="-0.00016248061729129404 -6.029388543993264e-08 -6.073810343565356e-09 -6.029388543993264e-08 -0.0001624453580006957 6.266271945776225e-09 -6.073810343565356e-09 6.266271945776225e-09 -0.00016240793047472835" pbc="T T T"
Y        1.95107402       1.37961745       3.37935931       0.00000122       0.00000025      -0.00000006
Y        5.85322212       4.13885275      10.13807771       0.00000006      -0.00000160      -0.00000119
Re      -0.00000017       0.00000000       0.00000002       0.00000176      -0.00000122      -0.00000208
Se       1.99551701       1.41104407       6.75871887      -0.00389397      -0.00275418      -0.00000036
Se       5.80877925       4.10742731       6.75871899       0.00389141       0.00275266       0.00000052
Se       4.85546335       1.41104389       5.10752828       0.00194807      -0.00275522      -0.00337598
Se       2.94883259       4.10742672       8.40990930      -0.00194904       0.00275838       0.00337836
Se       2.94883271       4.10742665       5.10752840      -0.00194876       0.00275728      -0.00337717
Se       4.85546365       1.41104385       8.40990954       0.00194938      -0.00275633       0.00337771
