9
Lattice="4.54734404469726 -4.6738521512597746e-08 2.6254102848753624 1.5157812916537716 4.2872771545627355 2.625410306548758 -1.1466046539559201e-08 1.8436659522096116e-08 5.250820589610491" Properties=species:S:1:pos:R:3:forces:R:3 energy=-57.07965850830078 free_energy=-57.07965850830078 stress="0.0003712034085765481 -2.086109063270669e-08 -6.178974842896423e-08 -2.086109063270669e-08 0.00037125966628082097 8.016402119892518e-08 -6.178974842896423e-08 8.016402119892518e-08 0.0003713078913278878" pbc="T T T"
Y        1.51578131       1.07181946       2.62541029       0.00000029       0.00000122       0.00000117
Y        4.54734407       3.21545784       7.87623057       0.00000245       0.00000139      -0.00000242
Re       0.00000008      -0.00000006      -0.00000015      -0.00000746       0.00000060      -0.00000571
F        1.66666320       1.17850889       5.25082069       0.00095946       0.00067884       0.00000066
F        4.39646205       3.10876813       5.25082074      -0.00095594      -0.00067371       0.00000040
F        3.71401236       1.17850898       4.06878322      -0.00047690       0.00067347       0.00082624
F        2.34911281       3.10876811       6.43285818       0.00047597      -0.00067574      -0.00082767
F        2.34911280       3.10876816       4.06878302       0.00047886      -0.00068110       0.00083232
F        3.71401265       1.17850895       6.43285815      -0.00047675       0.00067532      -0.00082576
