9
Lattice="4.653729164316793 4.506981701450565e-09 2.6868318000951326 1.5512430791748408 4.387578014235686 2.686831765188546 3.990330203674692e-08 -1.4535797906878475e-08 5.373663531075759" Properties=species:S:1:pos:R:3:forces:R:3 energy=-75.1297836303711 free_energy=-75.1297836303711 stress="-4.115765113965608e-05 -2.2482186778916002e-08 -2.3984247476960263e-08 -2.2482186778916002e-08 -4.115774208912626e-05 3.08239549440259e-08 -2.3984247476960263e-08 3.08239549440259e-08 -4.112749229534529e-05" pbc="T T T"
Y        1.55124263       1.09689438       2.68683198      -0.00000432      -0.00000042      -0.00000024
Y        4.65372946       3.29068331       8.06049570       0.00000288      -0.00000053       0.00000315
Re       0.00000030      -0.00000007       0.00000007      -0.00000315      -0.00000201       0.00000167
O        1.54555952       1.09287604       5.37366341      -0.00025205      -0.00017658      -0.00000044
O        4.65941285       3.29470202       5.37366310       0.00025484       0.00017682      -0.00000127
O        3.88094910       1.09287570       4.02532555       0.00012575      -0.00017981      -0.00022121
O        2.32402298       3.29470234       6.72200114      -0.00012447       0.00017969       0.00022230
O        2.32402300       3.29470280       4.02532620      -0.00012633       0.00018173      -0.00022033
O        3.88094938       1.09287561       6.72200121       0.00012693      -0.00017907       0.00021641
