9
Lattice="5.901596829337234 2.2835266284259346e-07 3.407288507575824 1.9671990164639974 5.56407917385661 3.4072887534254406 -5.573440637596474e-08 2.616928988384312e-07 6.814577111686517" Properties=species:S:1:pos:R:3:forces:R:3 energy=-44.30354309082031 free_energy=-44.30354309082031 stress="0.00010749623470474035 8.237144299982901e-09 -7.439780347340275e-08 8.237144299982901e-09 0.00010755717812571675 3.2924052817406846e-08 -7.439780347340275e-08 3.2924052817406846e-08 0.00010762520832940936" pbc="T T T"
Y        1.96719680       1.39102034       3.40729083      -0.00001146       0.00000116       0.00001383
Y        5.90159730       4.17306053      10.22186253       0.00000238       0.00000281      -0.00002021
Re      -0.00000016      -0.00000008       0.00000033       0.00000281       0.00000054      -0.00000170
Cl       1.93820265       1.37051573       6.81457616       0.00252229       0.00178386      -0.00000747
Cl       5.93059395       4.19356342       6.81457856      -0.00252257      -0.00178806       0.00000971
Cl       4.93249564       1.37051566       5.08582149      -0.00126109       0.00177822       0.00218761
Cl       2.93630036       4.19356325       8.54333311       0.00126297      -0.00177868      -0.00218293
Cl       2.93629955       4.19356315       5.08582138       0.00125670      -0.00178681       0.00218812
Cl       4.93249703       1.37051671       8.54333308      -0.00125191       0.00178687      -0.00218695
