9
Lattice="5.560336314510708 3.923923974923913e-08 3.210261853750102 1.8534454305186667 5.242335741992336 3.210261931080384 -2.255211117743223e-08 7.876314347075744e-08 6.420523746561597" Properties=species:S:1:pos:R:3:forces:R:3 energy=-58.54570007324219 free_energy=-58.54570007324219 stress="-0.00014946502051316202 -1.997659992980516e-08 9.281426294194262e-09 -1.997659992980516e-08 -0.00014941595145501196 -2.1370535563391968e-08 9.281426294194262e-09 -2.1370535563391968e-08 -0.00014948903117328882" pbc="T T T"
Y        1.85344533       1.31058376       3.21026178      -0.00000097      -0.00000084      -0.00000006
Y        5.56033609       3.93175145       9.63078509      -0.00000061      -0.00000077      -0.00000257
Re      -0.00000002      -0.00000003       0.00000016       0.00000069       0.00000158       0.00000535
S        1.90132011       1.34443663       6.42052375      -0.00206548      -0.00146079      -0.00000009
S        5.51246152       3.89789934       6.42052377       0.00206566       0.00146079       0.00000043
S        4.60967617       1.34443668       4.85685401       0.00103393      -0.00146383      -0.00179201
S        2.80410594       3.89789929       7.98419405      -0.00103161       0.00146049       0.00178963
S        2.80410554       3.89789941       4.85685390      -0.00103486       0.00146341      -0.00179118
S        4.60967625       1.34443687       7.98419376       0.00103354      -0.00146013       0.00179070
