9
Lattice="6.191764502014759 -2.1054341781414677e-07 3.5748165814468797 2.0639212769635824 5.837650941629925 3.574816625104566 -6.608289448840609e-08 6.7418535322506005e-09 7.149633277352683" Properties=species:S:1:pos:R:3:forces:R:3 energy=-40.96343231201172 free_energy=-40.96343231201172 stress="0.00016704743029549718 -8.411242369277261e-09 -7.506568699966465e-09 -8.411242369277261e-09 0.00016698750550858676 4.568008193928108e-09 -7.506568699966465e-09 4.568008193928108e-09 0.00016702340508345515" pbc="T T T"
Y        2.06392274       1.45941279       3.57481661       0.00000550      -0.00000046       0.00000028
Y        6.19176407       4.37823775      10.72445021      -0.00000059      -0.00000086       0.00000012
Re      -0.00000003      -0.00000002       0.00000002       0.00000022       0.00000263      -0.00000111
Br       2.02261757       1.43020622       7.14963323       0.00158098       0.00111730      -0.00000060
Br       6.23306794       4.40744472       7.14963317      -0.00158429      -0.00111704      -0.00000035
Br       5.18045542       1.43020636       5.32645457      -0.00079216       0.00111838       0.00136733
Br       3.07522983       4.40744448       8.97281187       0.00078963      -0.00111811      -0.00136809
Br       3.07522988       4.40744448       5.32645451       0.00079246      -0.00111970       0.00136931
Br       5.18045540       1.43020621       8.97281172      -0.00079186       0.00111781      -0.00136679
