9
Lattice="4.597051239130381 4.0793928978368084e-08 2.654108797905734 1.532350426573783 4.334141585236857 2.654108841086726 -1.4962602423879952e-08 4.230554124099174e-08 5.308217621727431" Properties=species:S:1:pos:R:3:forces:R:3 energy=-66.55785369873047 free_energy=-66.55785369873047 stress="-8.595133840572089e-05 4.439299061687052e-08 -2.9080604591058545e-09 4.439299061687052e-08 -8.596570114605129e-05 -1.1458103799100172e-08 -2.9080604591058545e-09 -1.1458103799100172e-08 -8.600902219768614e-05" pbc="T T T"
Y        1.53235013       1.08353547       2.65410863      -0.00000146       0.00000310      -0.00000112
Y        4.59705130       3.25060637       7.96232604       0.00000006      -0.00000051      -0.00000336
Rh       0.00000006       0.00000009       0.00000010      -0.00000145      -0.00001037       0.00000150
O        1.56732683       1.10826767       5.30821773       0.00004867       0.00003477       0.00000232
O        4.56207470       3.22587401       5.30821783      -0.00004371      -0.00003063      -0.00000102
O        3.81338798       1.10826721       4.01145377      -0.00002479       0.00003573       0.00004613
O        2.31601409       3.22587429       6.60498165       0.00002375      -0.00003430      -0.00004025
O        2.31601367       3.22587397       4.01145375       0.00002369      -0.00003283       0.00003938
O        3.81338784       1.10826762       6.60498154      -0.00002507       0.00003453      -0.00004311
