9
Lattice="6.645724421431065 5.6355332716252527e-08 3.83691079737742 2.215241525210703 6.265649092547134 3.836910800377215 1.9300424468025418e-08 1.732141409086704e-08 7.673821561325542" Properties=species:S:1:pos:R:3:forces:R:3 energy=-34.84989547729492 free_energy=-34.84989547729492 stress="0.00025436424766667187 -5.74301939337829e-10 8.637254245158488e-10 -5.74301939337829e-10 0.00025435895076952875 2.0765233976760555e-09 8.637254245158488e-10 2.0765233976760555e-09 0.00025435880525037646" pbc="T T T"
Y        2.21524158       1.56641225       3.83691094      -0.00000101       0.00000001       0.00000002
Y        6.64572455       4.69923642      11.51073211       0.00000140      -0.00000142      -0.00000181
Rh      -0.00000012       0.00000020       0.00000012       0.00000226      -0.00000141      -0.00000086
I        2.18458071       1.54473206       7.67382152      -0.00419676      -0.00296708      -0.00000014
I        6.67638520       4.72091741       7.67382183       0.00419516       0.00296836       0.00000054
I        5.55343424       1.54473198       5.72881297       0.00209812      -0.00296732      -0.00363418
I        3.30753178       4.72091723       9.61883004      -0.00209946       0.00296849       0.00363566
I        3.30753166       4.72091720       5.72881314      -0.00209848       0.00296816      -0.00363404
I        5.55343426       1.54473193       9.61882998       0.00209865      -0.00296776       0.00363488
