9
Lattice="6.131645264595949 -1.0876044077115483e-08 3.5401069531819225 2.0438817297146237 5.780970548644042 3.540106978983641 9.534630844843184e-09 3.834255147672162e-08 7.080213889849362" Properties=species:S:1:pos:R:3:forces:R:3 energy=-38.89521408081055 free_energy=-38.89521408081055 stress="6.381930143106729e-05 -1.264236804132679e-08 -1.7200120216998016e-09 -1.264236804132679e-08 6.381083949236199e-05 -2.522955844241892e-09 -1.7200120216998016e-09 -2.522955844241892e-09 6.382689025485888e-05" pbc="T T T"
Y        2.04388148       1.44524217       3.54010720      -0.00000239      -0.00000307       0.00000126
Y        6.13164494       4.33572838      10.62032087      -0.00000178       0.00000214       0.00000087
Rh       0.00000021      -0.00000000      -0.00000017       0.00000040       0.00000032      -0.00000184
Br       2.00224836       1.41580318       7.08021384       0.00110897       0.00078474       0.00000036
Br       6.17327877       4.36516737       7.08021396      -0.00110767      -0.00078449      -0.00000055
Br       5.13052089       1.41580303       5.27410481      -0.00055367       0.00078356       0.00096011
Br       3.04500599       4.36516777       8.88632312       0.00055478      -0.00078297      -0.00096023
Br       3.04500616       4.36516745       5.27410457       0.00055508      -0.00078253       0.00095976
Br       5.13052129       1.41580305       8.88632312      -0.00055366       0.00078221      -0.00095962
