9
Lattice="6.64426875003366 -4.536553312852234e-09 3.8360704048268426 2.2147562272447145 6.264276697203941 3.8360704368513563 6.063544141966859e-09 4.350943072407369e-08 7.672140799151302" Properties=species:S:1:pos:R:3:forces:R:3 energy=-34.84992980957031 free_energy=-34.84992980957031 stress="4.383881969260983e-05 -1.1550600753640339e-10 2.7167759153456927e-09 -1.1550600753640339e-10 4.384303611004725e-05 -2.2664721210929883e-09 2.7167759153456927e-09 -2.2664721210929883e-09 4.386182990856469e-05" pbc="T T T"
Y        2.21475629       1.56606919       3.83607006       0.00000017      -0.00000018      -0.00000162
Y        6.64426870       4.69820718      11.50821148      -0.00000140      -0.00000062       0.00000079
Rh      -0.00000019      -0.00000007      -0.00000003       0.00000163       0.00000186      -0.00000106
I        2.18384580       1.54421236       7.67214082       0.00035866       0.00025305       0.00000016
I        6.67517919       4.72006458       7.67214073      -0.00035938      -0.00025427       0.00000010
I        5.55234590       1.54421246       5.72733664      -0.00017873       0.00025354       0.00031081
I        3.30667914       4.72006432       9.61694502       0.00017905      -0.00025384      -0.00030946
I        3.30667940       4.72006442       5.72733656       0.00017962      -0.00025349       0.00031091
I        5.55234570       1.54421249       9.61694528      -0.00017962       0.00025397      -0.00031063
