9
Lattice="4.4869027744862 -4.887744536699409e-08 2.5905145062975663 1.4956342954935702 4.23029259683346 2.590514361821014 -3.58712168210134e-08 -2.0231166875362894e-07 5.181029074725874" Properties=species:S:1:pos:R:3:forces:R:3 energy=-52.499263763427734 free_energy=-52.499263763427734 stress="5.254320058156736e-05 9.235282760755581e-08 -4.174008694235454e-08 9.235282760755581e-08 5.238473022473045e-05 9.032291359289957e-08 -4.174008694235454e-08 9.032291359289957e-08 5.224457709118724e-05" pbc="T T T"
Y        1.49563308       1.05757297       2.59051318      -0.00000922       0.00000219      -0.00000448
Y        4.48690197       3.17271997       7.77154317      -0.00000674       0.00000307      -0.00000552
Rh       0.00000021      -0.00000031       0.00000040       0.00000444      -0.00000413      -0.00000488
F        1.63980079       1.15951395       5.18102898      -0.00091040      -0.00064451       0.00000346
F        4.34273697       3.07077757       5.18102925       0.00091374       0.00063962       0.00000286
F        3.66700271       1.15951403       4.01062358       0.00045615      -0.00064364      -0.00078177
F        2.31553554       3.07077907       6.35143482      -0.00045002       0.00064424       0.00079072
F        2.31553434       3.07077816       4.01062334      -0.00045103       0.00064018      -0.00078058
F        3.66700314       1.15951340       6.35143523       0.00045174      -0.00063726       0.00078082
