9
Lattice="5.895745499977318 2.479714510161457e-08 3.403910268394578 1.9652484874960814 5.5585621797656435 3.403910330532389 -5.1734344391519866e-08 3.952131502237381e-08 6.807820626395644" Properties=species:S:1:pos:R:3:forces:R:3 energy=-41.716583251953125 free_energy=-41.716583251953125 stress="0.00010211606422672048 -1.250242220862674e-08 1.4384818669554988e-08 -1.250242220862674e-08 0.00010218675015494227 5.200895358825619e-08 1.4384818669554988e-08 5.200895358825619e-08 0.00010218037641607225" pbc="T T T"
Y        1.96524537       1.38964050       3.40390868      -0.00002164      -0.00000065      -0.00001161
Y        5.89574763       4.16892185      10.21172944       0.00001518       0.00000399      -0.00001219
Rh       0.00000011      -0.00000005       0.00000066       0.00000151      -0.00000015      -0.00000643
Cl       1.94545120       1.37564157       6.80782119       0.00176774       0.00125021       0.00000360
Cl       5.91554298       4.18292053       6.80782140      -0.00176851      -0.00125352       0.00000537
Cl       4.92302129       1.37564186       5.08872165      -0.00087692       0.00124906       0.00154079
Cl       2.93797331       4.18292017       8.52692006       0.00087955      -0.00124754      -0.00152917
Cl       2.93797343       4.18292026       5.08872119       0.00087958      -0.00124902       0.00153680
Cl       4.92302049       1.37564221       8.52692063      -0.00087633       0.00124751      -0.00152726
