9
Lattice="5.498676922645488 -3.1247164694759374e-08 3.174662791699871 1.8328923094340561 5.184202328312087 3.174662737407593 7.026775457211666e-08 -1.6807401943269176e-08 6.349325461692453" Properties=species:S:1:pos:R:3:forces:R:3 energy=-52.95430374145508 free_energy=-52.95430374145508 stress="8.028214506339282e-05 -1.0211014256356066e-08 3.3288889422777856e-09 -1.0211014256356066e-08 8.026436262298375e-05 -6.751259551407429e-09 3.3288889422777856e-09 -6.751259551407429e-09 8.023138798307627e-05" pbc="T T T"
Y        1.83289242       1.29605073       3.17466281      -0.00000015       0.00000041       0.00000101
Y        5.49867710       3.88815180       9.52398830       0.00000013       0.00000066      -0.00000041
Rh      -0.00000008       0.00000002      -0.00000007       0.00000071      -0.00000057      -0.00000469
S        1.86636122       1.31971656       6.34932520       0.00076634       0.00054127      -0.00000061
S        5.46520808       3.86448578       6.34932554      -0.00076634      -0.00054169      -0.00000045
S        4.56549624       1.31971659       4.79097910      -0.00038260       0.00054240       0.00066489
S        2.76607298       3.86448548       7.90767212       0.00038090      -0.00053960      -0.00066125
S        2.76607282       3.86448553       4.79097899       0.00038260      -0.00054139       0.00066334
S        4.56549643       1.31971673       7.90767209      -0.00038168       0.00053847      -0.00066149
