9
Lattice="6.133603521962752 7.085402340531438e-08 3.541237736597073 2.0445345547540184 5.782816851315981 3.5412377701446225 2.4853148450968956e-08 5.8661020128159054e-08 7.082475430147241" Properties=species:S:1:pos:R:3:forces:R:3 energy=-38.89516830444336 free_energy=-38.89516830444336 stress="0.00032292850664816797 -3.3369269569760718e-09 3.583095820047788e-09 -3.3369269569760718e-09 0.00032294966513291 3.003427506698131e-09 3.583095820047788e-09 3.003427506698131e-09 0.0003229081630706787" pbc="T T T"
Y        2.04453514       1.44570534       3.54123762       0.00000123       0.00000320       0.00000015
Y        6.13360367       4.33711224      10.62371375       0.00000011      -0.00000053       0.00000091
Rh      -0.00000012       0.00000007      -0.00000005      -0.00000020       0.00000002      -0.00000041
Br       2.00267367       1.41610437       7.08247532       0.00055797       0.00039517       0.00000036
Br       6.17546421       4.36671248       7.08247522      -0.00055711      -0.00039562       0.00000080
Br       5.13226676       1.41610451       5.27560414      -0.00027883       0.00039345       0.00048254
Br       3.04587117       4.36671243       8.88934691       0.00027842      -0.00039623      -0.00048283
Br       3.04587154       4.36671235       5.27560409       0.00027815      -0.00039483       0.00048217
Br       5.13226639       1.41610413       8.88934678      -0.00027978       0.00039531      -0.00048368
