9
Lattice="4.486465415133426 1.6856381422209653e-07 2.590262093209203 1.4954886500493347 4.229880060545518 2.5902620595819443 6.572912304148742e-08 5.29267801002102e-09 5.180524072572185" Properties=species:S:1:pos:R:3:forces:R:3 energy=-52.49925994873047 free_energy=-52.49925994873047 stress="-5.9468296967679635e-05 1.1883127370992952e-07 1.776639813044767e-08 1.1883127370992952e-07 -5.9391015383880585e-05 4.047985768806939e-08 1.776639813044767e-08 4.047985768806939e-08 -5.962551585980691e-05" pbc="T T T"
Y        1.49548907       1.05746978       2.59026130       0.00000182      -0.00000015      -0.00000451
Y        4.48646516       3.17241068       7.77078649      -0.00000209       0.00000261      -0.00000038
Rh      -0.00000008      -0.00000012      -0.00000015       0.00000489       0.00000461      -0.00000922
F        1.63973985       1.15947139       5.18052441      -0.00026375      -0.00019023       0.00000227
F        4.34221398       3.07040876       5.18052437       0.00025946       0.00018597      -0.00000048
F        3.66659588       1.15947114       4.01031878       0.00013128      -0.00018662      -0.00022721
F        2.31535881       3.07040880       6.35072963      -0.00013316       0.00018802       0.00023240
F        2.31535858       3.07040928       4.01031856      -0.00012821       0.00018638      -0.00022620
F        3.66659527       1.15947114       6.35072988       0.00012937      -0.00019121       0.00023252
