9
Lattice="5.783930406848802 -2.7697998375510574e-08 3.3393538196566164 1.9279767812214865 5.45314185466878 3.3393538109054526 2.2715511996925717e-08 5.344363017572584e-09 6.678707599968795" Properties=species:S:1:pos:R:3:forces:R:3 energy=-48.86769104003906 free_energy=-48.86769104003906 stress="-3.563597419997677e-05 -3.2139436001443755e-08 -6.5015526296008375e-09 -3.2139436001443755e-08 -3.5644865420181304e-05 -2.6887642334827433e-08 -6.5015526296008375e-09 -2.6887642334827433e-08 -3.569237014744431e-05" pbc="T T T"
Y        1.92797678       1.36328561       3.33935368      -0.00000059      -0.00000004      -0.00000042
Y        5.78393047       4.08985631      10.01806144      -0.00000097      -0.00000109       0.00000064
Rh      -0.00000004      -0.00000014       0.00000003       0.00000205       0.00000263      -0.00000112
Se       1.97267124       1.39488910       6.67870757       0.00071877       0.00050694       0.00000100
Se       5.73923600       4.05825277       6.67870761      -0.00072110      -0.00050864      -0.00000055
Se       4.79759489       1.39488923       5.04773730      -0.00035755       0.00050786       0.00062239
Se       2.91431248       4.05825258       8.30967806       0.00035958      -0.00050688      -0.00062236
Se       2.91431232       4.05825251       5.04773730       0.00035894      -0.00050774       0.00062060
Se       4.79759473       1.39488936       8.30967798      -0.00035915       0.00050697      -0.00061998
