9
Lattice="5.9224804217805005 -6.759052686028789e-08 3.4193455772080794 1.9741600996972564 5.583767614455218 3.419345537667477 2.5678631648957106e-07 1.3314820347145837e-07 6.83869070964927" Properties=species:S:1:pos:R:3:forces:R:3 energy=-42.301910400390625 free_energy=-42.301910400390625 stress="0.00010775114060379565 5.302745975654943e-08 2.2066345195526083e-08 5.302745975654943e-08 0.00010787143401103094 -4.2254146848108576e-08 2.2066345195526083e-08 -4.2254146848108576e-08 0.00010783691686810926" pbc="T T T"
Y        1.97415905       1.39594308       3.41934654      -0.00001166       0.00001063       0.00001000
Y        5.92248242       4.18782257      10.25803135       0.00001183      -0.00002304      -0.00003406
Ru       0.00000006       0.00000010       0.00000053      -0.00000512       0.00000481      -0.00000251
Cl       1.95932925       1.38545589       6.83869059       0.00194271       0.00138349      -0.00000093
Cl       5.93731143       4.19831202       6.83869213      -0.00194291      -0.00137840       0.00001409
Cl       4.94281570       1.38545504       5.11617501      -0.00097137       0.00137396       0.00168857
Cl       2.95382480       4.19831344       8.56120792       0.00097740      -0.00137661      -0.00168751
Cl       2.95382384       4.19831240       5.11617507       0.00096410      -0.00137820       0.00169064
Cl       4.94281654       1.38545623       8.56120822      -0.00096483       0.00138340      -0.00167827
