9
Lattice="6.665743858996133 6.063358325016099e-08 3.8484689726930874 2.2219146776616667 6.284523511723406 3.8484689712547726 2.7115228356554643e-08 1.7411764725795975e-08 7.696937898421228" Properties=species:S:1:pos:R:3:forces:R:3 energy=-35.38896179199219 free_energy=-35.38896179199219 stress="0.0002694146241992712 1.2829814544090823e-08 -1.1687041556740496e-08 1.2829814544090823e-08 0.0002693939895834774 1.0974788189344054e-08 -1.1687041556740496e-08 1.0974788189344054e-08 0.00026939058443531394" pbc="T T T"
Y        2.22191401       1.57113108       3.84846902      -0.00000183       0.00000082       0.00000053
Y        6.66574398       4.71339236      11.54540757      -0.00000028      -0.00000248       0.00000146
Ru      -0.00000002      -0.00000000      -0.00000007       0.00000026      -0.00000125      -0.00000134
I        2.20558255       1.55958254       7.69693780      -0.00260720      -0.00184367      -0.00000016
I        6.68207601       4.72494118       7.69693760       0.00260844       0.00184350      -0.00000026
I        5.56295291       1.55958262       5.75855928       0.00130383      -0.00184219      -0.00225642
I        3.32470581       4.72494126       9.63531632      -0.00130383       0.00184398       0.00225806
I        3.32470612       4.72494110       5.75855936      -0.00130252       0.00184221      -0.00225732
I        5.56295290       1.55958220       9.63531648       0.00130315      -0.00184097       0.00225540
