9
Lattice="6.665552461466944 2.3028160696331675e-08 3.8483585257366792 2.2218508229967537 6.284343174045925 3.8483585589979343 -3.6157528651588545e-08 1.516931734696024e-08 7.6967171140999735" Properties=species:S:1:pos:R:3:forces:R:3 energy=-35.38896942138672 free_energy=-35.38896942138672 stress="0.00024546298664063215 -2.5703146278033273e-09 -1.237232649664577e-09 -2.5703146278033273e-09 0.00024546796339564025 4.4030894486013494e-09 -1.237232649664577e-09 4.4030894486013494e-09 0.0002454553614370525" pbc="T T T"
Y        2.22185083       1.57108575       3.84835843       0.00000170       0.00000059      -0.00000021
Y        6.66555232       4.71325732      11.54507609      -0.00000089      -0.00000039       0.00000269
Ru      -0.00000013       0.00000002      -0.00000022       0.00000215       0.00000084      -0.00000211
I        2.20554033       1.55955254       7.69671699      -0.00256462      -0.00181487       0.00000038
I        6.68186332       4.72479092       7.69671685       0.00256085       0.00181112      -0.00000080
I        5.56278228       1.55955260       5.75841243       0.00128263      -0.00181183      -0.00222005
I        3.32462067       4.72479075       9.63502201      -0.00128148       0.00181259       0.00222085
I        3.32462101       4.72479070       5.75841242      -0.00128081       0.00181368      -0.00222015
I        5.56278237       1.55955224       9.63502182       0.00128045      -0.00181180       0.00221946
