9
Lattice="4.625773764559555 -7.092003912047074e-08 2.670691673583768 1.5419245244974369 4.361221302315097 2.6706916680845953 -5.0920891666534334e-08 -4.274160279319549e-08 5.341383435365104" Properties=species:S:1:pos:R:3:forces:R:3 energy=-69.71730041503906 free_energy=-69.71730041503906 stress="-0.0001701588334981352 2.725426284655441e-08 2.40856721234195e-08 2.725426284655441e-08 -0.0001701355358818546 5.632088218021636e-08 2.40856721234195e-08 5.632088218021636e-08 -0.00017019952065311372" pbc="T T T"
Y        1.54192456       1.09030561       2.67069189      -0.00000057       0.00000020       0.00000312
Y        4.62577317       3.27091555       8.01207549      -0.00000196       0.00000020       0.00000155
Ru       0.00000005       0.00000001       0.00000014      -0.00000120      -0.00000459      -0.00000599
O        1.55350536       1.09849395       5.34138349      -0.00481153      -0.00340594       0.00000159
O        4.61419277       3.26272718       5.34138307       0.00481561       0.00340533      -0.00000303
O        3.84902113       1.09849411       4.01606644       0.00240566      -0.00340326      -0.00416988
O        2.31867732       3.26272720       6.66670011      -0.00240792       0.00340852       0.00417444
O        2.31867693       3.26272687       4.01606644      -0.00240688       0.00340311      -0.00417237
O        3.84902166       1.09849421       6.66670001       0.00240846      -0.00340360       0.00416981
