9
Lattice="5.79373293816376 -1.85370985059623e-08 3.3450132636138883 1.9312442827224816 5.46238398380718 3.3450132853022994 -1.1916119130457338e-08 1.8136839409764034e-08 6.690026547867093" Properties=species:S:1:pos:R:3:forces:R:3 energy=-50.7091064453125 free_energy=-50.7091064453125 stress="2.938925172202289e-05 -6.8049774704093124e-09 -2.2933171806016617e-08 -6.8049774704093124e-09 2.9441451260936446e-05 1.123099746536127e-08 -2.2933171806016617e-08 1.123099746536127e-08 2.9431625080178492e-05" pbc="T T T"
Y        1.93124417       1.36559542       3.34501326      -0.00000033      -0.00000236      -0.00000004
Y        5.79373288       4.09678830      10.03503950      -0.00000036       0.00000178      -0.00000104
Ru       0.00000005       0.00000009      -0.00000009      -0.00000012       0.00000078      -0.00000051
Se       1.97712673       1.39803981       6.69002656      -0.00071913      -0.00050983      -0.00000039
Se       5.74785037       4.06434434       6.69002658       0.00072187       0.00050893       0.00000062
Se       4.80516953       1.39803954       5.05725555       0.00035997      -0.00050966      -0.00062558
Se       2.91980784       4.06434413       8.32279764      -0.00036134       0.00051187       0.00062689
Se       2.91980772       4.06434436       5.05725552      -0.00036071       0.00050841      -0.00062561
Se       4.80516955       1.39803994       8.32279783       0.00036012      -0.00051005       0.00062546
