9
Lattice="5.476619400187223 -6.464492523893655e-08 3.1619275816150307 1.8255397276038878 5.163406200608269 3.16192760155216 -6.389179744592356e-08 -2.076039072226682e-08 6.323855273893874" Properties=species:S:1:pos:R:3:forces:R:3 energy=-54.59278106689453 free_energy=-54.59278106689453 stress="-2.061619670712389e-05 -1.841675612013205e-08 8.116498584342935e-09 -1.841675612013205e-08 -2.0603200027835555e-05 -2.1789345883149736e-09 8.116498584342935e-09 -2.1789345883149736e-09 -2.0590196072589606e-05" pbc="T T T"
Y        1.82553967       1.29085156       3.16192759      -0.00000036       0.00000005       0.00000067
Y        5.47661899       3.87255428       9.48578253      -0.00000039       0.00000009       0.00000030
Ru       0.00000013      -0.00000015      -0.00000027       0.00000044       0.00000099       0.00000128
S        1.87050763       1.32264862       6.32385516      -0.00014347      -0.00010115      -0.00000097
S        5.43165160       3.84075762       6.32385512       0.00014079       0.00009948       0.00000025
S        4.54136571       1.32264879       4.78183502       0.00007391      -0.00010243      -0.00012541
S        2.76079365       3.84075737       7.86587574      -0.00006974       0.00010043       0.00012326
S        2.76079358       3.84075765       4.78183511      -0.00007215       0.00010279      -0.00012529
S        4.54136532       1.32264872       7.86587585       0.00007135      -0.00010037       0.00012547
