9
Lattice="4.678616144182103 1.71783056368515e-07 2.701200410304847 1.5595388528214358 4.411042207445574 2.7012004516394956 1.7516695125522037e-08 6.301055910421915e-08 5.402400790269892" Properties=species:S:1:pos:R:3:forces:R:3 energy=-54.75462341308594 free_energy=-54.75462341308594 stress="-0.0002755786117631942 -3.146598714920401e-08 2.1565458308003826e-09 -3.146598714920401e-08 -0.00027562520699575543 4.445110235451466e-08 2.1565458308003826e-09 4.445110235451466e-08 -0.00027570774545893073" pbc="T T T"
Y        1.55953750       1.10276072       2.70120199      -0.00001400       0.00000288       0.00001779
Y        4.67861565       3.30828276       8.10360167      -0.00000558       0.00000984       0.00000390
Ru       0.00000008       0.00000001       0.00000034       0.00000884      -0.00000253      -0.00001520
F        1.73082918       1.22388072       5.40240006      -0.00685441      -0.00485379      -0.00000895
F        4.50732656       3.18716091       5.40240065       0.00685871       0.00484106      -0.00000121
F        3.81320163       1.22388065       4.20014211       0.00342548      -0.00484869      -0.00593272
F        2.42495368       3.18716153       6.60465879      -0.00343069       0.00485906       0.00594142
F        2.42495341       3.18716143       4.20014187      -0.00342453       0.00484511      -0.00593764
F        3.81320252       1.22388105       6.60465897       0.00343651      -0.00485241       0.00593245
