9
Lattice="4.679683028904799 2.0338208214339236e-08 2.701816422558667 1.5598944081965398 4.41204765272736 2.7018163427921222 6.383970504824248e-08 -5.2552181373677116e-08 5.403632734543745" Properties=species:S:1:pos:R:3:forces:R:3 energy=-54.75465393066406 free_energy=-54.75465393066406 stress="-8.62927918205969e-05 3.102043422131828e-08 -8.536443374396185e-08 3.102043422131828e-08 -8.600735600339249e-05 -5.945532777218432e-08 -8.536443374396185e-08 -5.945532777218432e-08 -8.622412860859185e-05" pbc="T T T"
Y        1.55989456       1.10301160       2.70181557       0.00000360      -0.00000217      -0.00000828
Y        4.67968328       3.30903744       8.10544942       0.00000150       0.00001840       0.00000472
Ru       0.00000022      -0.00000018       0.00000008      -0.00000310      -0.00000380       0.00000599
F        1.73078677       1.22385041       5.40363314       0.00000930      -0.00000277       0.00000487
F        4.50879096       3.18819693       5.40363271      -0.00000352      -0.00000083      -0.00000261
F        3.81428996       1.22385005       4.20072186      -0.00000086      -0.00000346       0.00000831
F        2.42528735       3.18819716       6.60654359       0.00000098      -0.00000364      -0.00000915
F        2.42528768       3.18819686       4.20072139       0.00000522      -0.00000101       0.00000268
F        3.81428919       1.22385002       6.60654432      -0.00001258      -0.00000104      -0.00000685
