9
Lattice="6.159188986220617 1.2743613792472101e-08 3.55600942758166 2.0530630132649224 5.806939100188852 3.556009417460853 -3.344867858230239e-08 -3.6047229527429035e-08 7.11201891309815" Properties=species:S:1:pos:R:3:forces:R:3 energy=-39.582542419433594 free_energy=-39.582542419433594 stress="0.00010334220132790506 -1.013858330622952e-08 2.4341055393506394e-08 -1.013858330622952e-08 0.0001033675143844448 -2.5056421382174676e-09 2.4341055393506394e-08 -2.5056421382174676e-09 0.00010336960986023769" pbc="T T T"
Y        2.05306306       1.45173550       3.55600869      -0.00000027       0.00000391      -0.00000338
Y        6.15918881       4.35520354      10.66802978      -0.00000006      -0.00000279       0.00000825
Ru      -0.00000005      -0.00000017      -0.00000061      -0.00000021       0.00000008       0.00000288
Br       2.01991568       1.42829624       7.11201896       0.00113342       0.00080255       0.00000048
Br       6.19233644       4.37864275       7.11201826      -0.00113231      -0.00080215      -0.00000206
Br       5.14923126       1.42829671       5.30530783      -0.00056477       0.00080084       0.00097820
Br       3.06302034       4.37864295       8.91873024       0.00056639      -0.00080363      -0.00098202
Br       3.06302125       4.37864288       5.30530779       0.00056581      -0.00080021       0.00097839
Br       5.14923107       1.42829588       8.91873009      -0.00056802       0.00080141      -0.00098080
