9
Lattice="5.92240750769738 8.064419267831474e-09 3.4193037261928048 1.974135867140341 5.583699034529723 3.419303685250597 1.5517525235348037e-07 5.95816660713649e-08 6.838607183614216" Properties=species:S:1:pos:R:3:forces:R:3 energy=-42.301910400390625 free_energy=-42.301910400390625 stress="0.00010230779298581183 -1.7506446070569837e-08 -1.452715725491771e-08 -1.7506446070569837e-08 0.0001022690485115163 6.897537208061522e-09 -1.452715725491771e-08 6.897537208061522e-09 0.00010236236994387582" pbc="T T T"
Y        1.97413471       1.39592132       3.41931076      -0.00000546      -0.00001863       0.00004529
Y        5.92241010       4.18777504      10.25790464       0.00001826       0.00000493      -0.00003969
Ru      -0.00000020       0.00000010      -0.00000001      -0.00000095       0.00000573      -0.00000233
Cl       1.95933328       1.38545793       6.83860571       0.00178444       0.00126746      -0.00001986
Cl       5.93720987       4.19824208       6.83860952      -0.00179498      -0.00125930       0.00001567
Cl       4.94274028       1.38545708       5.11613597      -0.00090596       0.00125730       0.00155239
Cl       2.95380336       4.19824299       8.56107793       0.00090278      -0.00125432      -0.00155988
Cl       2.95380077       4.19824237       5.11613651       0.00088693      -0.00126944       0.00156292
Cl       4.94274190       1.38545751       8.56107737      -0.00088503       0.00126641      -0.00155443
