9
Lattice="6.466364766904628 2.8074247645005134e-08 3.733357143406152 2.1554549391940276 6.096547405312074 3.7333571599925506 -3.658064811181119e-08 -5.552302829850969e-09 7.46671435017185" Properties=species:S:1:pos:R:3:forces:R:3 energy=-33.73832321166992 free_energy=-33.73832321166992 stress="0.00015091206296347082 3.691886796275412e-09 2.31643304537954e-09 3.691886796275412e-09 0.00015095266280695796 -1.5055807267572163e-08 2.31643304537954e-09 -1.5055807267572163e-08 0.00015096049173735082" pbc="T T T"
Y        2.15545401       1.52413611       3.73335780      -0.00000430      -0.00000330       0.00000263
Y        6.46636524       4.57241001      11.20007221       0.00000266      -0.00000340       0.00000366
Sb      -0.00000023       0.00000031       0.00000064       0.00000114      -0.00000261      -0.00000494
Br       2.26209361       1.59954211       7.46671396      -0.00227439      -0.00160608      -0.00000302
Br       6.35972581       4.49700561       7.46671445       0.00227413       0.00160703      -0.00000141
Br       5.33531835       1.59954236       5.69238755       0.00113906      -0.00160521      -0.00196782
Br       3.28650188       4.49700539       9.24103972      -0.00114137       0.00161400       0.00197026
Br       3.28650205       4.49700555       5.69238800      -0.00113738       0.00160924      -0.00196940
Br       5.33531781       1.59954239       9.24104031       0.00114055      -0.00160965       0.00196964
