9
Lattice="4.14351535492281 8.598135212403184e-06 2.3922593346549417 1.381178183418164 3.906548153653696 2.392262292912626 1.9091597118959694e-06 4.9730958186738e-06 4.784515362550396" Properties=species:S:1:pos:R:3:forces:R:3 energy=-39.961944580078125 free_energy=-39.961944580078125 stress="-0.0005684472853317857 4.269474516149785e-07 -5.043443138674775e-07 4.269474516149785e-07 -0.0005709672695957124 1.6471183243993437e-06 -5.043443138674775e-07 1.6471183243993437e-06 -0.0005711971898563206" pbc="T T T"
Y        1.38116623       0.97663713       2.39226625       0.00012454      -0.00003191      -0.00014930
Y        4.14352410       2.92990972       7.17678627       0.00007788      -0.00000312      -0.00008480
Sb       0.00001316      -0.00000653      -0.00001231      -0.00006524      -0.00002706       0.00008653
F        1.56567244       1.10712006       4.78451338       0.00395977       0.00281405      -0.00002574
F        3.95902575       2.79945917       4.78453672      -0.00405884      -0.00286114       0.00001429
F        3.36068261       1.10710093       3.74816095      -0.00205827       0.00290465       0.00353563
F        2.16401834       2.79945543       5.82084626       0.00198519      -0.00276315      -0.00344014
F        2.16400933       2.79946003       3.74817926       0.00208205      -0.00289488       0.00356472
F        3.36066995       1.10711224       5.82087117      -0.00204688       0.00286233      -0.00350153
