9
Lattice="4.653485875953899 1.1263691647513623e-07 2.6866912983121023 1.5511620109014856 4.38734878905521 2.686691391747481 -5.8285454622061355e-09 1.1031309832317675e-07 5.373382606719582" Properties=species:S:1:pos:R:3:forces:R:3 energy=-65.8155517578125 free_energy=-65.8155517578125 stress="-0.00012724101543426514 6.778281402830544e-08 9.413551538273168e-08 6.778281402830544e-08 -0.00012723819236271083 2.2492166351639753e-08 9.413551538273168e-08 2.2492166351639753e-08 -0.00012740123202092946" pbc="T T T"
Y        1.55116140       1.09683703       2.68669141       0.00000054       0.00000168      -0.00000070
Y        4.65348602       3.29051200       8.06007384      -0.00000154      -0.00000016      -0.00000016
Sb       0.00000018       0.00000014      -0.00000026      -0.00000541      -0.00000026       0.00002063
O        1.59098726       1.12499780       5.37338268      -0.00169474      -0.00120169      -0.00000102
O        4.61366065       3.26235129       5.37338259       0.00169700       0.00120169      -0.00000058
O        3.85799275       1.12499798       4.06452623       0.00085089      -0.00120193      -0.00146759
O        2.34665545       3.26235113       6.68223941      -0.00084370       0.00119424       0.00145704
O        2.34665518       3.26235111       4.06452612      -0.00084934       0.00120139      -0.00146562
O        3.85799262       1.12499780       6.68223910       0.00084624      -0.00119579       0.00145769
