9
Lattice="6.24818039430209 1.8665539349517352e-07 3.6073884655686155 2.082726956544502 5.8908415165356205 3.6073884959428137 1.8261614601273114e-07 1.66329820846505e-07 7.214776614836797" Properties=species:S:1:pos:R:3:forces:R:3 energy=-36.843013763427734 free_energy=-36.843013763427734 stress="-3.803014988079667e-05 2.7807522950951125e-10 -2.853546376968552e-08 2.7807522950951125e-10 -3.811769784078933e-05 2.733734305593316e-08 -2.853546376968552e-08 2.733734305593316e-08 -3.809631016338244e-05" pbc="T T T"
Y        2.08272638       1.47271229       3.60738796      -0.00000203       0.00000777      -0.00000296
Y        6.24818389       4.41812853      10.82216464       0.00001336      -0.00001424      -0.00000248
Sb      -0.00000067       0.00000138       0.00000263      -0.00000013      -0.00000833      -0.00001478
Cl       2.19068181       1.54904786       7.21477701      -0.00195396      -0.00136977       0.00000135
Cl       6.14022371       4.34179395       7.21477740       0.00195521       0.00137916       0.00000245
Cl       5.15283974       1.54904729       5.50457521       0.00097507      -0.00137365      -0.00168622
Cl       3.17806824       4.34179314       8.92497651      -0.00098556       0.00138053       0.00169402
Cl       3.17806804       4.34179520       5.50457480      -0.00097689       0.00137198      -0.00168198
Cl       5.15283897       1.54904799       8.92497829       0.00097501      -0.00137356       0.00169033
