9
Lattice="6.428467606282737 1.1276198432523714e-08 3.7114775473198782 2.1428225435783532 6.0608175553292 3.7114775516162752 7.383861476163947e-09 1.0483208253974341e-08 7.4229550818505095" Properties=species:S:1:pos:R:3:forces:R:3 energy=-38.92302703857422 free_energy=-38.92302703857422 stress="-7.078232010826468e-05 1.0463375943459141e-08 6.563995569308645e-09 1.0463375943459141e-08 -7.079297938616946e-05 -8.275011786906816e-10 6.563995569308645e-09 -8.275011786906816e-10 -7.080808427417651e-05" pbc="T T T"
Y        2.14282228       1.51520431       3.71147731      -0.00000019      -0.00000007      -0.00000095
Y        6.42846755       4.54561312      11.13443240       0.00000038      -0.00000058       0.00000008
Sb       0.00000013      -0.00000006       0.00000027       0.00000027      -0.00000042      -0.00000290
Te       2.29209554       1.62075639       7.42295514       0.00012192       0.00008610      -0.00000062
Te       6.27919478       4.44006132       7.42295512      -0.00012149      -0.00008604      -0.00000071
Te       5.28241993       1.62075623       5.69649044      -0.00006124       0.00008778       0.00010608
Te       3.28887041       4.44006119       9.14941984       0.00005970      -0.00008579      -0.00010320
Te       3.28887017       4.44006145       5.69649055       0.00006141      -0.00008605       0.00010696
Te       5.28241984       1.62075637       9.14941967      -0.00006070       0.00008500      -0.00010464
