9
Lattice="5.975210149182834 -4.919823814527646e-08 3.4497891782193326 1.991736680155027 5.6334820907575045 3.4497891606472035 -2.4281122648525995e-08 -3.8690744281259424e-08 6.899578398494808" Properties=species:S:1:pos:R:3:forces:R:3 energy=-43.45466613769531 free_energy=-43.45466613769531 stress="-4.3634605390252545e-05 2.111628560896861e-08 1.2907446667043132e-08 2.111628560896861e-08 -4.357724901637994e-05 3.89267462708176e-09 1.2907446667043132e-08 3.89267462708176e-09 -4.362320032669231e-05" pbc="T T T"
Y        1.99173615       1.40837104       3.44978979      -0.00000311       0.00000237       0.00000413
Y        5.97521014       4.22511109      10.34936701       0.00000003      -0.00000447      -0.00000280
Sb       0.00000008       0.00000013       0.00000030      -0.00000158      -0.00000007      -0.00000132
Se       2.09506992       1.48143836       6.89957831       0.00045237       0.00032163      -0.00000168
Se       5.87187690       4.15204344       6.89957863      -0.00045106      -0.00032193       0.00000390
Se       4.92767510       1.48143859       5.26417291      -0.00022434       0.00032399       0.00039173
Se       3.03927185       4.15204366       8.53498370       0.00022757      -0.00031933      -0.00039289
Se       3.03927162       4.15204350       5.26417308       0.00022489      -0.00032328       0.00039113
Se       4.92767543       1.48143824       8.53498321      -0.00022449       0.00032105      -0.00039219
