9
Lattice="6.607357715026282 -0.10247283369182077 4.0263770372749175 2.934818546591199 4.861233232523208 2.467550240980661 0.7321741885122726 -1.5056623047142292 6.739589857685102" Properties=species:S:1:pos:R:3:forces:R:3 energy=-57.88694763183594 free_energy=-57.88694763183594 stress="-0.00010769451182568446 -0.00010902316716965288 0.00011550415365491062 -0.00010902316716965288 -0.00010582276445347816 9.900985787680838e-06 0.00011550415365491062 9.900985787680838e-06 0.00025506370002403855" pbc="T T T"
Y        4.02297364       1.74514299       2.92997445       0.00249271       0.00092414       0.00261672
Y        8.62590383       1.79293960      10.84761766       0.00028564      -0.00259870      -0.00331812
Sb       0.95144369       0.27514398       2.00735564       0.00156310       0.00026438      -0.00265223
F        1.98601756      -0.37956590       6.88049740      -0.00081690       0.00038062       0.00240576
F        7.01088404       4.42296150       5.80782882       0.00063275       0.00190845       0.00058621
F        5.88377505       2.77878805       3.35608695      -0.00187770      -0.00055195       0.00043306
F        3.70302497       1.39724667       8.16636554       0.00035854      -0.00347510      -0.00095974
F        3.11607211       1.83802831       4.92156167      -0.00111620       0.00386463       0.00170377
F        5.79724865      -0.85831653       8.01674390      -0.00152197      -0.00071649      -0.00081570
