9
Lattice="6.956287595959919 -5.144718481646924e-08 4.016214513306506 2.31876251514061 6.558450819730179 4.016214458471822 8.758163042284175e-09 -6.096556689426347e-08 8.03242901144347" Properties=species:S:1:pos:R:3:forces:R:3 energy=-29.879199981689453 free_energy=-29.879199981689453 stress="0.00019625507411547005 -1.3896467310203775e-10 5.9278488784286765e-09 -1.3896467310203775e-10 0.0001962584792636335 -4.3707251151658966e-09 5.9278488784286765e-09 -4.3707251151658966e-09 0.0001962601818377152" pbc="T T T"
Y        2.31876260       1.63961298       4.01621494      -0.00000041       0.00000077       0.00000039
Y        6.95628748       4.91883755      12.04864341      -0.00000011      -0.00000340      -0.00000140
Sb      -0.00000007       0.00000020       0.00000016      -0.00000008      -0.00000034       0.00000074
I        2.43364540       1.72084739       8.03242900      -0.00184762      -0.00130506       0.00000018
I        6.84140450       4.83760335       8.03242892       0.00184762       0.00130658      -0.00000004
I        5.73946477       1.72084710       6.12381305       0.00092319      -0.00130579      -0.00159895
I        3.53558558       4.83760345       9.94104454      -0.00092265       0.00130557       0.00159934
I        3.53558552       4.83760339       6.12381329      -0.00092350       0.00130622      -0.00159955
I        5.73946472       1.72084747       9.94104466       0.00092353      -0.00130440       0.00159925
