9
Lattice="6.095138514916479 -1.8012534165408954e-07 3.5190293232101806 2.031712717992785 5.746551053690591 3.519029237454372 -2.1310405383095546e-08 -1.200976574476758e-07 7.038058683331125" Properties=species:S:1:pos:R:3:forces:R:3 energy=-34.806034088134766 free_energy=-34.806034088134766 stress="0.00025628870935179293 4.535401387784077e-08 -1.6977583783273076e-08 4.535401387784077e-08 0.000256373081356287 5.14599278744754e-08 -1.6977583783273076e-08 5.14599278744754e-08 0.0002563430170994252" pbc="T T T"
Y        2.03171522       1.43663761       3.51902885       0.00001653      -0.00000192      -0.00000269
Y        6.09513873       4.30991535      10.55708567      -0.00000182       0.00001661      -0.00001213
S       -0.00000034      -0.00000032       0.00000033      -0.00000183       0.00000012      -0.00000423
Cl       2.12747525       1.50435087       7.03805955      -0.00696158      -0.00492918       0.00000281
Cl       5.99937500       4.24219941       7.03805934       0.00696301       0.00492948       0.00000448
Cl       5.03139989       1.50435105       5.36147698       0.00347430      -0.00493157      -0.00603002
Cl       3.09545129       4.24219893       8.71464109      -0.00348112       0.00492477       0.00603586
Cl       3.09545063       4.24219803       5.36147691      -0.00348574       0.00492024      -0.00602901
Cl       5.03139959       1.50435215       8.71464007       0.00347799      -0.00492883       0.00603527
