9
Lattice="6.840660788125174 -4.148126606909261e-08 3.949457424116367 2.2802202407431373 6.449436905080885 3.9494573944225837 5.092561865070204e-08 -3.573901769669037e-10 7.8989147600269884" Properties=species:S:1:pos:R:3:forces:R:3 energy=-28.388263702392578 free_energy=-28.388263702392578 stress="0.00011441681999713182 -2.943184862491677e-10 6.164671439989888e-09 -2.943184862491677e-10 0.0001144103953265585 -8.087217562291471e-10 6.164671439989888e-09 -8.087217562291471e-10 0.00011441240349086002" pbc="T T T"
Y        2.28022035       1.61235932       3.94945764      -0.00000071       0.00000075       0.00000101
Y        6.84066069       4.83707768      11.84837234      -0.00000000      -0.00000032       0.00000064
Se       0.00000004       0.00000008       0.00000001      -0.00000058      -0.00000011      -0.00000051
I        2.42627292       1.71563402       7.89891477      -0.00074166      -0.00052439      -0.00000047
I        6.69460801       4.73380274       7.89891464       0.00074297       0.00052477      -0.00000051
I        5.62752435       1.71563417       6.05067160       0.00037125      -0.00052527      -0.00064275
I        3.49335690       4.73380266       9.74715808      -0.00037108       0.00052467       0.00064293
I        3.49335677       4.73380266       6.05067138      -0.00037137       0.00052436      -0.00064328
I        5.62752430       1.71563414       9.74715782       0.00037125      -0.00052457       0.00064284
