9
Lattice="4.545760944348143 6.143669559109064e-08 2.6244963241328176 1.5152536889698798 4.285784594720658 2.624496353697615 2.9634135830737912e-08 5.716384141106474e-08 5.248992596937803" Properties=species:S:1:pos:R:3:forces:R:3 energy=-64.98248291015625 free_energy=-64.98248291015625 stress="-5.79685511183925e-05 -1.9706057230450824e-08 6.25721909841559e-08 -1.9706057230450824e-08 -5.794628305011429e-05 3.2925594695143445e-08 6.25721909841559e-08 3.2925594695143445e-08 -5.8081761380890384e-05" pbc="T T T"
Y        1.51525370       1.07144631       2.62449665       0.00000075       0.00000066      -0.00000095
Y        4.54576081       3.21433845       7.87348912      -0.00000102       0.00000004       0.00000197
Se       0.00000011      -0.00000001       0.00000003       0.00000039      -0.00000290       0.00000345
O        1.47428062       1.04247364       5.24899262      -0.00041279      -0.00029097      -0.00000018
O        4.58673414       3.24331103       5.24899242       0.00041135       0.00029065      -0.00000024
O        3.80862069       1.04247391       3.90126060       0.00020768      -0.00029270      -0.00035571
O        2.25239385       3.24331084       6.59672446      -0.00020494       0.00029185       0.00035505
O        2.25239390       3.24331078       3.90126089      -0.00020777       0.00029315      -0.00035687
O        3.80862078       1.04247395       6.59672432       0.00020641      -0.00028977       0.00035350
