9
Lattice="6.130548832544001 -4.6246397099002594e-08 3.5394740103793927 2.0435163675516708 5.779936602401023 3.539473778910579 3.3311676627493967e-07 -4.7941012099194814e-08 7.078947443783581" Properties=species:S:1:pos:R:3:forces:R:3 energy=-34.78164291381836 free_energy=-34.78164291381836 stress="-3.993590871687047e-05 -7.2972996534304e-09 -2.120051689757929e-08 -7.2972996534304e-09 -3.9984213799471036e-05 -2.213974603648694e-08 -2.120051689757929e-08 -2.213974603648694e-08 -3.992483834736049e-05" pbc="T T T"
Y        2.04351624       1.44498610       3.53947261       0.00000038       0.00001426      -0.00000888
Y        6.13054979       4.33495210      10.61842296       0.00000411      -0.00000449       0.00000795
Se       0.00000024      -0.00000024       0.00000017      -0.00000193      -0.00000227       0.00000081
Cl       2.08988429       1.47777051       7.07894747       0.00117910       0.00083178       0.00000154
Cl       6.08418171       4.30216592       7.07894750      -0.00117743      -0.00083494      -0.00000157
Cl       5.08560831       1.47777120       5.34936544      -0.00058401       0.00083786       0.00102007
Cl       3.08845658       4.30216457       8.80852970       0.00058234      -0.00084060      -0.00101775
Cl       3.08845793       4.30216544       5.34936577       0.00058758      -0.00083524       0.00101805
Cl       5.08560729       1.47777021       8.80852941      -0.00059044       0.00083363      -0.00102001
