9
Lattice="5.495926366273998 -6.347408320297302e-08 3.173074698387366 1.831975430834248 5.181609045744626 3.173074637326444 9.170682205342399e-08 -9.937512227884183e-09 6.346149237933935" Properties=species:S:1:pos:R:3:forces:R:3 energy=-46.38141632080078 free_energy=-46.38141632080078 stress="-0.0002314095909241587 -2.4201492365705235e-08 7.060419804361118e-09 -2.4201492365705235e-08 -0.0002313504519406706 -1.614479749889597e-08 7.060419804361118e-09 -1.614479749889597e-08 -0.00023135200899560004" pbc="T T T"
Y        1.83197709       1.29540434       3.17307488       0.00000846       0.00001150       0.00000231
Y        5.49592504       3.88620518       9.51922544      -0.00000820      -0.00000836       0.00000534
Se      -0.00000002       0.00000029       0.00000017       0.00000094      -0.00000328      -0.00000455
S        1.88601558       1.33361449       6.34614903      -0.00275499      -0.00194559      -0.00000157
S        5.44188658       3.84799431       6.34614885       0.00275564       0.00194463      -0.00000165
S        4.55291851       1.33361497       4.80641134       0.00137556      -0.00194201      -0.00238863
S        2.77498336       3.84799382       7.88588670      -0.00137840       0.00194535       0.00239077
S        2.77498354       3.84799377       4.80641105      -0.00137529       0.00194374      -0.00239277
S        4.55291796       1.33361471       7.88588684       0.00137611      -0.00194606       0.00239059
