9
Lattice="6.4156137670158655 3.1107214183664015e-07 3.704056296770723 2.13853819763994 6.048698827276252 3.7040563279135434 -1.3000409011468656e-08 2.894930543751894e-08 7.408112616058853" Properties=species:S:1:pos:R:3:forces:R:3 energy=-31.600812911987305 free_energy=-31.600812911987305 stress="-2.1783716874779202e-05 -2.221204908892105e-08 -4.420023513862503e-10 -2.221204908892105e-08 -2.179900729970541e-05 -2.077079130913262e-08 -4.420023513862503e-10 -2.077079130913262e-08 -2.1790403479826637e-05" pbc="T T T"
Y        2.13853633       1.51217500       3.70405611      -0.00000998       0.00000182      -0.00000243
Y        6.41561427       4.53652462      11.11217023       0.00000117       0.00000042       0.00000770
Se       0.00000005      -0.00000010      -0.00000002       0.00000266      -0.00000091      -0.00000153
Br       2.19773403       1.55403259       7.40811287       0.00426638       0.00301713       0.00000034
Br       6.35641824       4.49466622       7.40811209      -0.00426477      -0.00301877      -0.00000277
Br       5.31674794       1.55403255       5.60734912      -0.00212941       0.00301725       0.00369692
Br       3.23740427       4.49466681       9.20887583       0.00213018      -0.00301600      -0.00369567
Br       3.23740496       4.49466685       5.60734907       0.00213382      -0.00301558       0.00369442
Br       5.31674773       1.55403216       9.20887562      -0.00213027       0.00301465      -0.00369674
