9
Lattice="4.785380172926054 -7.071950456974189e-07 2.7628394555671667 1.5951260754673628 4.511698876312116 2.762839424548619 9.674614625672897e-07 6.4610866486053e-07 5.525677235442065" Properties=species:S:1:pos:R:3:forces:R:3 energy=-45.32773971557617 free_energy=-45.32773971557617 stress="-9.531503019388765e-05 2.036307705566287e-06 -1.5531461485807085e-06 2.036307705566287e-06 -9.487353236181661e-05 -9.987478506445768e-07 -1.5531461485807085e-06 -9.987478506445768e-07 -9.017342381412163e-05" pbc="T T T"
Y        1.59514448       1.12793370       2.76283337       0.00027510       0.00013480      -0.00008622
Y        4.78537222       3.38377201       8.28852800      -0.00013941      -0.00003958       0.00017118
Se      -0.00000077      -0.00000084      -0.00000046      -0.00000564      -0.00000509       0.00000010
F        1.81904344       1.28625500       5.52568153       0.00043076       0.00026810       0.00005847
F        4.56146393       3.22544283       5.52566988      -0.00043774      -0.00028092      -0.00010974
F        3.87585411       1.28626287       4.33816717      -0.00027633       0.00038004       0.00025141
F        2.50464893       3.22543426       6.71318805       0.00021276      -0.00041229      -0.00027633
F        2.50465553       3.22543722       4.33816819       0.00030956      -0.00035560       0.00025755
F        3.87584723       1.28625877       6.71318842      -0.00036934       0.00031072      -0.00026679
