9
Lattice="6.736156910234553 -1.04136715230329e-08 3.889121917794259 2.2453856135999275 6.350909628548031 3.889121940877019 -5.2017889132076674e-08 -8.511693601775949e-09 7.77824392568614" Properties=species:S:1:pos:R:3:forces:R:3 energy=-29.095829010009766 free_energy=-29.095829010009766 stress="-0.00010112443123944104 9.896794495034555e-09 2.0768962105677247e-09 9.896794495034555e-09 -0.00010112550808116794 2.223651263122406e-09 2.0768962105677247e-09 2.223651263122406e-09 -0.00010111745359608904" pbc="T T T"
Y        2.24538593       1.58772721       3.88912218       0.00000154      -0.00000150       0.00000232
Y        6.73615668       4.76318232      11.66736583      -0.00000208       0.00000018       0.00000003
S       -0.00000016      -0.00000005       0.00000033       0.00000013      -0.00000028      -0.00000130
I        2.37218050       1.67738481       7.77824372      -0.00532842      -0.00376725      -0.00000130
I        6.60936206       4.67352486       7.77824391       0.00532788       0.00376719      -0.00000015
I        5.55006657       1.67738478       5.94349044       0.00266306      -0.00376637      -0.00461477
I        3.43147611       4.67352466       9.61299720      -0.00266378       0.00376840       0.00461403
I        3.43147582       4.67352491       5.94349024      -0.00266226       0.00376694      -0.00461385
I        5.55006635       1.67738495       9.61299732       0.00266393      -0.00376740       0.00461504
