9
Lattice="6.777944872578252 -7.153666188365249e-09 3.913248430281722 2.259314939853474 6.390307557739263 3.913248449209683 8.382511586439489e-08 8.245526738902246e-08 7.826496715374044" Properties=species:S:1:pos:R:3:forces:R:3 energy=-31.33647346496582 free_energy=-31.33647346496582 stress="4.827971861232072e-05 -7.66092611570457e-09 -5.982170758755956e-09 -7.66092611570457e-09 4.82771429233253e-05 2.8905124960232342e-09 -5.982170758755956e-09 2.8905124960232342e-09 4.827923112316057e-05" pbc="T T T"
Y        2.25931489       1.59757742       3.91324871      -0.00000080       0.00000169       0.00000259
Y        6.77794507       4.79273080      11.73974464       0.00000080      -0.00000001      -0.00000442
Si       0.00000003       0.00000019       0.00000024      -0.00000034       0.00000010      -0.00000167
I        2.29325916       1.62157893       7.82649661       0.00081584       0.00057709      -0.00000067
I        6.74400097       4.76872861       7.82649688      -0.00081712      -0.00057861       0.00000091
I        5.63131532       1.62157878       5.89926908      -0.00040881       0.00057840       0.00070825
I        3.40594472       4.76872837       9.75372457       0.00040877      -0.00057670      -0.00070578
I        3.40594410       4.76872826       5.89926916       0.00040834      -0.00057945       0.00070757
I        5.63131536       1.62157921       9.75372445      -0.00040680       0.00057739      -0.00070679
