9
Lattice="5.42871276546361 1.2355899295884553e-07 3.134268426746864 1.809570915141188 5.1182399194231 3.134268640088002 -9.837481459851546e-08 1.9172697504720064e-07 6.268537023883895" Properties=species:S:1:pos:R:3:forces:R:3 energy=-51.900360107421875 free_energy=-51.900360107421875 stress="-3.401686990400776e-05 -1.6258995927387332e-08 3.2249825920871444e-08 -1.6258995927387332e-08 -3.4042412153212354e-05 1.7154944131902994e-08 3.2249825920871444e-08 1.7154944131902994e-08 -3.398930493858643e-05" pbc="T T T"
Y        1.80957136       1.27955963       3.13426822      -0.00000084      -0.00000176      -0.00000196
Y        5.42871278       3.83868105       9.40280700       0.00000089       0.00000147       0.00000282
Si      -0.00000030      -0.00000008       0.00000014       0.00000332       0.00000054      -0.00000059
S        1.81649455       1.28445602       6.26853687       0.00145394       0.00102732      -0.00000033
S        5.42178860       3.83378436       6.26853641      -0.00145495      -0.00102729      -0.00000338
S        4.52046587       1.28445611       4.70739949      -0.00072598       0.00102723       0.00125831
S        2.71781848       3.83378391       7.82967456       0.00072548      -0.00102520      -0.00125557
S        2.71781799       3.83378407       4.70739915       0.00072533      -0.00102669       0.00125760
S        4.52046479       1.28445604       7.82967457      -0.00072664       0.00102457      -0.00125736
