9
Lattice="5.411150765007472 -3.439470403065038e-08 3.124129186366942 1.8037168571630744 5.101682003691162 3.124129241928545 -2.8813085567720878e-09 6.601135910485443e-08 6.248258377724438" Properties=species:S:1:pos:R:3:forces:R:3 energy=-37.84467697143555 free_energy=-37.84467697143555 stress="-0.00010166287393076345 6.18784739003786e-08 7.21430870598283e-09 6.18784739003786e-08 -0.00010171306348638609 -5.891279997172205e-08 7.21430870598283e-09 -5.891279997172205e-08 -0.00010171002941206098" pbc="T T T"
Y        1.80371765       1.27542154       3.12412859       0.00000149       0.00000081      -0.00000213
Y        5.41114979       3.82626222       9.37238770      -0.00000349       0.00000004      -0.00000081
Si       0.00000106       0.00000085       0.00000035      -0.00001364      -0.00002635      -0.00000775
Cl       1.86454691       1.31843331       6.24825882       0.00188369       0.00132799       0.00000082
Cl       5.35031954       3.78324747       6.24825844      -0.00185275      -0.00131142       0.00000017
Cl       4.47887791       1.31843289       4.73887365      -0.00094128       0.00132877       0.00163329
Cl       2.73599009       3.78324822       7.75764238       0.00093180      -0.00132120      -0.00161779
Cl       2.73599063       3.78324706       4.73887347       0.00093344      -0.00132459       0.00161505
Cl       4.47887686       1.31843443       7.75764368      -0.00093836       0.00132573      -0.00162125
