9
Lattice="4.442884225968805 5.70042676822568e-08 2.56510062911081 1.4809614422148276 4.188791330667593 2.565100664073252 4.9950222929833315e-08 7.814019430097677e-08 5.130201171705293" Properties=species:S:1:pos:R:3:forces:R:3 energy=-71.11292266845703 free_energy=-71.11292266845703 stress="-8.970041380962357e-05 -2.341105798109311e-08 -2.0325101601770257e-08 -2.341105798109311e-08 -8.968956535682082e-05 6.74525608701515e-08 -2.0325101601770257e-08 6.74525608701515e-08 -8.98059515748173e-05" pbc="T T T"
Y        1.48096134       1.04719785       2.56510102      -0.00000012      -0.00000131      -0.00000055
Y        4.44288430       3.14159350       7.69530169      -0.00000053       0.00000182       0.00000289
Si      -0.00000003       0.00000014       0.00000010      -0.00000076      -0.00000311      -0.00000292
O        1.44235227       1.01989705       5.13020110       0.00082958       0.00058728       0.00000112
O        4.48149338       3.16889449       5.13020129      -0.00082850      -0.00058728      -0.00000102
O        3.72170803       1.01989717       3.81421434      -0.00041145       0.00058609       0.00071609
O        2.20213775       3.16889443       6.44618795       0.00041211      -0.00058639      -0.00071454
O        2.20213769       3.16889432       3.81421454       0.00041217      -0.00058270       0.00071466
O        3.72170826       1.01989709       6.44618801      -0.00041360       0.00058615      -0.00071621
