9
Lattice="6.306902274649948 -4.751610022232359e-08 3.64129145571428 2.1023007239132263 5.946204479300259 3.641291437536075 4.8582384773593524e-08 1.2089274024719083e-08 7.282582827281389" Properties=species:S:1:pos:R:3:forces:R:3 energy=-35.25114059448242 free_energy=-35.25114059448242 stress="0.00016317212430294603 4.521799823464789e-09 -1.4179169838257621e-08 4.521799823464789e-09 0.00016317916742991656 -5.359773180835248e-10 -1.4179169838257621e-08 -5.359773180835248e-10 0.0001631320919841528" pbc="T T T"
Y        2.10230103       1.48655282       3.64129168      -0.00000121       0.00000693       0.00000026
Y        6.30690266       4.45965223      10.92387364       0.00000209      -0.00000373      -0.00000335
Si      -0.00000029      -0.00000005       0.00000010       0.00000086       0.00000165       0.00000027
Br       2.12274032       1.50100424       7.28258294       0.00546390       0.00386593      -0.00000076
Br       6.28646259       4.44519916       7.28258328      -0.00546277      -0.00386491       0.00000023
Br       5.24553194       1.50100424       5.47963888      -0.00273296       0.00386393       0.00473112
Br       3.16367139       4.44519974       9.08552733       0.00273019      -0.00386539      -0.00473106
Br       3.16367041       4.44520025       5.47963840       0.00273076      -0.00386679       0.00473267
Br       5.24553205       1.50100511       9.08552669      -0.00273085       0.00386229      -0.00472909
