9
Lattice="6.245177899793717 1.1818338163046665e-07 3.605654982529059 2.081726030485535 5.888010284383485 3.6056550648651395 -4.622423037539238e-08 6.815520935453326e-08 7.211310045120811" Properties=species:S:1:pos:R:3:forces:R:3 energy=-41.388160705566406 free_energy=-41.388160705566406 stress="0.00021047420159447938 2.129574738773954e-08 -1.5995734736762302e-09 2.129574738773954e-08 0.0002104615850839764 1.9071924040048316e-09 -1.5995734736762302e-09 1.9071924040048316e-09 0.00021044658205937594" pbc="T T T"
Y        2.08172585       1.47200288       3.60565473      -0.00000066       0.00000068      -0.00000074
Y        6.24517805       4.41600777      10.81696515       0.00000029      -0.00000031       0.00000011
Si       0.00000010      -0.00000004      -0.00000020      -0.00000074      -0.00000241       0.00000206
Te       2.10671873       1.48967543       7.21131021       0.00013047       0.00009212       0.00000051
Te       6.22018505       4.39833513       7.21131007      -0.00012879      -0.00009061      -0.00000012
Te       5.19181855       1.48967516       5.43012699      -0.00006480       0.00009177       0.00011398
Te       3.13508526       4.39833523       8.99249336       0.00006612      -0.00009308      -0.00011460
Te       3.13508545       4.39833518       5.43012689       0.00006473      -0.00009174       0.00011345
Te       5.19181850       1.48967513       8.99249317      -0.00006652       0.00009358      -0.00011463
