9
Lattice="4.999809433952051 -1.092345994518228e-07 2.8866409667191752 1.6666031189601775 4.713864689417726 2.8866408328370574 -2.740490071014887e-07 -3.577533144161041e-07 5.773282408105112" Properties=species:S:1:pos:R:3:forces:R:3 energy=-49.3559455871582 free_energy=-49.3559455871582 stress="-0.0002562384761404246 -1.2324472997704561e-08 1.4671429937607172e-07 -1.2324472997704561e-08 -0.0002560477878432721 8.180140298463812e-08 1.4671429937607172e-07 8.180140298463812e-08 -0.00025632319739088416" pbc="T T T"
Y        1.66660489       1.17846376       2.88663626       0.00002139      -0.00002345      -0.00004741
Y        4.99981147       3.53539711       8.65991880       0.00002201      -0.00000977      -0.00004735
Sn       0.00000076      -0.00000079      -0.00000196       0.00000414      -0.00000269      -0.00001413
F        1.78359029       1.26119102       5.77328487       0.00263125       0.00187945       0.00002338
F        4.88281944       3.45267709       5.77328708      -0.00265220      -0.00185296       0.00003657
F        4.10801385       1.26118836       4.43127677      -0.00132015       0.00185899       0.00229226
F        2.55839930       3.45267358       7.11528774       0.00132035      -0.00187153      -0.00228238
F        2.55839806       3.45267706       4.43127818       0.00130936      -0.00184931       0.00230753
F        4.10801098       1.26118972       7.11528858      -0.00133643       0.00187132      -0.00226855
