9
Lattice="6.406866665650769 -4.1535041106927346e-08 3.6990062585783714 2.135622207021768 6.040451974033934 3.6990062164933395 6.788047396686675e-08 -3.5446368308169414e-09 7.398012399584313" Properties=species:S:1:pos:R:3:forces:R:3 energy=-34.180789947509766 free_energy=-34.180789947509766 stress="9.535323624731973e-05 1.989423736858953e-08 -9.915331666832117e-09 1.989423736858953e-08 9.536461584502831e-05 1.2544798089209053e-08 -9.915331666832117e-09 1.2544798089209053e-08 9.534661512589082e-05" pbc="T T T"
Y        2.13562203       1.51011335       3.69900584      -0.00000120       0.00000043      -0.00000206
Y        6.40686585       4.53033844      11.09701902      -0.00000389      -0.00000247       0.00000188
Sn      -0.00000010       0.00000023      -0.00000024       0.00000149      -0.00000261       0.00000622
Br       2.22411684       1.57268839       7.39801254      -0.00105226      -0.00074279       0.00000159
Br       6.31837203       4.46776367       7.39801222       0.00105229       0.00074285      -0.00000133
Br       5.29480826       1.57268818       5.62514807       0.00052753      -0.00074223      -0.00091261
Br       3.24768099       4.46776373       9.17087723      -0.00052519       0.00074229       0.00090995
Br       3.24768137       4.46776370       5.62514783      -0.00052451       0.00074503      -0.00091147
Br       5.29480839       1.57268796       9.17087701       0.00052583      -0.00074041       0.00090793
