9
Lattice="6.196141133177828 -1.5499753383013003e-07 3.5773438609319035 2.0653801630421733 5.841778337257252 3.5773439796651245 -6.326742763693517e-08 1.006811741201366e-07 7.154687831446171" Properties=species:S:1:pos:R:3:forces:R:3 energy=-37.3335075378418 free_energy=-37.3335075378418 stress="-0.0001342857431154698 -2.8530893203537744e-08 1.1528292986895394e-08 -2.8530893203537744e-08 -0.00013428741658572108 -1.5917605011850355e-08 1.1528292986895394e-08 -1.5917605011850355e-08 -0.00013423881318885833" pbc="T T T"
Y        2.06538224       1.46044500       3.57734561       0.00001011       0.00000109       0.00001021
Y        6.19614079       4.38133322      10.73203246      -0.00000183      -0.00000133       0.00000387
Sn       0.00000003       0.00000049      -0.00000101      -0.00000168      -0.00000466       0.00000816
Cl       2.16291302       1.52941067       7.15468652      -0.00485480      -0.00343198      -0.00000559
Cl       6.09860726       4.31236769       7.15468741       0.00485602       0.00343722      -0.00000203
Cl       5.11468327       1.52941139       5.45048165       0.00242376      -0.00343367      -0.00421187
Cl       3.14683664       4.31236767       8.85889465      -0.00242747       0.00343272       0.00420448
Cl       3.14683736       4.31236623       5.45048225      -0.00243136       0.00343624      -0.00421521
Cl       5.11468402       1.52941091       8.85889306       0.00242731      -0.00343555       0.00420767
