9
Lattice="5.974728261347645 4.9477076550805407e-08 3.449510922042094 1.9915761481325247 5.633027827287228 3.4495108971538393 2.189727061263577e-09 -2.8933350969818612e-08 6.899021840291467" Properties=species:S:1:pos:R:3:forces:R:3 energy=-43.7393798828125 free_energy=-43.7393798828125 stress="-2.4554718038416468e-05 2.6917229334344484e-08 9.7447205860135e-10 2.6917229334344484e-08 -2.4535773263778538e-05 -3.11199599423162e-08 9.7447205860135e-10 -3.11199599423162e-08 -2.4509830836905167e-05" pbc="T T T"
Y        1.99157664       1.40825711       3.44951055       0.00000130       0.00000037      -0.00000161
Y        5.97472814       4.22477047      10.34853321       0.00000025      -0.00000296       0.00000407
Sn       0.00000011       0.00000007      -0.00000005      -0.00000027      -0.00000225       0.00000011
Se       2.10853516       1.49095962       6.89902167       0.00021788       0.00015280      -0.00000003
Se       5.85776891       4.14206840       6.89902149      -0.00021598      -0.00015154      -0.00000090
Se       4.92046112       1.49095963       5.27555577      -0.00011014       0.00015582       0.00018844
Se       3.04584339       4.14206825       8.52248800       0.00010809      -0.00015463      -0.00018688
Se       3.04584366       4.14206844       5.27555590       0.00010875      -0.00015184       0.00018460
Se       4.92046052       1.49095944       8.52248807      -0.00011011       0.00015424      -0.00018792
