9
Lattice="5.6603020947276965 -4.315386605066322e-08 3.2679767886860263 1.8867673303246275 5.336583773070854 3.2679767781183644 2.1024034928052027e-08 1.923551792235047e-09 6.53595354095734" Properties=species:S:1:pos:R:3:forces:R:3 energy=-48.21419143676758 free_energy=-48.21419143676758 stress="-0.00014919803652446717 7.410597469004188e-09 -7.855716077642683e-09 7.410597469004188e-09 -0.00014923594426363707 -7.974397531196331e-11 -7.855716077642683e-09 -7.974397531196331e-11 -0.00014923870912753046" pbc="T T T"
Y        1.88676736       1.33414617       3.26797666       0.00000098       0.00000201       0.00000053
Y        5.66030211       4.00243746       9.80393046      -0.00000057      -0.00000239      -0.00000026
Sn       0.00000014       0.00000004       0.00000009      -0.00000321       0.00000192       0.00000379
S        1.98020982       1.40022007       6.53595366      -0.00183973      -0.00130206       0.00000099
S        5.56685959       3.93636367       6.53595351       0.00183979       0.00130183      -0.00000086
S        4.67019711       1.40021990       4.98288853       0.00092062      -0.00130212      -0.00159472
S        2.87687225       3.93636389       8.08901845      -0.00091845       0.00129893       0.00159094
S        2.87687204       3.93636389       4.98288846      -0.00091912       0.00130168      -0.00159192
S        4.67019747       1.40021988       8.08901861       0.00091922      -0.00129965       0.00159147
