9
Lattice="6.91629289785757 -5.237074008725003e-09 3.9931235062413406 2.3054310024131865 6.520743342236984 3.993123434537529 6.480231368130751e-08 -4.1996759455477404e-08 7.98624690024177" Properties=species:S:1:pos:R:3:forces:R:3 energy=-30.197851181030273 free_energy=-30.197851181030273 stress="7.150117744458839e-05 1.6069893860048978e-08 8.617509372754739e-09 1.6069893860048978e-08 7.149400335038081e-05 -1.1989974346704457e-08 8.617509372754739e-09 -1.1989974346704457e-08 7.149281009333208e-05" pbc="T T T"
Y        2.30543042       1.63018557       3.99312383      -0.00000254       0.00000007       0.00000090
Y        6.91629334       4.89055726      11.97936955       0.00000152      -0.00000126      -0.00000364
Sn       0.00000008      -0.00000006       0.00000007       0.00000047       0.00000040       0.00000087
I        2.41644376       1.70868402       7.98624661       0.00061296       0.00043461      -0.00000050
I        6.80528033       4.81205953       7.98624730      -0.00061376      -0.00043456       0.00000192
I        5.70807100       1.70868376       6.08582517      -0.00030684       0.00043498       0.00053228
I        3.51365296       4.81205967       9.88666877       0.00030850      -0.00043529      -0.00053260
I        3.51365284       4.81205976       6.08582542       0.00030652      -0.00043348       0.00053333
I        5.70807121       1.70868366       9.88666866      -0.00030690       0.00043453      -0.00053252
