9
Lattice="4.630909667371041 3.5332448267456586e-07 2.6736567653611796 1.5436368242962466 4.366063876155032 2.6736568772718234 -3.294883130467684e-08 1.1376362668313651e-07 5.3473135877914055" Properties=species:S:1:pos:R:3:forces:R:3 energy=-63.35407257080078 free_energy=-63.35407257080078 stress="-8.32945152069442e-05 2.774395397864282e-07 -5.9522422546365306e-09 2.774395397864282e-07 -8.33407902973704e-05 2.6495246885360757e-08 -5.9522422546365306e-09 2.6495246885360757e-08 -8.358100603800267e-05" pbc="T T T"
Y        1.54363627       1.09151622       2.67365652       0.00000054       0.00000047      -0.00000317
Y        4.63091009       3.27454844       8.02097005      -0.00000032      -0.00000112      -0.00000268
Sn       0.00000022       0.00000003      -0.00000161      -0.00000629      -0.00000057       0.00004543
O        1.64062985       1.16010055       5.34731366      -0.00687003      -0.00485784       0.00000123
O        4.53391656       3.20596372       5.34731376       0.00687230       0.00485945      -0.00000086
O        3.81059487       1.16010028       4.09448332       0.00343746      -0.00485951      -0.00595152
O        2.36395108       3.20596449       6.60014443      -0.00342494       0.00484318       0.00592971
O        2.36395152       3.20596390       4.09448350      -0.00343406       0.00485885      -0.00594974
O        3.81059531       1.16010006       6.60014459       0.00342554      -0.00484318       0.00593150
