9
Lattice="6.414514810980343 -6.473797082814815e-08 3.70342188058727 2.1381715608763905 6.047662457552154 3.703421848974173 -1.421601228807137e-09 -3.972316978288455e-08 7.406843763636816" Properties=species:S:1:pos:R:3:forces:R:3 energy=-39.27440643310547 free_energy=-39.27440643310547 stress="-0.00011853480827994645 -1.0126432137269603e-08 6.1319673783089e-09 -1.0126432137269603e-08 -0.00011852849274873734 -1.0981721310088233e-08 6.1319673783089e-09 -1.0981721310088233e-08 -0.00011852927127620205" pbc="T T T"
Y        2.13817178       1.51191560       3.70342195       0.00000112      -0.00000095       0.00000074
Y        6.41451484       4.53574712      11.11026573       0.00000093       0.00000178       0.00000081
Sn       0.00000000       0.00000001      -0.00000015      -0.00000075      -0.00000274      -0.00000295
Te       2.28054559       1.61258903       7.40684365      -0.00050747      -0.00035906       0.00000007
Te       6.27214073       4.43507326       7.40684381       0.00050879       0.00036074      -0.00000047
Te       5.27424194       1.61258913       5.67843217       0.00025401      -0.00035839      -0.00043944
Te       3.27844418       4.43507312       9.13525520      -0.00025614       0.00036006       0.00044131
Te       3.27844434       4.43507300       5.67843235      -0.00025602       0.00035915      -0.00044104
Te       5.27424206       1.61258914       9.13525525       0.00025558      -0.00036044       0.00044084
