9
Lattice="5.898184240899609 -4.73991441329952e-08 3.4053181032969433 1.966061434671005 5.560861448064656 3.4053179894558965 1.5912429369432404e-07 -2.690838985458669e-08 6.810635930982576" Properties=species:S:1:pos:R:3:forces:R:3 energy=-44.93881607055664 free_energy=-44.93881607055664 stress="0.00011069144238717854 1.0479980439015435e-08 3.8714699002184716e-08 1.0479980439015435e-08 0.00011067517334595323 2.7391857670977515e-08 3.8714699002184716e-08 2.7391857670977515e-08 0.00011071329936385155" pbc="T T T"
Y        1.96606143       1.39021570       3.40531737       0.00000116       0.00000597      -0.00000471
Y        5.89818336       4.17064562      10.21595501      -0.00001007      -0.00000239       0.00000749
Ta       0.00000201      -0.00000019       0.00000041      -0.00000864       0.00000073      -0.00000023
Cl       2.02395319       1.43114947       6.81063589      -0.00293946      -0.00207937       0.00000032
Cl       5.84029351       4.12971121       6.81063535       0.00294822       0.00208437      -0.00000219
Cl       4.88620787       1.43115063       5.15811193       0.00147542      -0.00208396      -0.00255591
Cl       2.97803728       4.12971144       8.46315994      -0.00147158       0.00207967       0.00254607
Cl       2.97803813       4.12971160       5.15811171      -0.00146425       0.00207716      -0.00254494
Cl       4.88620695       1.43115017       8.46316039       0.00146937      -0.00208157       0.00255460
