9
Lattice="6.254331073120457 -6.586565080545513e-08 3.610939232151965 2.0847769278533566 5.896639909225744 3.610939291771629 -1.58839020440685e-07 -3.9297312599344994e-08 7.221878739421202" Properties=species:S:1:pos:R:3:forces:R:3 energy=-41.195945739746094 free_energy=-41.195945739746094 stress="6.730801396770403e-05 3.1262558763955894e-08 -4.294510702607113e-08 3.1262558763955894e-08 6.728665175614879e-05 -1.7752855852037897e-09 -4.294510702607113e-08 -1.7752855852037897e-09 6.728294829372317e-05" pbc="T T T"
Y        2.08477756       1.47416010       3.61093885       0.00000075      -0.00000091      -0.00000264
Y        6.25432841       4.42247888      10.83281557      -0.00000906      -0.00000448      -0.00000916
Ta       0.00000085       0.00000056       0.00000003      -0.00000476      -0.00000057       0.00000051
Br       2.12635632       1.50356093       7.22187884       0.00030273       0.00021380       0.00000142
Br       6.21275151       4.39307844       7.22187900      -0.00029415      -0.00020838       0.00000502
Br       5.19115308       1.50356102       5.45241841      -0.00014985       0.00020951       0.00025904
Br       3.14795552       4.39307905       8.99133994       0.00015268      -0.00021249      -0.00025666
Br       3.14795524       4.39307920       5.45241761       0.00015235      -0.00021338       0.00026190
Br       5.19115296       1.50356101       8.99134068      -0.00015071       0.00021684      -0.00025952
