9
Lattice="6.89431256126835 7.167276589147275e-08 3.9804332772710187 2.2981042718081017 6.500020255194943 3.980433247575232 5.9372476853623555e-08 5.612912608008563e-09 7.960866451705929" Properties=species:S:1:pos:R:3:forces:R:3 energy=-36.91078186035156 free_energy=-36.91078186035156 stress="0.00014304016076494008 -5.925835933062729e-10 -1.176827257864943e-08 -5.925835933062729e-10 0.00014303135685622692 1.3937877518799269e-08 -1.176827257864943e-08 1.3937877518799269e-08 0.0001430212432751432" pbc="T T T"
Y        2.29810436       1.62500506       3.98043383       0.00000027       0.00000183       0.00000246
Y        6.89431274       4.87501566      11.94129908      -0.00000003      -0.00000025      -0.00000053
Ta       0.00000005      -0.00000001      -0.00000011       0.00000025      -0.00000167      -0.00000215
I        2.32270929       1.64240331       7.96086640       0.00074863       0.00052923      -0.00000103
I        6.86970744       4.85761681       7.96086677      -0.00074887      -0.00052962      -0.00000024
I        5.73295800       1.64240320       5.99195836      -0.00037581       0.00053141       0.00065005
I        3.45945892       4.85761693       9.92977468       0.00037473      -0.00052968      -0.00064883
I        3.45945857       4.85761698       5.99195830       0.00037518      -0.00053218       0.00065017
I        5.73295820       1.64240340       9.92977467      -0.00037447       0.00053072      -0.00064999
