9
Lattice="5.859082361613104 6.043575563863867e-08 3.3827426715309543 1.9530274753388284 5.523995931144413 3.38274273303884 -7.397971904337435e-08 2.3019896497990377e-08 6.765485471198559" Properties=species:S:1:pos:R:3:forces:R:3 energy=-54.28536605834961 free_energy=-54.28536605834961 stress="-4.671130682254443e-06 2.5576204265576052e-08 -1.302802754565846e-08 2.5576204265576052e-08 -4.667450411943719e-06 2.653315078759988e-08 -1.302802754565846e-08 2.653315078759988e-08 -4.7013404582685325e-06" pbc="T T T"
Y        1.95302710       1.38099925       3.38274294      -0.00000068      -0.00000005       0.00000038
Y        5.85908227       4.14299752      10.14822854      -0.00000020       0.00000370       0.00000304
Ta      -0.00000020      -0.00000012      -0.00000028       0.00000413      -0.00000150       0.00000601
Se       2.02944316       1.43503262       6.76548545      -0.00070020      -0.00049843       0.00000171
Se       5.78266712       4.08896324       6.76548544       0.00069898       0.00049413       0.00000043
Se       4.84436098       1.43503274       5.14029150       0.00034953      -0.00049578      -0.00060749
Se       2.96774861       4.08896326       8.39067932      -0.00034937       0.00049180       0.00060378
Se       2.96774880       4.08896325       5.14029148      -0.00035069       0.00049674      -0.00060654
Se       4.84436121       1.43503232       8.39067913       0.00034826      -0.00049072       0.00059894
