9
Lattice="6.33262945281482 2.986505909792211e-08 3.6561452789469864 2.110876503501674 5.970460296549828 3.656145294408911 -1.7955760479932145e-08 6.240319763451408e-09 7.312290588994249" Properties=species:S:1:pos:R:3:forces:R:3 energy=-49.105125427246094 free_energy=-49.105125427246094 stress="3.985595685662702e-05 7.799998869018054e-09 9.596118566435052e-09 7.799998869018054e-09 3.986040246672928e-05 -6.8183143575595295e-09 9.596118566435052e-09 -6.8183143575595295e-09 3.9841976104071364e-05" pbc="T T T"
Y        2.11087664       1.49261496       3.65614516       0.00000033      -0.00000071      -0.00000044
Y        6.33262935       4.47784550      10.96843593      -0.00000090       0.00000084       0.00000013
Ta       0.00000013       0.00000002       0.00000027      -0.00000262       0.00000057      -0.00000272
Te       2.20538399       1.55944207       7.31229058      -0.00127095      -0.00089872       0.00000037
Te       6.23812190       4.41101830       7.31229052       0.00127298       0.00089918      -0.00000108
Te       5.22993730       1.55944204       5.56606385       0.00063569      -0.00089872      -0.00109997
Te       3.21356864       4.41101815       9.05851722      -0.00063582       0.00089924       0.00110164
Te       3.21356848       4.41101824       5.56606400      -0.00063510       0.00089869      -0.00109968
Te       5.22993734       1.55944204       9.05851710       0.00063631      -0.00090030       0.00110187
