9
Lattice="6.8942373328246465 -2.3684885480088408e-08 3.98038997141666 2.298079068187055 6.499949431297482 3.980390006792417 -5.834603621097868e-08 2.0693349616736437e-09 7.960780043891686" Properties=species:S:1:pos:R:3:forces:R:3 energy=-36.91078186035156 free_energy=-36.91078186035156 stress="0.00013769483484793454 1.7023316090103435e-09 1.7623850157022503e-09 1.7023316090103435e-09 0.00013769615907222033 7.4453962994880385e-09 1.7623850157022503e-09 7.4453962994880385e-09 0.00013768651115242392" pbc="T T T"
Y        2.29807938       1.62498757       3.98039018       0.00000191       0.00000176      -0.00000066
Y        6.89423730       4.87496185      11.94116946       0.00000060      -0.00000148      -0.00000101
Ta      -0.00000005       0.00000001       0.00000027       0.00000007      -0.00000004      -0.00000048
I        2.32270354       1.64239962       7.96078002       0.00071490       0.00050637      -0.00000018
I        6.86961274       4.85754981       7.96077997      -0.00071555      -0.00050640       0.00000026
I        5.73288529       1.64239956       5.99191046      -0.00035855       0.00050655       0.00062034
I        3.45943099       4.85754985       9.92964955       0.00035721      -0.00050613      -0.00061929
I        3.45943086       4.85754982       5.99191058       0.00035730      -0.00050694       0.00062045
I        5.73288535       1.64239955       9.92964966      -0.00035787       0.00050634      -0.00061944
