9
Lattice="5.5892165674938745 5.762931519366678e-08 3.2269357692232035 1.8630722568202887 5.269563832975237 3.2269357461484565 5.650622818517509e-08 1.1695262364818477e-08 6.453871440574754" Properties=species:S:1:pos:R:3:forces:R:3 energy=-59.881534576416016 free_energy=-59.881534576416016 stress="-0.00016773768584243953 -2.0687700441612833e-08 -7.681930647152058e-09 -2.0687700441612833e-08 -0.0001677196123637259 -2.9993278971574e-09 -7.681930647152058e-09 -2.9993278971574e-09 -0.00016771198716014624" pbc="T T T"
Y        1.86307186       1.31739119       3.22693582      -0.00000177       0.00000008       0.00000131
Y        5.58921630       3.95217307       9.68080697      -0.00000187       0.00000172       0.00000004
Ta       0.00000013       0.00000004       0.00000028      -0.00000101      -0.00000158      -0.00000417
S        1.93376116       1.36737507       6.45387142      -0.00266056      -0.00188234      -0.00000068
S        5.51852783       3.90218843       6.45387138       0.00266439       0.00188272      -0.00000170
S        4.62233623       1.36737552       4.90162210       0.00133102      -0.00188113      -0.00230592
S        2.82995292       3.90218829       8.00612087      -0.00133256       0.00188347       0.00230932
S        2.82995272       3.90218828       4.90162206      -0.00133114       0.00188090      -0.00230666
S        4.62233642       1.36737576       8.00612101       0.00133349      -0.00188374       0.00230858
