9
Lattice="4.652839867520271 -6.088050340072279e-08 2.6863183348558266 1.5509466052408598 4.386739152120097 2.686318265343793 7.68994472733201e-08 -3.0758393621132416e-08 5.372636536517904" Properties=species:S:1:pos:R:3:forces:R:3 energy=-77.62476348876953 free_energy=-77.62476348876953 stress="-8.104312291834503e-05 1.043254638233293e-08 1.9512667392973526e-07 1.043254638233293e-08 -8.158243872458115e-05 -4.2744925821125435e-08 1.9512667392973526e-07 -4.2744925821125435e-08 -8.142909791786224e-05" pbc="T T T"
Y        1.55094599       1.09668477       2.68631835       0.00000209       0.00000048      -0.00000163
Y        4.65283995       3.29005412       8.05895456      -0.00000394       0.00000164       0.00000321
Ta       0.00000006      -0.00000008      -0.00000002      -0.00000245      -0.00000219       0.00000098
O        1.59117998       1.12513387       5.37263686      -0.00103539      -0.00073129       0.00000042
O        4.61260651       3.26160529       5.37263682       0.00103658       0.00073490      -0.00000026
O        3.85725009       1.12513387       4.06432044       0.00051787      -0.00073209      -0.00089449
O        2.34653677       3.26160527       6.68095288      -0.00051582       0.00072995       0.00088996
O        2.34653638       3.26160500       4.06432021      -0.00051901       0.00073028      -0.00089061
O        3.85725054       1.12513403       6.68095271       0.00051948      -0.00073180       0.00089264
