9
Lattice="6.25449716565165 -1.6857446282395468e-07 3.6110358251095196 2.0848323627113525 5.896796309381312 3.6110355945834436 3.8851052603497265e-07 -7.61718407979798e-09 7.222070977299128" Properties=species:S:1:pos:R:3:forces:R:3 energy=-41.195945739746094 free_energy=-41.195945739746094 stress="8.676774450577796e-05 7.611262731188617e-09 4.9833381865482806e-08 7.611262731188617e-09 8.669032831676304e-05 -4.760936178627162e-08 4.9833381865482806e-08 -4.760936178627162e-08 8.67702838149853e-05" pbc="T T T"
Y        2.08483467       1.47419869       3.61103515       0.00000652       0.00000022       0.00000000
Y        6.25449894       4.42259833      10.83310743       0.00000558       0.00000424      -0.00000066
Ta      -0.00000024       0.00000022       0.00000037      -0.00000627      -0.00000760      -0.00000484
Br       2.12640785       1.50359737       7.22207079      -0.00007999      -0.00005633      -0.00000064
Br       6.21292058       4.39319769       7.22207173       0.00008732       0.00006557      -0.00000126
Br       5.19129256       1.50359672       5.45255867       0.00003496      -0.00005645      -0.00006694
Br       3.14803646       4.39319914       8.99158312      -0.00004578       0.00005811       0.00007010
Br       3.14803610       4.39319809       5.45255910      -0.00004354       0.00005835      -0.00007135
Br       5.19129269       1.50359830       8.99158320       0.00004137      -0.00006628       0.00007570
