9
Lattice="5.898082423647549 -2.467267048446034e-07 3.405259327071804 1.9660272493868962 5.560765805052946 3.4052593141612397 2.3392524383178856e-08 7.288612164610751e-10 6.810518613626691" Properties=species:S:1:pos:R:3:forces:R:3 energy=-44.938812255859375 free_energy=-44.938812255859375 stress="0.00010401661711512133 -3.333762776946969e-08 7.325948558900564e-08 -3.333762776946969e-08 0.00010400482278782874 6.724523871071142e-08 7.325948558900564e-08 6.724523871071142e-08 0.00010390836541773751" pbc="T T T"
Y        1.96602870       1.39019158       3.40525798      -0.00000060      -0.00000187      -0.00000118
Y        5.89808279       4.17057220      10.21577742       0.00000340      -0.00000127       0.00000003
Ta       0.00000017       0.00000035       0.00000039      -0.00000225       0.00000013      -0.00000577
Cl       2.02393806       1.43114046       6.81051894      -0.00287068      -0.00202578       0.00000305
Cl       5.84017086       4.12962522       6.81051863       0.00287116       0.00203192       0.00000005
Cl       4.88611291       1.43114062       5.15804187       0.00143993      -0.00203383      -0.00249404
Cl       2.97799624       4.12962451       8.46299560      -0.00144011       0.00203103       0.00249285
Cl       2.97799593       4.12962598       5.15804214      -0.00143564       0.00202745      -0.00248569
Cl       4.88611327       1.43114126       8.46299610       0.00143436      -0.00202745       0.00249028
