9
Lattice="6.0793535245149295 -0.5955594897217863 3.6810636971957615 2.2280968695844683 3.790675528270932 2.684632304963321 0.4313880220790318 -1.013944876370369 6.714045286188183" Properties=species:S:1:pos:R:3:forces:R:3 energy=-62.717952728271484 free_energy=-62.717952728271484 stress="-0.00019324036838952452 4.9286452849628404e-05 -5.6525790569139645e-05 4.9286452849628404e-05 5.014465386921074e-06 -0.00010731973452493548 -5.6525790569139645e-05 -0.00010731973452493548 6.808571924921125e-05" pbc="T T T"
Y        0.64469794       0.90696553       1.84784302      -0.00101864       0.00135776       0.00017753
Y        6.51574226       1.74768199       9.48999242       0.00153095      -0.00084324      -0.00088584
Ta      -0.04135417       0.06269986      -1.06637482       0.00082812      -0.00144544       0.00021799
F        3.05575638      -1.01769422       8.36744962      -0.00166962      -0.00107326      -0.00285295
F        6.80459204       2.36466403       6.37295672       0.00006461       0.00017768       0.00139117
F        4.58936266       0.06742486       6.04703995       0.00135261       0.00464082       0.00519657
F        4.43755792       2.06251548       8.43251304       0.00073850      -0.00238341      -0.00188309
F        2.40992432       2.49529684       4.86276477      -0.00196534       0.00019121       0.00028808
F        6.53906923       0.03512665       7.96476868       0.00013895      -0.00062233      -0.00164986
