9
Lattice="5.136479986248773 0.21950933148628937 2.781171458111308 1.6815630341707923 5.154018823287133 3.1671262501778217 -0.2129233900308076 0.3519365267917834 5.9231138739697" Properties=species:S:1:pos:R:3:forces:R:3 energy=-62.20387649536133 free_energy=-62.20387649536133 stress="-9.838947153184563e-05 2.0985546143492684e-05 4.830375019082567e-06 2.0985546143492684e-05 -0.0002667573862709105 -3.5061180824413896e-05 4.830375019082567e-06 -3.5061180824413896e-05 -0.0005669100792147219" pbc="T T T"
Y        0.99576834       1.40513108       3.00595680       0.00046474       0.00266880      -0.00091519
Y        5.38335967       4.23071508       8.71701429       0.00011754       0.00015143       0.00501895
Ta      -0.03254299       0.08067461       0.40054384       0.00238196       0.00320330       0.00628215
F        1.21671106       2.04976092       6.73895311       0.00308532       0.00190184      -0.00469097
F        5.76179266       3.88431679       5.04791061      -0.00345254      -0.00233967      -0.00402673
F        3.06214710       0.76151618       2.97322527       0.00317453       0.00205314       0.00336982
F        3.33666784       4.99309661       8.73895450      -0.00617789      -0.00318638      -0.00248550
F        1.86355800       3.23038195       4.30998019       0.00083786      -0.00463974      -0.00007215
F        4.83314353       2.26627498       7.55303144      -0.00043130       0.00018752      -0.00247976
