9
Lattice="6.288437104750045 -7.205202090139046e-08 3.630630214883969 2.0961454840407905 5.928795042474523 3.630630474018235 -1.2587790602379462e-07 2.2836428651642407e-07 7.261260647794868" Properties=species:S:1:pos:R:3:forces:R:3 energy=-34.468475341796875 free_energy=-34.468475341796875 stress="-0.0002266591473016888 2.8891525616359104e-08 9.850904980623909e-09 2.8891525616359104e-08 -0.00022659116075374186 1.0170975173195984e-08 9.850904980623909e-09 1.0170975173195984e-08 -0.0002265854855068028" pbc="T T T"
Y        2.09614557       1.48219798       3.63062697       0.00000106      -0.00000315      -0.00001695
Y        6.28843286       4.44659839      10.89188687      -0.00001876       0.00001009      -0.00001971
Te       0.00000027       0.00000028       0.00000133       0.00000274      -0.00000492      -0.00000445
Cl       2.19549902       1.55245095       7.26126204       0.00062776       0.00043333       0.00000850
Cl       6.18908420       4.37634422       7.26126177      -0.00062400      -0.00043768       0.00000857
Cl       5.19068777       1.55245157       5.53198847      -0.00031027       0.00043648       0.00054455
Cl       3.19389676       4.37634195       8.99053509       0.00031891      -0.00044012      -0.00052649
Cl       3.19389558       4.37634366       5.53198769       0.00031593      -0.00043756       0.00054234
Cl       5.19068791       1.55245182       8.99053492      -0.00031346       0.00044346      -0.00053650
