9
Lattice="5.686192196207658 -1.4563286688364363e-07 3.282924753743659 1.8953972391406855 5.36099348165158 3.2829247923531373 -1.065348604399836e-07 -2.8044743643935574e-08 6.56584969201112" Properties=species:S:1:pos:R:3:forces:R:3 energy=-46.07184600830078 free_energy=-46.07184600830078 stress="-0.0003454335674177855 -1.0182439069694738e-07 -1.801678628510217e-08 -1.0182439069694738e-07 -0.0003453630779404193 1.9285884889086446e-08 -1.801678628510217e-08 1.9285884889086446e-08 -0.00034530804259702563" pbc="T T T"
Y        1.89539700       1.34024886       3.28292491      -0.00000232       0.00000337      -0.00000015
Y        5.68619175       4.02074441       9.84877418      -0.00000119      -0.00000510      -0.00000341
Te      -0.00000012      -0.00000012      -0.00000028       0.00001469      -0.00000079       0.00000900
S        1.95114935       1.37967154       6.56584954      -0.00643694      -0.00454918      -0.00000114
S        5.63044009       3.98132204       6.56585014       0.00642869       0.00454435       0.00000250
S        4.71061715       1.37967136       4.97267010       0.00321996      -0.00455302      -0.00557834
S        2.87097200       3.98132170       8.15902885      -0.00322026       0.00455213       0.00557891
S        2.87097273       3.98132211       4.97267043      -0.00321940       0.00455594      -0.00557986
S        4.71061743       1.37967131       8.15902903       0.00321691      -0.00454789       0.00557259
