9
Lattice="6.972630196935793 2.7699209457217376e-08 4.025649829152862 2.324210088731759 6.573858799850541 4.025649834398542 -2.945668862312785e-08 -1.4404497945583003e-08 8.051299709326276" Properties=species:S:1:pos:R:3:forces:R:3 energy=-28.068328857421875 free_energy=-28.068328857421875 stress="0.00017799815395846963 1.1931727827985128e-09 1.149498540797822e-08 1.1931727827985128e-09 0.00017800531350076199 -3.446170016019323e-09 1.149498540797822e-08 -3.446170016019323e-09 0.0001780032180249691" pbc="T T T"
Y        2.32420998       1.64346501       4.02565018      -0.00000089       0.00000037       0.00000018
Y        6.97262989       4.93039403      12.07694947       0.00000103       0.00000032      -0.00000002
Te      -0.00000010      -0.00000010      -0.00000013       0.00000001       0.00000042      -0.00000166
I        2.45712332       1.73744889       8.05129966      -0.00029907      -0.00021124      -0.00000024
I        6.83971725       4.83640983       8.05129967       0.00029868       0.00021079       0.00000012
I        5.74406833       1.73744847       6.15358078       0.00014831      -0.00021064      -0.00025815
I        3.55277191       4.83641037       9.94901850      -0.00014867       0.00021157       0.00025880
I        3.55277185       4.83641029       6.15358083      -0.00014912       0.00021005      -0.00025776
I        5.74406859       1.73744840       9.94901853       0.00014973      -0.00021154       0.00025854
