9
Lattice="5.99460851238649 -3.679501094902164e-09 3.4609888419080366 1.998202846464454 5.651771198240003 3.4609888203069765 -8.183943778843396e-09 -3.224269096237369e-08 6.921977697991059" Properties=species:S:1:pos:R:3:forces:R:3 energy=-41.38616180419922 free_energy=-41.38616180419922 stress="-5.5283082474488765e-05 1.8619036978861914e-08 6.247887540666852e-09 1.8619036978861914e-08 -5.529762347578071e-05 -2.2922844067352344e-08 6.247887540666852e-09 -2.2922844067352344e-08 -5.5208391131600365e-05" pbc="T T T"
Y        1.99820308       1.41294288       3.46098843       0.00000242       0.00000033      -0.00000337
Y        5.99460882       4.23882882      10.38296650       0.00000362       0.00000243      -0.00000277
Te       0.00000008       0.00000001      -0.00000011      -0.00000055       0.00000080       0.00000524
Se       2.12641924       1.50360566       6.92197790       0.00057761       0.00040926       0.00000094
Se       5.86639162       4.14816567       6.92197744      -0.00058003      -0.00040957       0.00000053
Se       4.93139885       1.50360526       5.30252235      -0.00029029       0.00040664       0.00050297
Se       3.06141244       4.14816580       8.54143322       0.00029025      -0.00041195      -0.00050312
Se       3.06141271       4.14816518       5.30252225       0.00028777      -0.00040872       0.00050092
Se       4.93139857       1.50360536       8.54143348      -0.00029079       0.00041077      -0.00050133
