9
Lattice="4.668464125237178 6.030686417053445e-08 2.6953389944564483 1.5561547633501787 4.401470208357178 2.6953389977820685 2.7660185933567296e-09 6.028916649770442e-09 5.390677984122004" Properties=species:S:1:pos:R:3:forces:R:3 energy=-65.05110931396484 free_energy=-65.05110931396484 stress="-0.0001947791170096025 1.6861307017279614e-07 -9.143079893192407e-08 1.6861307017279614e-07 -0.00019487057579681277 6.877500879909348e-08 -9.143079893192407e-08 6.877500879909348e-08 -0.00019499301561154425" pbc="T T T"
Y        1.55615451       1.10036786       2.69533907      -0.00000052       0.00000139      -0.00000079
Y        4.66846394       3.30110236       8.08601722      -0.00000204      -0.00000120       0.00000120
Te      -0.00000018      -0.00000005      -0.00000032       0.00001107       0.00000156       0.00003722
O        1.54943094       1.09561342       5.39067800      -0.00821248      -0.00580752      -0.00000004
O        4.67518793       3.30585694       5.39067783       0.00820646       0.00580372      -0.00000490
O        3.89374878       1.09561319       4.03718547       0.00410528      -0.00580540      -0.00711310
O        2.33087037       3.30585726       6.74417056      -0.00409924       0.00579435       0.00709647
O        2.33087023       3.30585718       4.03718533      -0.00410003       0.00580301      -0.00710545
O        3.89374899       1.09561298       6.74417066       0.00409134      -0.00579017       0.00708968
