9
Lattice="6.839098713539385 3.248376884004362e-08 3.948555450532195 2.279699618151299 6.447964063554386 3.948555422220895 2.3143737988059007e-08 -1.8308996780260808e-08 7.89711086097815" Properties=species:S:1:pos:R:3:forces:R:3 energy=-35.216739654541016 free_energy=-35.216739654541016 stress="0.0002124219317920506 -6.3271246020235594e-09 -2.803834664444338e-10 -6.3271246020235594e-09 0.00021243201626930386 -5.0208086577185895e-09 -2.803834664444338e-10 -5.0208086577185895e-09 0.00021242807270027697" pbc="T T T"
Y        2.27969947       1.61199109       3.94855549      -0.00000074       0.00000008       0.00000224
Y        6.83909911       4.83597332      11.84566630       0.00000021       0.00000018      -0.00000301
Ti       0.00000013       0.00000001       0.00000015      -0.00000099      -0.00000072      -0.00000127
I        2.29586794       1.62342382       7.89711061       0.00010541       0.00007425       0.00000017
I        6.82293032       4.82454011       7.89711096      -0.00010432      -0.00007445       0.00000082
I        5.69116478       1.62342370       5.93683541      -0.00005230       0.00007410       0.00009164
I        3.42763341       4.82454052       9.85738633       0.00005354      -0.00007416      -0.00009106
I        3.42763350       4.82454013       5.93683525       0.00005165      -0.00007384       0.00009078
I        5.69116476       1.62342367       9.85738643      -0.00005249       0.00007457      -0.00009030
