9
Lattice="6.275804713526077 -3.530950282159982e-08 3.623337597475188 2.0919349091080703 5.916885338652757 3.6233375318486236 3.734697302493457e-08 -5.396742652047205e-08 7.246675130263469" Properties=species:S:1:pos:R:3:forces:R:3 energy=-46.01668167114258 free_energy=-46.01668167114258 stress="1.0660398856998654e-06 -1.2297334262001414e-09 -2.9061413275854875e-09 -1.2297334262001414e-09 1.0726330401666928e-06 1.276861616439362e-09 -2.9061413275854875e-09 1.276861616439362e-09 1.0734819397839601e-06" pbc="T T T"
Y        2.09193490       1.47922058       3.62333748      -0.00000027      -0.00000081       0.00000024
Y        6.27580462       4.43766443      10.87001280      -0.00000043       0.00000039       0.00000035
Ti      -0.00000000      -0.00000005      -0.00000018       0.00000024      -0.00000027       0.00000079
Te       2.17568072       1.53843841       7.24667531      -0.00029550      -0.00020886       0.00000029
Te       6.19205904       4.37844706       7.24667537       0.00029586       0.00020860      -0.00000057
Te       5.18796444       1.53843830       5.50753197       0.00014707      -0.00020767      -0.00025588
Te       3.17977516       4.37844711       8.98581802      -0.00014795       0.00020926       0.00025581
Te       3.17977516       4.37844694       5.50753203      -0.00014650       0.00020797      -0.00025623
Te       5.18796465       1.53843822       8.98581824       0.00014757      -0.00020857       0.00025512
