9
Lattice="4.986798720976229 -1.2609772100418307e-06 2.8791291664138896 1.6622651896921812 4.701599081804042 2.8791289269969753 -8.659695859262404e-07 -9.055576896182094e-07 5.758259832731071" Properties=species:S:1:pos:R:3:forces:R:3 energy=-56.97700119018555 free_energy=-56.97700119018555 stress="-0.0001302698947256431 2.669822549705714e-07 -5.896726662513174e-08 2.669822549705714e-07 -0.00012924621114507318 -2.696957146497425e-08 -5.896726662513174e-08 -2.696957146497425e-08 -0.00012948350922670215" pbc="T T T"
Y        1.66228913       1.17538218       2.87909739       0.00025340      -0.00019205      -0.00030776
Y        4.98682531       3.52619015       8.63734668       0.00022180      -0.00009065      -0.00033480
Ti       0.00000210      -0.00000762      -0.00000155       0.00003319      -0.00002508      -0.00002060
F        1.65817286       1.17252153       5.75827481       0.00138754       0.00111723       0.00015770
F        4.99086624       3.52910258       5.75827131      -0.00154638      -0.00088221       0.00018060
F        4.15770141       1.17250411       4.31516120      -0.00077111       0.00092626       0.00127715
F        2.49135878       3.52908298       7.20135967       0.00072315      -0.00105602      -0.00125206
F        2.49134994       3.52909438       4.31517769       0.00058740      -0.00090843       0.00140631
F        4.15768719       1.17251596       7.20138369      -0.00088945       0.00111145      -0.00110668
