9
Lattice="5.491277537760754 3.409257915909095e-08 3.170390621252857 1.830425880194763 5.177226226140136 3.17039061756062 2.3649609553152277e-08 1.2200760404124783e-08 6.3407812015433835" Properties=species:S:1:pos:R:3:forces:R:3 energy=-56.1544303894043 free_energy=-56.1544303894043 stress="-1.4505726539937314e-06 3.7338431013722584e-08 8.257726058502612e-09 3.7338431013722584e-08 -1.5132486623770092e-06 -7.75110997608408e-09 8.257726058502612e-09 -7.75110997608408e-09 -1.5387112171083572e-06" pbc="T T T"
Y        1.83042563       1.29430646       3.17039080      -0.00000007       0.00000025      -0.00000025
Y        5.49127746       3.88292002       9.51117198      -0.00000138       0.00000048       0.00000195
Ti       0.00000017      -0.00000002      -0.00000003      -0.00000323       0.00000163       0.00000328
S        1.87979628       1.32921649       6.34078131      -0.00047348      -0.00033410       0.00000051
S        5.44190717       3.84800983       6.34078125       0.00047503       0.00033591      -0.00000058
S        4.55137958       1.32921678       4.79834149       0.00023761      -0.00033370      -0.00040768
S        2.77032385       3.84800957       7.88322096      -0.00023474       0.00032999       0.00040317
S        2.77032396       3.84800943       4.79834150      -0.00023554       0.00033256      -0.00040580
S        4.55137970       1.32921653       7.88322050       0.00023568      -0.00033297       0.00040527
