9
Lattice="5.784993405610373 -8.057598605313576e-08 3.3399674863026747 1.9283310740998556 5.454143917999379 3.3399674605571907 9.022084366865678e-09 -2.515209385402583e-08 6.679934956978641" Properties=species:S:1:pos:R:3:forces:R:3 energy=-50.82700729370117 free_energy=-50.82700729370117 stress="-7.712365913903341e-05 -3.220958433303167e-08 1.535250326867299e-08 -3.220958433303167e-08 -7.708026532782242e-05 2.579165325755639e-09 1.535250326867299e-08 2.579165325755639e-09 -7.702976290602237e-05" pbc="T T T"
Y        1.92833103       1.36353635       3.33996761      -0.00000267       0.00000090       0.00000045
Y        5.78499363       4.09060769      10.01990333       0.00000170      -0.00000095       0.00000408
Ti      -0.00000028      -0.00000030       0.00000011       0.00000577       0.00000282      -0.00000182
Se       1.98904365       1.40646657       6.67993482      -0.00283482      -0.00200302       0.00000063
Se       5.72428094       4.04767742       6.67993448       0.00282954       0.00200050      -0.00000087
Se       4.79047137       1.40646638       5.06252994       0.00141705      -0.00200453      -0.00245497
Se       2.92285309       4.04767738       8.29733983      -0.00141732       0.00200455       0.00245525
Se       2.92285316       4.04767751       5.06252997      -0.00141723       0.00200407      -0.00245622
Se       4.79047135       1.40646623       8.29733952       0.00141805      -0.00200441       0.00245349
