9
Lattice="6.204540141620236 2.980690831394255e-07 3.582193271584197 2.0681806612974447 5.849697034427161 3.582192694692782 4.1172365454600337e-07 -4.1541219048732795e-07 7.164385830042146" Properties=species:S:1:pos:R:3:forces:R:3 energy=-39.61163330078125 free_energy=-39.61163330078125 stress="-2.1337826183298603e-05 2.1871326083555687e-08 1.5042967760336978e-08 2.1871326083555687e-08 -2.120906901836861e-05 2.8596855994322823e-09 1.5042967760336978e-08 2.8596855994322823e-09 -2.1226682292763144e-05" pbc="T T T"
Y        2.06817754       1.46242673       3.58219355      -0.00000947       0.00001110       0.00000253
Y        6.20454643       4.38726918      10.74658083       0.00002486      -0.00001583       0.00001067
Ti       0.00000008      -0.00000046      -0.00000065      -0.00000080       0.00000975       0.00000015
Br       2.08301309       1.47291361       7.16438557       0.00011677       0.00009602      -0.00000140
Br       6.18970834       4.37678377       7.16438549      -0.00012857      -0.00009653      -0.00000381
Br       5.16303410       1.47291362       5.38613535      -0.00005732       0.00009176       0.00010660
Br       3.10968530       4.37678389       8.94263592       0.00005668      -0.00009444      -0.00012004
Br       3.10968587       4.37678388       5.38613485       0.00005789      -0.00009289       0.00011474
Br       5.16303417       1.47291334       8.94263619      -0.00006004       0.00009093      -0.00010967
