9
Lattice="5.77965091328228 1.493826786548014e-07 3.336883054863343 1.9265504171365717 5.449106627120655 3.336883103586229 -1.7029172725604841e-07 -6.074132960228998e-08 6.673766404680645" Properties=species:S:1:pos:R:3:forces:R:3 energy=-43.65629577636719 free_energy=-43.65629577636719 stress="0.00030268082628026605 5.303330752326474e-08 1.2155401130087284e-08 5.303330752326474e-08 0.00030253545264713466 1.5959612298388492e-08 1.2155401130087284e-08 1.5959612298388492e-08 0.000302666740026325" pbc="T T T"
Y        1.92654935       1.36227531       3.33688375      -0.00000558      -0.00000561       0.00000508
Y        5.77965401       4.08683378      10.01064990       0.00001938       0.00002128       0.00000264
Ti       0.00000030      -0.00000025      -0.00000017      -0.00000142      -0.00000076       0.00000373
Cl       1.95634940       1.38334781       6.67376597      -0.00760370      -0.00537929      -0.00000140
Cl       5.74985118       4.06575866       6.67376540       0.00760698       0.00537908      -0.00000151
Cl       4.80147581       1.38334612       5.03113082       0.00379604      -0.00538331      -0.00657576
Cl       2.90472373       4.06575999       8.31640118      -0.00380152       0.00537211       0.00657174
Cl       2.90472434       4.06575978       5.03113172      -0.00380719       0.00537944      -0.00657827
Cl       4.80147643       1.38334577       8.31640167       0.00379708      -0.00538325       0.00657392
