9
Lattice="6.1829178573448935 2.0002389074774915e-08 3.5697092680561324 2.060972620284075 5.829311453345696 3.5697092986949324 2.2609716502079068e-08 5.351220000165802e-08 7.139418496951035" Properties=species:S:1:pos:R:3:forces:R:3 energy=-40.41245651245117 free_energy=-40.41245651245117 stress="0.00011041653488064185 6.766344151643011e-10 2.192027181990852e-08 6.766344151643011e-10 0.0001103690592572093 -3.795225911318312e-09 2.192027181990852e-08 -3.795225911318312e-09 0.00011037734657293186" pbc="T T T"
Y        2.06097294       1.45732725       3.56970882       0.00000075      -0.00000409      -0.00000168
Y        6.18291647       4.37198400      10.70912839      -0.00000636       0.00000273       0.00000207
V        0.00000025      -0.00000001       0.00000002      -0.00000121       0.00000061       0.00000192
Br       2.06636609       1.46114111       7.13941867      -0.00029226      -0.00020957       0.00000095
Br       6.17752426       4.36817027       7.13941812       0.00029586       0.00021046      -0.00000229
Br       5.14973489       1.46114098       5.35923474       0.00014688      -0.00020804      -0.00025544
Br       3.09415610       4.36817026       8.91960262      -0.00014541       0.00020820       0.00025459
Br       3.09415609       4.36817029       5.35923485      -0.00014500       0.00020801      -0.00025600
Br       5.14973483       1.46114196       8.91960197       0.00014684      -0.00020827       0.00025591
