9
Lattice="5.056915286871827 -9.851021979976137e-06 2.9196021895066995 1.685637456852426 4.767621711346538 2.9195877866299424 8.604544628169048e-06 -1.1555535224914448e-05 5.839189475509648" Properties=species:S:1:pos:R:3:forces:R:3 energy=-55.9977912902832 free_energy=-55.9977912902832 stress="6.897960702190176e-05 -1.3289479738887167e-06 3.614360934989236e-07 -1.3289479738887167e-06 7.80537084210664e-05 4.3624493173410883e-07 3.614360934989236e-07 4.3624493173410883e-07 6.551323895109817e-05" pbc="T T T"
Y        1.68578647       1.19195711       2.91972068       0.00106880       0.00013236       0.00115203
Y        5.05714451       3.57597443       8.75887152       0.00196355       0.00228787       0.00090256
V        0.00000058      -0.00000066       0.00002754       0.00011028      -0.00004639      -0.00009284
F        1.66257122       1.17552411       5.83910648      -0.00166333      -0.00183296      -0.00065189
F        5.07996374       3.59204965       5.83914113       0.00212610       0.00194192      -0.00038055
F        4.22552777       1.17548229       4.35942218      -0.00002980      -0.00252157      -0.00152975
F        2.51681267       3.59206472       7.31886749      -0.00210974       0.00180340       0.00123000
F        2.51685304       3.59199125       4.35945669      -0.00186282       0.00124824      -0.00165087
F        4.22558835       1.17536435       7.31890905       0.00039676      -0.00301319       0.00102174
