9
Lattice="6.73806388851937 6.931592962686515e-08 3.8902231315666307 2.246021438336485 6.352707677173725 3.8902229985249344 1.221497046277591e-07 -7.656924461428079e-08 7.780446051563756" Properties=species:S:1:pos:R:3:forces:R:3 energy=-36.08305740356445 free_energy=-36.08305740356445 stress="0.00010232310160063207 -9.009257340153454e-09 -5.707160521950527e-09 -9.009257340153454e-09 0.00010233791545033455 1.9288468600109354e-09 -5.707160521950527e-09 1.9288468600109354e-09 0.00010232928616460413" pbc="T T T"
Y        2.24602125       1.58817682       3.89022324      -0.00000040      -0.00000049       0.00000066
Y        6.73806344       4.76453120      11.67066827      -0.00000215       0.00000153      -0.00000271
V       -0.00000009      -0.00000010      -0.00000000       0.00000203      -0.00000009      -0.00000116
I        2.24488421       1.58737223       7.78044593       0.00063498       0.00044720       0.00000000
I        6.73920138       4.76533546       7.78044661      -0.00063661      -0.00044885      -0.00000004
I        5.61562222       1.58737248       5.83434963      -0.00031672       0.00044816       0.00054942
I        3.36846373       4.76533484       9.72654293       0.00031632      -0.00044676      -0.00054573
I        3.36846336       4.76533509       5.83434942       0.00031859      -0.00044867       0.00054852
I        5.61562228       1.58737267       9.72654267      -0.00031601       0.00044798      -0.00054894
