9
Lattice="4.506544901956922 1.323443632711682e-07 2.6018548567878286 1.5021817522805845 4.248811292034573 2.6018548680124534 -6.244889368685231e-08 -3.041072124654993e-08 5.2037098217403415" Properties=species:S:1:pos:R:3:forces:R:3 energy=-71.23377990722656 free_energy=-71.23377990722656 stress="1.2263230019016191e-05 5.418397819312304e-08 3.406882242984466e-08 5.418397819312304e-08 1.2037448868795764e-05 -4.0100367471040954e-08 3.406882242984466e-08 -4.0100367471040954e-08 1.1984867342107464e-05" pbc="T T T"
Y        1.50218242       1.06220275       2.60185469      -0.00000139      -0.00000026       0.00000006
Y        4.50654503       3.18660902       7.80556438       0.00000136       0.00000039       0.00000097
V       -0.00000018       0.00000008      -0.00000040       0.00000223       0.00000037       0.00000865
O        1.52331723       1.07714756       5.20370972      -0.00025851      -0.00017881       0.00000062
O        4.48540966       3.17166382       5.20371012       0.00024971       0.00017715       0.00000078
O        3.74488619       1.07714773       3.92108644       0.00013018      -0.00017950      -0.00022143
O        2.26383990       3.17166381       6.48633329      -0.00012231       0.00017309       0.00021389
O        2.26384018       3.17166339       3.92108640      -0.00012587       0.00018221      -0.00022197
O        3.74488600       1.07714746       6.48633337       0.00012496      -0.00017458       0.00021952
