9
Lattice="5.730625739577891 -1.1360494110948424e-07 3.3085783124447734 1.910208512295135 5.402885605836956 3.308578243953293 2.353820602461875e-08 -6.724062191072273e-08 6.617156584120199" Properties=species:S:1:pos:R:3:forces:R:3 energy=-51.048736572265625 free_energy=-51.048736572265625 stress="9.049027539731469e-06 -2.7479080344505746e-08 2.3275319449567178e-08 -2.7479080344505746e-08 9.056045200850349e-06 -9.98945726138345e-09 2.3275319449567178e-08 -9.98945726138345e-09 9.111414328799583e-06" pbc="T T T"
Y        1.91020827       1.35072003       3.30857825      -0.00000040      -0.00000438       0.00000027
Y        5.73062565       4.05216382       9.92573630      -0.00000029      -0.00000069       0.00000502
V       -0.00000009       0.00000004       0.00000015       0.00000055       0.00000255       0.00000055
Se       1.94696712       1.37671337       6.61715625       0.00032130       0.00022703      -0.00000221
Se       5.69386697       4.02617260       6.61715572      -0.00032568      -0.00022735      -0.00000262
Se       4.75714263       1.37671394       4.99470122      -0.00015678       0.00022857       0.00027733
Se       2.88369192       4.02617197       8.23961149       0.00016159      -0.00022756      -0.00027999
Se       2.88369244       4.02617221       4.99470153       0.00016016      -0.00022519       0.00027798
Se       4.75714225       1.37671370       8.23961172      -0.00016050       0.00022681      -0.00027648
