9
Lattice="5.447972126630826 3.616376075689436e-08 3.145388155501513 1.8159907415973828 5.1363972608234105 3.1453881578834393 4.6877817678719774e-08 3.6064746917610026e-08 6.2907762298083565" Properties=species:S:1:pos:R:3:forces:R:3 energy=-56.364013671875 free_energy=-56.364013671875 stress="-5.919394243392162e-05 -4.732587655098541e-09 4.025597277745874e-08 -4.732587655098541e-09 -5.918250099057332e-05 -1.631160273518617e-08 4.025597277745874e-08 -1.631160273518617e-08 -5.921033152844757e-05" pbc="T T T"
Y        1.81599071       1.28409911       3.14538794       0.00000029      -0.00000028      -0.00000028
Y        5.44797218       3.85229830       9.43616439      -0.00000032      -0.00000055      -0.00000045
V        0.00000007      -0.00000006       0.00000020       0.00000045      -0.00000281      -0.00000562
S        1.84293965       1.30315538       6.29077627       0.00021127       0.00014976       0.00000068
S        5.42102288       3.83324208       6.29077637      -0.00020859      -0.00014862      -0.00000097
S        4.52650271       1.30315495       4.74142048      -0.00010732       0.00015271       0.00018740
S        2.73746077       3.83324240       7.84013192       0.00010365      -0.00014818      -0.00018045
S        2.73746061       3.83324215       4.74142062       0.00010562      -0.00014925       0.00018141
S        4.52650213       1.30315515       7.84013192      -0.00010504       0.00014707      -0.00018197
