9
Lattice="6.202055090990619 -2.412643191599023e-07 3.580757929107763 2.0673515690516235 5.847353570416918 3.5807577567324986 9.071806453903952e-09 -2.0470098100585253e-07 7.161515842502657" Properties=species:S:1:pos:R:3:forces:R:3 energy=-40.75109100341797 free_energy=-40.75109100341797 stress="8.00962807261385e-05 -5.683430259750821e-08 -7.672426249882847e-09 -5.683430259750821e-08 8.011386671569198e-05 3.986094299079923e-08 -7.672426249882847e-09 3.986094299079923e-08 8.011817408259958e-05" pbc="T T T"
Y        2.06735358       1.46184103       3.58075738       0.00000998       0.00001302      -0.00000215
Y        6.20205434       4.38551595      10.74227500      -0.00000165       0.00000810       0.00000886
W        0.00000005      -0.00000047       0.00000052       0.00000575      -0.00000079      -0.00000418
Br       2.10496602       1.48843459       7.16151584       0.00016129       0.00010993       0.00000061
Br       6.16444073       4.35891758       7.16151453      -0.00016394      -0.00011855      -0.00000357
Br       5.14957127       1.48843577       5.40371233      -0.00008091       0.00011036       0.00013565
Br       3.11983407       4.35891639       8.91931923       0.00007313      -0.00011416      -0.00013104
Br       3.11983521       4.35891670       5.40371147       0.00008067      -0.00011770       0.00013381
Br       5.14957143       1.48843495       8.91931979      -0.00008440       0.00010981      -0.00013801
