9
Lattice="5.8005334703409455 1.589682692612385e-07 3.348939504762607 1.9335112428885757 5.468794900295771 3.3489396152127755 -1.3504062794812724e-08 1.2572443058319507e-07 6.697879032914946" Properties=species:S:1:pos:R:3:forces:R:3 energy=-44.63533401489258 free_energy=-44.63533401489258 stress="0.000208414247026667 2.6033678324210996e-08 2.0807346956530637e-08 2.6033678324210996e-08 0.00020850918372161686 4.433685774074547e-08 2.0807346956530637e-08 4.433685774074547e-08 0.0002085345913656056" pbc="T T T"
Y        1.93351068       1.36719720       3.34893855      -0.00000046      -0.00001653      -0.00000687
Y        5.80053461       4.10159481      10.04681801       0.00001105      -0.00001114      -0.00000182
W        0.00000016       0.00000066       0.00000033       0.00000538      -0.00000138       0.00000361
Cl       1.98123948       1.40094809       6.69787966      -0.00180617      -0.00127167       0.00000474
Cl       5.75280513       4.06784822       6.69787928       0.00180009       0.00127836       0.00000227
Cl       4.80991358       1.40094801       5.06474305       0.00090115      -0.00127257      -0.00156072
Cl       2.92413059       4.06784768       8.33101485      -0.00090386       0.00128008       0.00156210
Cl       2.92413061       4.06784774       5.06474368      -0.00090715       0.00128369      -0.00156288
Cl       4.80991395       1.40094820       8.33101532       0.00090027      -0.00126912       0.00155938
