9
Lattice="4.983054614315041 -2.2007550576639477e-07 2.8769675675597726 1.6610181590093893 4.6980674612298445 2.876967287440582 3.075060767629792e-07 -1.2563490582860246e-07 5.753934602503407" Properties=species:S:1:pos:R:3:forces:R:3 energy=-53.29786682128906 free_energy=-53.29786682128906 stress="-0.00033857274684123695 -8.160375131183173e-08 -8.800901696304209e-08 -8.160375131183173e-08 -0.00033869396429508924 -8.114721339325115e-08 -8.800901696304209e-08 -8.114721339325115e-08 -0.0003386697790119797" pbc="T T T"
Y        1.66102476       1.17451582       2.87696795       0.00005277      -0.00000890       0.00000741
Y        4.98306522       3.52354604       8.63090605       0.00008469      -0.00003857       0.00003020
W       -0.00000008      -0.00000026       0.00000004      -0.00000410       0.00000264       0.00000473
F        1.67933379       1.18747336       5.75393321      -0.00699604      -0.00489569      -0.00000369
F        4.96473584       3.51059832       5.75393376       0.00696635       0.00494099      -0.00001479
F        4.14338340       1.18747187       4.33131213       0.00347000      -0.00491887      -0.00606143
F        2.50068133       3.51059695       7.17655155      -0.00352925       0.00492364       0.00601530
F        2.50068353       3.51059782       4.33131781      -0.00351346       0.00493175      -0.00602520
F        4.14338476       1.18746860       7.17655557       0.00346941      -0.00493747       0.00604725
