9
Lattice="6.824548185586052 7.525212020184745e-08 3.9401547112512123 2.274849464569012 6.434245676573326 3.940154713978721 2.851394978255498e-08 2.35029365501352e-08 7.880309373114718" Properties=species:S:1:pos:R:3:forces:R:3 energy=-36.67462921142578 free_energy=-36.67462921142578 stress="2.132327063009143e-05 1.2838403229409323e-08 -3.6152725257920793e-09 1.2838403229409323e-08 2.1319903680705465e-05 1.8681555857824605e-08 -3.6152725257920793e-09 1.8681555857824605e-08 2.1314490368240513e-05" pbc="T T T"
Y        2.27484922       1.60856191       3.94015490      -0.00000109       0.00000077       0.00000070
Y        6.82454782       4.82568385      11.82046367      -0.00000175       0.00000024      -0.00000089
W        0.00000020       0.00000016       0.00000032      -0.00000196      -0.00000588      -0.00000330
I        2.28383318       1.61491398       7.88030955      -0.00029483      -0.00020921      -0.00000028
I        6.81556416       4.81933169       7.88030951       0.00030051       0.00021188      -0.00000028
I        5.68263177       1.61491406       5.91801213       0.00014703      -0.00020800      -0.00025526
I        3.41676639       4.81933161       9.84260641      -0.00014916       0.00021113       0.00025916
I        3.41676612       4.81933165       5.91801231      -0.00014769       0.00020818      -0.00025624
I        5.68263183       1.61491421       9.84260639       0.00014893      -0.00020909       0.00025639
