9
Lattice="4.676177770228168 9.597939417291218e-08 2.699792561411654 1.5587259828281326 4.408742747888547 2.699792615229032 3.2389260913238937e-09 6.820283081456719e-08 5.399585117213307" Properties=species:S:1:pos:R:3:forces:R:3 energy=-71.93254089355469 free_energy=-71.93254089355469 stress="-2.71753960987553e-05 -8.331397083338743e-08 2.6937277297633955e-08 -8.331397083338743e-08 -2.718612267926801e-05 -1.1812355182883039e-07 2.6937277297633955e-08 -1.1812355182883039e-07 -2.72292090812698e-05" pbc="T T T"
Y        1.55872581       1.10218538       2.69979250       0.00000016      -0.00000159       0.00000140
Y        4.67617766       3.30655749       8.09937822      -0.00000161       0.00000092       0.00000326
W        0.00000022      -0.00000003       0.00000022      -0.00000420      -0.00000001       0.00000208
O        1.57006429       1.11020291       5.39958512      -0.00441380      -0.00312011       0.00000166
O        4.66483955       3.29853999       5.39958477       0.00441644       0.00312008      -0.00000224
O        3.89114559       1.11020306       4.05950785       0.00220803      -0.00312211      -0.00382404
O        2.34375803       3.29854008       6.73966228      -0.00220657       0.00312045       0.00382122
O        2.34375827       3.29853980       4.05950819      -0.00220963       0.00312782      -0.00383034
O        3.89114559       1.11020299       6.73966202       0.00221129      -0.00312503       0.00382696
