9
Lattice="6.2778424742537275 4.306375216921949e-08 3.6245139663174157 2.0926141473387916 5.918807042488699 3.6245140552524866 -9.123683937590814e-08 4.440858928536244e-08 7.2490280906616285" Properties=species:S:1:pos:R:3:forces:R:3 energy=-48.53028869628906 free_energy=-48.53028869628906 stress="-3.680913141579367e-05 2.2708857017050832e-08 -2.920824826446733e-08 2.2708857017050832e-08 -3.682893657241948e-05 4.354641802706283e-08 -2.920824826446733e-08 4.354641802706283e-08 -3.689186996780336e-05" pbc="T T T"
Y        2.09261453       1.47970148       3.62451394       0.00000096      -0.00000062      -0.00000051
Y        6.27784180       4.43910507      10.87354199      -0.00000160      -0.00000079       0.00000009
W        0.00000020       0.00000010       0.00000044      -0.00000189       0.00000049       0.00000051
Te       2.18158106       1.54261108       7.24902786      -0.00684087      -0.00483833      -0.00000112
Te       6.18887547       4.37619622       7.24902791       0.00684113       0.00483792      -0.00000128
Te       5.18705181       1.54261132       5.51381852       0.00342103      -0.00483723      -0.00592417
Te       3.18340478       4.37619608       8.98423759      -0.00342000       0.00483889       0.00592507
Te       3.18340458       4.37619616       5.51381885      -0.00341772       0.00483476      -0.00592197
Te       5.18705184       1.54261101       8.98423735       0.00341891      -0.00483505       0.00592347
