9
Lattice="6.1909866639070525 -4.923941273079622e-07 3.5743671440791562 2.063661989610537 5.836918156224072 3.574366741305014 3.9784435752237166e-08 -4.6516377677671545e-07 7.148734219249458" Properties=species:S:1:pos:R:3:forces:R:3 energy=-44.08833312988281 free_energy=-44.08833312988281 stress="-3.922544783563353e-05 -6.953760234296169e-09 -1.2053471554196449e-09 -6.953760234296169e-09 -3.92130168620497e-05 7.03325895301532e-08 -1.2053471554196449e-09 7.03325895301532e-08 -3.920141534763388e-05" pbc="T T T"
Y        2.06366075       1.45923061       3.57436637      -0.00000488       0.00000387      -0.00000083
Y        6.19098579       4.37768455      10.72310376      -0.00000498      -0.00001178       0.00000590
Zr      -0.00000047      -0.00000024       0.00000009      -0.00000124       0.00000296      -0.00000229
Cl       2.08346252       1.47323084       7.14873353      -0.00048506      -0.00033790       0.00000001
Cl       6.17118594       4.36368535       7.14873254       0.00048637       0.00033969      -0.00000540
Cl       5.14925497       1.47323284       5.37869786       0.00024924      -0.00034076      -0.00042641
Cl       3.10539684       4.36368512       8.91877006      -0.00024578       0.00034893       0.00042725
Cl       3.10539409       4.36368765       5.37869873      -0.00023958       0.00034148      -0.00042272
Cl       5.14925473       1.47323215       8.91876904       0.00024602      -0.00034666       0.00042433
