9
Lattice="5.585293464141704 1.0315072052022105e-08 3.2246707621094903 1.8617645174740578 5.26586514628076 3.224670727985187 8.180387352935038e-09 -3.600917970118904e-08 6.449341510050149" Properties=species:S:1:pos:R:3:forces:R:3 energy=-56.3637580871582 free_energy=-56.3637580871582 stress="-0.0002514887892175466 -1.68257479060685e-08 -2.414244626436357e-08 -1.68257479060685e-08 -0.00025141905643977225 2.910390151100728e-08 -2.414244626436357e-08 2.910390151100728e-08 -0.000251391320489347" pbc="T T T"
Y        1.86176427       1.31646601       3.22467109      -0.00000084      -0.00000168       0.00000028
Y        5.58529321       3.94939872       9.67401286       0.00000012       0.00000018       0.00000437
Zr       0.00000017      -0.00000005       0.00000080      -0.00000176       0.00000314      -0.00001778
S        1.97091889       1.39364982       6.44934152       0.00076529       0.00054039      -0.00000206
S        5.47613912       3.87221544       6.44934103      -0.00076407      -0.00053960      -0.00000225
S        4.59983445       1.39365016       4.93153654      -0.00038308       0.00054289       0.00066212
S        2.84722393       3.87221493       7.96714608       0.00037761      -0.00053486      -0.00065511
S        2.84722389       3.87221553       4.93153603       0.00038429      -0.00054477       0.00066563
S        4.59983412       1.39364998       7.96714609      -0.00037740       0.00053434      -0.00065500
