9
Lattice="6.9570915531668245 -6.005599851611924e-09 4.016678622599764 2.319030485773344 6.559208943693333 4.016678668129824 -3.1012976579903154e-08 3.383325674505379e-08 8.033357298915579" Properties=species:S:1:pos:R:3:forces:R:3 energy=-36.24559783935547 free_energy=-36.24559783935547 stress="0.00017794275481719524 4.594800540047572e-09 -1.3366824980209913e-08 4.594800540047572e-09 0.00017795765597838908 -1.980972941240111e-09 -1.3366824980209913e-08 -1.980972941240111e-09 0.00017794649465940893" pbc="T T T"
Y        2.31903032       1.63980216       4.01667819      -0.00000115       0.00000002       0.00000061
Y        6.95709130       4.91940680      12.05003597       0.00000043      -0.00000022      -0.00000032
Zr       0.00000001      -0.00000006       0.00000020       0.00000104       0.00000102      -0.00000090
I        2.35799032       1.66735109       8.03335744       0.00110227       0.00077966       0.00000017
I        6.91813168       4.89185796       8.03335749      -0.00110310      -0.00078040      -0.00000002
I        5.77809644       1.66735114       6.05875816      -0.00055136       0.00078022       0.00095513
I        3.49802582       4.89185796      10.00795624       0.00055149      -0.00078019      -0.00095463
I        3.49802572       4.89185800       6.05875840       0.00055183      -0.00078070       0.00095630
I        5.77809644       1.66735086      10.00795624      -0.00055134       0.00078064      -0.00095621
