9
Lattice="6.4025316132493835 -9.54066519067217e-08 3.696503529843117 2.1341772218859716 6.036364695058142 3.6965033437866244 3.468381193663685e-08 -2.0334653655076558e-07 7.393006999612111" Properties=species:S:1:pos:R:3:forces:R:3 energy=-40.46942901611328 free_energy=-40.46942901611328 stress="7.793735130690038e-05 6.017159392968097e-08 1.3597361459005697e-08 6.017159392968097e-08 7.793139957357198e-05 1.9519665883649395e-08 1.3597361459005697e-08 1.9519665883649395e-08 7.796210411470383e-05" pbc="T T T"
Y        2.13417793       1.50909082       3.69650321       0.00000398      -0.00000094      -0.00000117
Y        6.40253307       4.52727396      11.08950843       0.00000404       0.00000280      -0.00000677
Zr      -0.00000061      -0.00000045      -0.00000036       0.00000681       0.00000479       0.00000791
Br       2.15930978       1.52686300       7.39300703       0.00041938       0.00029856       0.00000166
Br       6.37739908       4.50950225       7.39300716      -0.00042897      -0.00030133       0.00000484
Br       5.32287592       1.52686245       5.56652175      -0.00021133       0.00029412       0.00036752
Br       3.21383167       4.50950213       9.21949345       0.00021392      -0.00030443      -0.00037086
Br       3.21383238       4.50950193       5.56652129       0.00020772      -0.00029668       0.00036812
Br       5.32287631       1.52686166       9.21949356      -0.00021577       0.00030300      -0.00037146
