9
Lattice="5.897569438995644 -4.385100797303633e-08 3.4049632917923587 1.9658563949006571 5.560281915922148 3.404963367000478 -7.065811497917161e-08 4.2147928528646337e-08 6.809926705968176" Properties=species:S:1:pos:R:3:forces:R:3 energy=-51.1885986328125 free_energy=-51.1885986328125 stress="-8.658994374854956e-06 -9.792469057856579e-09 -1.6296372251645153e-08 -9.792469057856579e-09 -8.582560440117959e-06 5.417149750996941e-08 -1.6296372251645153e-08 5.417149750996941e-08 -8.58656767377397e-06" pbc="T T T"
Y        1.96585641       1.39007117       3.40496366       0.00000167       0.00000454       0.00000261
Y        5.89756918       4.17021115      10.21488951      -0.00000122      -0.00000053      -0.00000284
Zr       0.00000014      -0.00000033       0.00000054      -0.00000520       0.00000835      -0.00001470
Se       2.07144870       1.46473575       6.80992645      -0.00075431      -0.00053141       0.00000019
Se       5.79197720       4.09554622       6.80992688       0.00075084       0.00052997      -0.00000062
Se       4.86184494       1.46473550       5.19889107       0.00037716      -0.00053430      -0.00065342
Se       3.00158112       4.09554605       8.42096240      -0.00037637       0.00053488       0.00065512
Se       3.00158056       4.09554627       5.19889043      -0.00037098       0.00052524      -0.00064620
Se       4.86184478       1.46473585       8.42096254       0.00037860      -0.00053674       0.00066027
