9
Lattice="5.031339767300099 -9.40439845490861e-08 2.9048449510361687 1.6771132811608596 4.7435922742664545 2.9048447534789736 -1.198865814947217e-07 -3.267297882918678e-07 5.809690109721964" Properties=species:S:1:pos:R:3:forces:R:3 energy=-57.31993865966797 free_energy=-57.31993865966797 stress="-0.00022848046501167119 1.1212442529995315e-07 4.678177489836344e-08 1.1212442529995315e-07 -0.00022821445600129664 2.79441110251355e-08 4.678177489836344e-08 2.79441110251355e-08 -0.00022829140652902424" pbc="T T T"
Y        1.67711371       1.18589441       2.90483979      -0.00000010      -0.00002424      -0.00003436
Y        5.03133567       3.55769253       8.71453254      -0.00002741      -0.00001150      -0.00002376
Zr      -0.00000037      -0.00000034      -0.00000068      -0.00000003      -0.00000333      -0.00000459
F        1.76925107       1.25104922       5.80969040       0.00340182       0.00240329       0.00001379
F        4.93920125       3.49254402       5.80969174      -0.00340915      -0.00239700       0.00001273
F        4.14671517       1.25104958       4.43706211      -0.00169107       0.00240648       0.00294733
F        2.56174230       3.49254212       7.18232046       0.00171962      -0.00240430      -0.00293088
F        2.56173930       3.49254484       4.43706250       0.00171095      -0.00238866       0.00295442
F        4.14671351       1.25105085       7.18232006      -0.00170460       0.00241929      -0.00293469
