9
Lattice="4.659208800215499 -9.027130794889144e-08 2.689995244254624 1.5530695572218887 4.392744007474402 2.689995171060458 -3.036954059124125e-08 -1.1111868136936632e-07 5.37999054111084" Properties=species:S:1:pos:R:3:forces:R:3 energy=-71.78974914550781 free_energy=-71.78974914550781 stress="-5.214815973886289e-05 -3.53160487520654e-08 3.0634119241312874e-08 -3.53160487520654e-08 -5.1841190725099295e-05 7.238128318931558e-08 3.0634119241312874e-08 7.238128318931558e-08 -5.20610083185602e-05" pbc="T T T"
Y        1.55306944       1.09818572       2.68999518       0.00000115       0.00000079      -0.00000033
Y        4.65920874       3.29455812       8.06998579       0.00000071       0.00000164       0.00000154
Zr       0.00000000      -0.00000001      -0.00000012      -0.00000185       0.00000218      -0.00000841
O        1.64747638       1.16494139       5.37999049      -0.00050181      -0.00035554      -0.00000069
O        4.56480231       3.22780232       5.37999057       0.00049829       0.00035524       0.00000128
O        3.83547076       1.16494142       4.11675167       0.00025088      -0.00035548      -0.00043583
O        2.37680756       3.22780248       6.64322937      -0.00025049       0.00035685       0.00043380
O        2.37680742       3.22780231       4.11675142      -0.00025037       0.00035197      -0.00043154
O        3.83547075       1.16494145       6.64322934       0.00025359      -0.00035799       0.00043958
