9
Lattice="6.484144239785568 7.27634549867521e-08 3.7436225434714054 2.1613815237986413 6.113309659152069 3.74362247083842 8.201090890020832e-08 -3.09665260660846e-08 7.487244944895774" Properties=species:S:1:pos:R:3:forces:R:3 energy=-19.101213455200195 free_energy=-19.101213455200195 stress="-0.00024777560611255467 9.540521261897084e-09 8.14580491947936e-09 9.540521261897084e-09 -0.00024777898215688765 -1.6713114447952648e-08 8.14580491947936e-09 -1.6713114447952648e-08 -0.0002477700763847679" pbc="T T T"
Zn       2.16138133       1.52832635       3.74362260      -0.00000003      -0.00000020       0.00000009
Zn       6.48414489       4.58498320      11.23086913       0.00000012       0.00000009       0.00000038
As      -0.00000041      -0.00000004      -0.00000028       0.00000274      -0.00000106      -0.00000022
Br       2.12884246       1.50531922       7.48724464       0.00488816       0.00345536      -0.00000001
Br       6.51668350       4.60799069       7.48724484      -0.00488952      -0.00345686      -0.00000004
Br       5.41972322       1.50531893       5.58725368      -0.00244530       0.00345778       0.00423533
Br       3.22580251       4.60799082       9.38723570       0.00244477      -0.00345632      -0.00423397
Br       3.22580276       4.60799081       5.58725383       0.00244360      -0.00345542       0.00423224
Br       5.41972310       1.50531886       9.38723576      -0.00244457       0.00345667      -0.00423397
