9
Lattice="6.180706074414522 -2.641164460912192e-07 3.568432247293838 2.060235144522527 5.8272252703649885 3.5684321859866586 -2.2016966608877482e-07 -2.3076916531895588e-07 7.136864875932719" Properties=species:S:1:pos:R:3:forces:R:3 energy=-21.590784072875977 free_energy=-21.590784072875977 stress="3.828150875051506e-05 -2.0739401307423577e-08 -1.0269429751019743e-10 -2.0739401307423577e-08 3.826283136731945e-05 -9.026135394663015e-09 -1.0269429751019743e-10 -9.026135394663015e-09 3.831791764241643e-05" pbc="T T T"
Zn       2.06023721       1.45680464       3.56843384       0.00000220      -0.00000158       0.00000123
Zn       6.18070635       4.37042075      10.70529443       0.00000111       0.00000248      -0.00000234
As      -0.00000087       0.00000010       0.00000044       0.00000135      -0.00000004      -0.00000180
Cl       1.96992883       1.39295018       7.13686471       0.00207123       0.00146425      -0.00000028
Cl       6.27101159       4.43427492       7.13686498      -0.00207430      -0.00146765      -0.00000002
Cl       5.19574035       1.39294973       5.27444106      -0.00103572       0.00146493       0.00179505
Cl       3.04519978       4.43427442       8.99928803       0.00103413      -0.00146288      -0.00179163
Cl       3.04519972       4.43427446       5.27444177       0.00103462      -0.00146294       0.00179228
Cl       5.19574092       1.39294986       8.99928782      -0.00103462       0.00146332      -0.00179246
