9
Lattice="6.852522410364064 5.109021960110874e-09 3.9563056110021915 2.2841741501597848 6.460620100129989 3.9563055961846714 -1.5979648447469442e-08 -2.944700663414724e-08 7.912611249681951" Properties=species:S:1:pos:R:3:forces:R:3 energy=-16.520957946777344 free_energy=-16.520957946777344 stress="-0.00017851445591077209 9.898651676110148e-09 8.663635364669631e-10 9.898651676110148e-09 -0.00017852571909315884 -2.299204604483407e-09 8.663635364669631e-10 -2.299204604483407e-09 -0.0001785197964636609" pbc="T T T"
Zn       2.28417415       1.61515502       3.95630562      -0.00000001      -0.00000008       0.00000003
Zn       6.85252238       4.84546508      11.86891686       0.00000010       0.00000014      -0.00000005
As      -0.00000006       0.00000014      -0.00000015      -0.00000017      -0.00000023      -0.00000059
I        2.31358834       1.63595417       7.91261127       0.00145875       0.00103138      -0.00000049
I        6.82310787       4.82466600       7.91261121      -0.00145864      -0.00103141       0.00000047
I        5.69572830       1.63595394       5.95993163      -0.00073043       0.00103204       0.00126381
I        3.44096837       4.82466605       9.86529044       0.00073027      -0.00103184      -0.00126353
I        3.44096850       4.82466594       5.95993225       0.00072972      -0.00103210       0.00126375
I        5.69572835       1.63595396       9.86529066      -0.00072952       0.00103216      -0.00126341
