9
Lattice="6.614684350400609 1.2311905638574259e-07 3.8189899206568474 2.2048949150144566 6.236384345833714 3.818989893862382 1.0064151691584657e-07 3.834797877698424e-08 7.637979666997466" Properties=species:S:1:pos:R:3:forces:R:3 energy=-15.915587425231934 free_energy=-15.915587425231934 stress="0.00019229113240726292 -3.5969713874095532e-09 7.873915963685363e-10 -3.5969713874095532e-09 0.00019230198813602328 -3.7213949699577142e-09 7.873915963685363e-10 -3.7213949699577142e-09 0.0001922998490044847" pbc="T T T"
Zn       2.20489476       1.55909609       3.81898975      -0.00000015      -0.00000019      -0.00000004
Zn       6.61468446       4.67728832      11.45696967      -0.00000026      -0.00000014      -0.00000019
B       -0.00000031       0.00000009      -0.00000016       0.00000066       0.00000033       0.00000016
I        2.01872416       1.42745358       7.63797966      -0.00653824      -0.00462309       0.00000008
I        6.80085529       4.80893091       7.63797984       0.00653811       0.00462383      -0.00000001
I        5.60532242       1.42745377       5.56725663       0.00326946      -0.00462383      -0.00566328
I        3.21425713       4.80893090       9.70870310      -0.00326899       0.00462328       0.00566188
I        3.21425701       4.80893098       5.56725617      -0.00326932       0.00462370      -0.00566179
I        5.60532260       1.42745338       9.70870327       0.00326884      -0.00462374       0.00566317
