9
Lattice="6.518328543316052 -1.1567273243538033e-07 3.7633585973231884 2.172776138813979 6.145538615245612 3.7633584816811774 2.4997341839456374e-07 3.512598666099121e-08 7.526716761679749" Properties=species:S:1:pos:R:3:forces:R:3 energy=-19.497970581054688 free_energy=-19.497970581054688 stress="5.109147241455503e-05 -4.40528058476275e-09 1.3197371195872165e-08 -4.40528058476275e-09 5.110470374347642e-05 3.880813892465085e-09 1.3197371195872165e-08 3.880813892465085e-09 5.10765821672976e-05" pbc="T T T"
Zn       2.17277556       1.53638501       3.76335823      -0.00000003      -0.00000008       0.00000004
Zn       6.51832868       4.60915322      11.29007669      -0.00000003       0.00000014      -0.00000008
B        0.00000173       0.00000122      -0.00000251       0.00000111       0.00000068      -0.00000113
Br       1.83624051       1.29841765       7.52671711      -0.00249522      -0.00176404      -0.00000024
Br       6.85486392       4.84712043       7.52671703       0.00249482       0.00176534       0.00000104
Br       5.60020863       1.29841782       5.35358933       0.00124694      -0.00176585      -0.00216037
Br       3.09089620       4.84712097       9.69984527      -0.00124694       0.00176406       0.00215908
Br       3.09089606       4.84712023       5.35358928      -0.00124834       0.00176432      -0.00215925
Br       5.60020856       1.29841753       9.69984515       0.00124762      -0.00176453       0.00216093
