9
Lattice="4.189621245585942 -4.5732558579588006e-08 2.4188789447859658 1.3965403777753167 3.950012729312127 2.418878934918331 -2.9005905944401606e-08 -3.25956102208377e-08 4.837757939811623" Properties=species:S:1:pos:R:3:forces:R:3 energy=-36.97445297241211 free_energy=-36.97445297241211 stress="0.0001613512431504205 9.343160911612358e-09 1.7971389931759063e-09 9.343160911612358e-09 0.0001612895866855979 -7.1047767669085715e-09 1.7971389931759063e-09 -7.1047767669085715e-09 0.00016140416846610606" pbc="T T T"
Zn       1.39654035       0.98750329       2.41887891      -0.00000039      -0.00000010       0.00000035
Zn       4.18962117       2.96250940       7.25663687       0.00000048      -0.00000012       0.00000015
B        0.00000009      -0.00000009       0.00000016      -0.00000128       0.00000086      -0.00000257
F        1.26862113       0.89705056       4.83775792      -0.00605229      -0.00427728       0.00000002
F        4.31754062       3.05296215       4.83775808       0.00604669       0.00427703      -0.00000008
F        3.55531054       0.89705048       3.51753732       0.00302607      -0.00427771      -0.00524218
F        2.03085098       3.05296205       6.15797838      -0.00302371       0.00427721       0.00523981
F        2.03085091       3.05296211       3.51753716      -0.00302279       0.00427762      -0.00523893
F        3.55531060       0.89705070       6.15797854       0.00302728      -0.00427719       0.00524332
