9
Lattice="6.170872603528706 1.8045108431066123e-08 3.56275522774899 2.0569576003737455 5.817954588558045 3.5627551431362807 5.580254968354842e-08 -6.417049347455702e-08 7.125510358845168" Properties=species:S:1:pos:R:3:forces:R:3 energy=-22.287317276000977 free_energy=-22.287317276000977 stress="-3.1078889151103795e-06 2.5807300740865458e-09 -8.037122967152754e-09 2.5807300740865458e-09 -3.139287173326011e-06 2.566260803860132e-08 -8.037122967152754e-09 2.566260803860132e-08 -3.0623368729720823e-06" pbc="T T T"
Zn       2.05695995       1.45448987       3.56275316       0.00000116      -0.00000016      -0.00000189
Zn       6.17087361       4.36346527      10.68826114       0.00000026      -0.00000035      -0.00000369
B       -0.00000129      -0.00000003      -0.00001275      -0.00000820      -0.00000325      -0.00010655
Cl       1.69582652       1.19913043       7.12551235       0.00017330       0.00012702       0.00000658
Cl       6.53200344       4.61882407       7.12551316      -0.00016987      -0.00012463       0.00000989
Cl       5.32295764       1.19913168       5.03138767      -0.00009337       0.00013575       0.00017190
Cl       2.90486896       4.61882561       9.21963991       0.00007975      -0.00011212      -0.00012466
Cl       2.90487257       4.61882356       5.03138809       0.00009397      -0.00013691       0.00017348
Cl       5.32295961       1.19912768       9.21963986      -0.00007688       0.00011447      -0.00012445
