9
Lattice="4.751336806755906 5.984842451752977e-08 2.7431855384830035 1.5837790455420546 4.479602851595787 2.7431854457645146 2.5715180170287e-08 -9.537328530192019e-08 5.4863710324262" Properties=species:S:1:pos:R:3:forces:R:3 energy=-32.64198303222656 free_energy=-32.64198303222656 stress="-8.823407551972196e-05 -2.4529867914679926e-08 -1.244058012161986e-08 -2.4529867914679926e-08 -8.83130487636663e-05 -2.9898043152343234e-08 -1.244058012161986e-08 -2.9898043152343234e-08 -8.825604163575917e-05" pbc="T T T"
Zn       1.58377878       1.11990068       2.74318502       0.00000055      -0.00000032      -0.00000204
Zn       4.75133704       3.35970256       8.22955722       0.00000133       0.00000264       0.00000311
Ga       0.00000018       0.00000010      -0.00000017       0.00000112      -0.00000126      -0.00000657
F        1.54416721       1.09189038       5.48637150       0.00334537       0.00236280       0.00000215
F        4.79094859       3.38771265       5.48637083      -0.00334595      -0.00236426      -0.00000273
F        3.97925333       1.09189066       4.08047302      -0.00167100       0.00236598       0.00289825
F        2.35586224       3.38771187       6.89226874       0.00166691      -0.00236203      -0.00289296
F        2.35586239       3.38771148       4.08047284       0.00167041      -0.00236455       0.00289503
F        3.97925354       1.09189094       6.89226885      -0.00166872       0.00236091      -0.00289398
