9
Lattice="6.083279416642692 1.1388157695618132e-07 3.5121831728713113 2.027759936841499 5.735371107318045 3.5121831314314025 5.5051455211536206e-08 -1.1826080364997575e-08 7.024366250390782" Properties=species:S:1:pos:R:3:forces:R:3 energy=-21.162981033325195 free_energy=-21.162981033325195 stress="-6.652616139035672e-05 1.9414542862250528e-08 3.53497542349146e-09 1.9414542862250528e-08 -6.652244337601587e-05 -2.741935567485143e-09 3.53497542349146e-09 -2.741935567485143e-09 -6.653337186435238e-05" pbc="T T T"
Zn       2.02775939       1.43384359       3.51218295      -0.00000139       0.00000136      -0.00000027
Zn       6.08327906       4.30152608      10.53654946      -0.00000059      -0.00000329       0.00000037
Ga      -0.00000006       0.00000038       0.00000022       0.00000137      -0.00000583      -0.00000082
Cl       1.93171941       1.36593257       7.02436618       0.00232679       0.00164515      -0.00000047
Cl       6.17931997       4.36943965       7.02436612      -0.00232452      -0.00164595       0.00000043
Cl       5.11742009       1.36593178       5.18510116      -0.00116551       0.00164923       0.00201878
Cl       2.99361993       4.36943931       8.86363133       0.00116348      -0.00164390      -0.00201276
Cl       2.99361982       4.36943924       5.18510130       0.00116360      -0.00164464       0.00201282
Cl       5.11742003       1.36593227       8.86363149      -0.00116318       0.00164780      -0.00201818
