9
Lattice="6.613222214592782 -2.7469517180961408e-08 3.8181456090152928 2.204407377448705 6.235005689930222 3.8181456116428802 -2.323091404509851e-08 -1.320859494047482e-08 7.636291258267729" Properties=species:S:1:pos:R:3:forces:R:3 energy=-20.667593002319336 free_energy=-20.667593002319336 stress="0.00016288798360619694 2.1702100116982592e-09 8.272810214648985e-10 2.1702100116982592e-09 0.0001628794998396188 -2.7420239412379033e-09 8.272810214648985e-10 -2.7420239412379033e-09 0.00016288003826048225" pbc="T T T"
Zn       2.20440744       1.55875147       3.81814563      -0.00000001       0.00000007      -0.00000001
Zn       6.61322218       4.67625428      11.45443690      -0.00000002       0.00000007       0.00000027
Ir       0.00000002       0.00000003      -0.00000014      -0.00000107      -0.00000080       0.00000072
I        2.18829930       1.54736117       7.63629123      -0.00127612      -0.00090231       0.00000006
I        6.62933039       4.68764433       7.63629122       0.00127734       0.00090311      -0.00000025
I        5.51907245       1.54736130       5.71326847       0.00063843      -0.00090263      -0.00110578
I        3.29855694       4.68764449       9.55931416      -0.00063830       0.00090240       0.00110543
I        3.29855706       4.68764438       5.71326841      -0.00063797       0.00090259      -0.00110571
I        5.51907250       1.54736115       9.55931402       0.00063775      -0.00090251       0.00110523
