9
Lattice="6.167784578148677 6.304565594696617e-08 3.5609720027821408 2.0559282821796354 5.8150428104346785 3.5609719507800386 1.5517713473188493e-07 4.6037483740334446e-08 7.121943736789578" Properties=species:S:1:pos:R:3:forces:R:3 energy=-25.62868309020996 free_energy=-25.62868309020996 stress="0.00018589057435747236 8.748289204163484e-09 -1.1701171143130296e-09 8.748289204163484e-09 0.0001858875184552744 -1.1424473811416647e-08 -1.1701171143130296e-09 -1.1424473811416647e-08 0.00018586788792163134" pbc="T T T"
Zn       2.05592804       1.45376100       3.56097197      -0.00000022       0.00000063       0.00000036
Zn       6.16778572       4.36128270      10.68291507       0.00000122       0.00000043      -0.00000147
Ir       0.00000008      -0.00000019       0.00000003      -0.00000122      -0.00000199       0.00000197
Cl       1.90608878       1.34780880       7.12194364      -0.00098267      -0.00069591       0.00000051
Cl       6.31762383       4.46723414       7.12194436       0.00098470       0.00069574      -0.00000057
Cl       5.21473990       1.34780805       5.21169364       0.00049175      -0.00069460      -0.00085104
Cl       3.00897287       4.46723423       9.03219417      -0.00049198       0.00069538       0.00085172
Cl       3.00897285       4.46723437       5.21169354      -0.00049211       0.00069609      -0.00085244
Cl       5.21474005       1.34780856       9.03219441       0.00049056      -0.00069574       0.00085112
