9
Lattice="5.377015073850747 -3.414045597966866e-07 3.104420426403799 1.792338185917972 5.069496896707413 3.1044201668610563 -4.063914500729274e-08 -3.466098274920136e-07 6.208840923196641" Properties=species:S:1:pos:R:3:forces:R:3 energy=-34.047691345214844 free_energy=-34.047691345214844 stress="-9.14977954380447e-06 2.24443152951892e-09 -1.1022729395904207e-08 2.24443152951892e-09 -9.157832209893968e-06 -7.003726931742449e-09 -1.1022729395904207e-08 -7.003726931742449e-09 -9.1773426902364e-06" pbc="T T T"
Zn       1.79233971       1.26737336       3.10442088       0.00000175      -0.00000029      -0.00000027
Zn       5.37701461       3.80212349       9.31325957      -0.00000066       0.00000052      -0.00000120
Ir       0.00000017       0.00000011       0.00000001      -0.00001438      -0.00000759       0.00000380
F        1.60249236       1.13313194       6.20884135       0.00028266       0.00019974      -0.00000009
F        5.56686048       3.93636401       6.20884098      -0.00027218      -0.00019245      -0.00000092
F        4.57576801       1.13313226       4.49221913      -0.00013769       0.00019588       0.00024061
F        2.59358489       3.93636347       7.92546258       0.00013924      -0.00019619      -0.00024186
F        2.59358364       3.93636354       4.49221880       0.00013892      -0.00019564       0.00024070
F        4.57576866       1.13313253       7.92546264      -0.00013746       0.00019588      -0.00024083
