9
Lattice="5.64987176248315 -6.499714074977097e-08 3.2619544177612934 1.8832905278321161 5.326750795137546 3.2619544149594035 -2.4482851604511315e-07 -1.765516211676398e-07 6.523909259577991" Properties=species:S:1:pos:R:3:forces:R:3 energy=-37.13424301147461 free_energy=-37.13424301147461 stress="-0.00012952316319569945 5.613416842464858e-09 -4.953928933737473e-10 5.613416842464858e-09 -0.00012945127673447132 -3.532655412641361e-08 -4.953928933737473e-10 -3.532655412641361e-08 -0.00012955906277056783" pbc="T T T"
Zn       1.88329625       1.33169403       3.26195728       0.00000217       0.00000146       0.00000206
Zn       5.64986914       3.99505531       9.78585992      -0.00000075      -0.00000238      -0.00000035
Mo      -0.00000003      -0.00000007       0.00000097      -0.00000787       0.00000590       0.00000161
F        1.60449325       1.13454913       6.52390783       0.00555176       0.00392398       0.00000386
F        5.92866834       4.19220099       6.52390876      -0.00554982      -0.00392231       0.00000172
F        4.84762333       1.13455032       4.65148586      -0.00277121       0.00391872       0.00480863
F        2.68553614       4.19220303       8.39633177       0.00277922      -0.00393082      -0.00481540
F        2.68553757       4.19219817       4.65148488       0.00277367      -0.00391982       0.00480717
F        4.84762432       1.13455128       8.39633504      -0.00277728       0.00392509      -0.00480950
