9
Lattice="6.4147051655732215 -8.250225616526442e-08 3.7035320267089142 2.138235041796084 6.047841689104237 3.7035319151840147 -4.5433143674028205e-08 -1.6871562634224555e-07 7.407064132110432" Properties=species:S:1:pos:R:3:forces:R:3 energy=-29.251712799072266 free_energy=-29.251712799072266 stress="-9.401038551004604e-05 8.518151517478145e-09 1.8615621044659747e-08 8.518151517478145e-09 -9.404667798662558e-05 -2.8099290005911826e-08 1.8615621044659747e-08 -2.8099290005911826e-08 -9.40272948355414e-05" pbc="T T T"
Zn       2.13823729       1.51195942       3.70353054       0.00000011      -0.00000001      -0.00000005
Zn       6.41470557       4.53588150      11.11059454       0.00000013      -0.00000003      -0.00000020
Mo      -0.00000027       0.00000025       0.00000040      -0.00000376      -0.00000275       0.00000508
Cl       1.92775915       1.36313145       7.40706438       0.00095689       0.00067826       0.00000004
Cl       6.62518051       4.68470963       7.40706491      -0.00095630      -0.00067556      -0.00000041
Cl       5.45082454       1.36313132       5.37302121      -0.00047815       0.00067857       0.00082923
Cl       3.10211431       4.68471059       9.44110783       0.00048113      -0.00067998      -0.00083266
Cl       3.10211461       4.68470985       5.37302091       0.00047809      -0.00067581       0.00082786
Cl       5.45082479       1.36313167       9.44110784      -0.00047821       0.00067736      -0.00082891
