9
Lattice="6.831633452438405 -1.3607804276696382e-08 3.944245413953512 2.2772111685014513 6.440925648909325 3.9442453610944703 5.7520546993020204e-08 -2.4065671377899428e-08 7.888490728278508" Properties=species:S:1:pos:R:3:forces:R:3 energy=-22.733924865722656 free_energy=-22.733924865722656 stress="-7.316547998925671e-05 3.7132585894994463e-09 -4.3622661038966726e-09 3.7132585894994463e-09 -7.317597192013636e-05 6.758325898914563e-09 -4.3622661038966726e-09 6.758325898914563e-09 -7.315611583180726e-05" pbc="T T T"
Zn       2.27721117       1.61023143       3.94424539       0.00000002      -0.00000009       0.00000002
Zn       6.83163349       4.83069419      11.83273610       0.00000008       0.00000026      -0.00000017
Mo       0.00000013      -0.00000020      -0.00000000      -0.00000144       0.00000112       0.00000067
I        2.26181245       1.59934261       7.88849074       0.00162622       0.00115041      -0.00000030
I        6.84703230       4.84158271       7.88849075      -0.00162581      -0.00114954       0.00000013
I        5.70072735       1.59934297       5.90303255      -0.00081290       0.00114952       0.00140722
I        3.40811720       4.84158292       9.87394948       0.00081319      -0.00115016      -0.00140852
I        3.40811709       4.84158300       5.90303207       0.00081338      -0.00115126       0.00140890
I        5.70072748       1.59934281       9.87394897      -0.00081280       0.00114959      -0.00140785
