9
Lattice="6.5235381546104305 -1.1844699689886701e-07 3.7663664390403415 2.1745126515884343 6.150450188097248 3.7663663609978735 1.3909392224786982e-07 2.7721550991367975e-09 7.532732637162935" Properties=species:S:1:pos:R:3:forces:R:3 energy=-25.930213928222656 free_energy=-25.930213928222656 stress="-5.443860572995618e-05 1.009187489131591e-08 6.72880640095741e-09 1.009187489131591e-08 -5.4448391892947257e-05 -1.2626269807469725e-08 6.72880640095741e-09 -1.2626269807469725e-08 -5.447087460197508e-05" pbc="T T T"
Zn       2.17451344       1.53761227       3.76636639       0.00000006       0.00000017       0.00000008
Zn       6.52353914       4.61283750      11.29909965       0.00000003       0.00000001       0.00000003
Mo      -0.00000026       0.00000008      -0.00000018      -0.00000009      -0.00000211       0.00000143
Br       2.06564868       1.46063439       7.53273250       0.00075960       0.00053737       0.00000021
Br       6.63240169       4.68981573       7.53273261      -0.00075778      -0.00053561       0.00000028
Br       5.49071367       1.46063434       5.55527068      -0.00038066       0.00053759       0.00065933
Br       3.20733689       4.68981585       9.51019481       0.00038031      -0.00053860      -0.00065979
Br       3.20733688       4.68981587       5.55527056       0.00037907      -0.00053636       0.00065736
Br       5.49071367       1.46063429       9.51019481      -0.00038040       0.00053754      -0.00065896
