9
Lattice="5.7937095958955975 -2.097551165544725e-08 3.3449999926128693 1.9312364892180391 5.462361976211972 3.345000032400292 -1.4070003571767207e-07 -5.0760532415355354e-08 6.690000228925346" Properties=species:S:1:pos:R:3:forces:R:3 energy=-17.83757209777832 free_energy=-17.83757209777832 stress="-3.497068246360868e-05 -2.925273534515327e-08 7.053071726659255e-08 -2.925273534515327e-08 -3.495322380331345e-05 3.5526262820440024e-08 7.053071726659255e-08 3.5526262820440024e-08 -3.505248241708614e-05" pbc="T T T"
Zn       1.93123569       1.36559134       3.34500139      -0.00000259       0.00000131       0.00000723
Zn       5.79370675       4.09677023      10.03500534      -0.00000925      -0.00000371       0.00001975
N       -0.00000079      -0.00000154       0.00000416       0.00000004      -0.00000063       0.00000207
Cl       1.79779920       1.27123600       6.68999936       0.00056045       0.00039677      -0.00000670
Cl       5.92714857       4.19112695       6.68999799      -0.00055731      -0.00039600      -0.00000631
Cl       4.89481114       1.27123538       4.90193747      -0.00027948       0.00039944       0.00047897
Cl       2.83013649       4.19112587       8.47805941       0.00028086      -0.00039438      -0.00049048
Cl       2.83013628       4.19112709       4.90193705       0.00028331      -0.00039722       0.00048134
Cl       4.89481033       1.27123630       8.47805896      -0.00027580       0.00039452      -0.00048608
