9
Lattice="4.304552583519807 -3.0148532808785655e-08 2.4852345102563023 1.4348508193993061 4.058371106388762 2.485234533378662 2.7643964055730884e-08 4.786622307100958e-08 4.970468972631847" Properties=species:S:1:pos:R:3:forces:R:3 energy=-27.919410705566406 free_energy=-27.919410705566406 stress="-0.00022504663502331823 -4.7568619265803136e-08 4.862405589278751e-08 -4.7568619265803136e-08 -0.00022473765420727432 -2.9935090850585766e-08 4.862405589278751e-08 -2.9935090850585766e-08 -0.00022479379549622536" pbc="T T T"
Zn       1.43485081       1.01459300       2.48523410      -0.00000023       0.00000018       0.00000048
Zn       4.30455297       3.04377778       7.45570376       0.00000046      -0.00000166       0.00000030
N       -0.00000021      -0.00000002      -0.00000043       0.00000686       0.00000080      -0.00000203
F        1.40942405       0.99661428       4.97046916       0.00360096       0.00254694      -0.00000022
F        4.32997973       3.06175638       4.97046901      -0.00360319      -0.00254223       0.00000187
F        3.59983987       0.99661440       3.70583164      -0.00180298       0.00253814       0.00311512
F        2.13956276       3.06175783       6.23510653       0.00180274      -0.00254318      -0.00311857
F        2.13956362       3.06175749       3.70583226       0.00179724      -0.00253722       0.00311616
F        3.59984034       0.99661380       6.23510602      -0.00180189       0.00253773      -0.00311407
