9
Lattice="6.447074604656233 -4.080627169880277e-08 3.7222203408895878 2.149024883090719 6.078360120482902 3.722220248494222 1.0960811398332998e-07 -3.565615475975158e-08 7.44444049193242" Properties=species:S:1:pos:R:3:forces:R:3 energy=-18.668163299560547 free_energy=-18.668163299560547 stress="-4.0670245653018355e-05 -3.943840809483845e-09 -7.3301573699779965e-09 -3.943840809483845e-09 -4.065855682711117e-05 3.6598271080379163e-09 -7.3301573699779965e-09 3.6598271080379163e-09 -4.065222310600802e-05" pbc="T T T"
Zn       2.14902437       1.51958988       3.72222017       0.00000010       0.00000008       0.00000002
Zn       6.44707461       4.55877057      11.16666103       0.00000004      -0.00000014      -0.00000005
P       -0.00000001      -0.00000025       0.00000020       0.00000005       0.00000006      -0.00000099
Br       2.02212283       1.42985656       7.44444052      -0.00087285      -0.00061750       0.00000022
Br       6.57397718       4.64850356       7.44444052       0.00087270       0.00061710       0.00000016
Br       5.43601346       1.42985655       5.47342988       0.00043669      -0.00061737      -0.00075585
Br       3.16008636       4.64850331       9.41545124      -0.00043647       0.00061750       0.00075653
Br       3.16008619       4.64850350       5.47342968      -0.00043671       0.00061728      -0.00075603
Br       5.43601347       1.42985655       9.41545111       0.00043646      -0.00061719       0.00075582
