9
Lattice="6.489582966637902 7.794683800214945e-08 3.746762620832693 2.1631943879223687 6.118437316491403 3.7467626343068683 -4.683601854421846e-08 -1.6615762338726158e-08 7.49352532278799" Properties=species:S:1:pos:R:3:forces:R:3 energy=-22.127182006835938 free_energy=-22.127182006835938 stress="-5.963367129879771e-06 3.7204049618821955e-08 6.193493273798367e-09 3.7204049618821955e-08 -6.035773822077317e-06 -6.36488595162632e-09 6.193493273798367e-09 -6.36488595162632e-09 -6.059869065211387e-06" pbc="T T T"
Zn       2.16319427       1.52960883       3.74676264      -0.00000005       0.00000032       0.00000038
Zn       6.48958247       4.58882826      11.24028538       0.00000033       0.00000003       0.00000146
P        0.00000009      -0.00000002      -0.00000004      -0.00000334      -0.00000028       0.00000408
Cl       1.79681944       1.27054301       7.49352614      -0.00040740      -0.00028703      -0.00000464
Cl       6.85595768       4.84789440       7.49352664       0.00041199       0.00028914      -0.00000444
Cl       5.59117400       1.27054252       5.30285352       0.00019804      -0.00027984      -0.00034669
Cl       3.06160431       4.84789368       9.68419729      -0.00020605       0.00028837       0.00034803
Cl       3.06160396       4.84789516       5.30285354      -0.00019912       0.00027934      -0.00034723
Cl       5.59117292       1.27054367       9.68419708       0.00020562      -0.00028983       0.00034890
