9
Lattice="6.7224345249905815 6.310037557184373e-09 3.8811993608925617 2.240811499049156 6.33797204570504 3.8811993872721207 -1.0461456505757349e-09 3.156846101753772e-08 7.76239872359714" Properties=species:S:1:pos:R:3:forces:R:3 energy=-16.26137351989746 free_energy=-16.26137351989746 stress="-1.0943874258373398e-05 2.6522919416294144e-09 -6.803624330586899e-10 2.6522919416294144e-09 -1.0948393537546508e-05 7.67007701796274e-09 -6.803624330586899e-10 7.67007701796274e-09 -1.0949351235467475e-05" pbc="T T T"
Zn       2.24081144       1.58449301       3.88119931      -0.00000022       0.00000011      -0.00000001
Zn       6.72243462       4.75347909      11.64359815       0.00000005      -0.00000002       0.00000017
P       -0.00000019      -0.00000004      -0.00000023       0.00000009      -0.00000002      -0.00000023
I        2.26701635       1.60302265       7.76239868       0.00228998       0.00161938       0.00000024
I        6.69622972       4.73494953       7.76239873      -0.00229052      -0.00161996      -0.00000004
I        5.58892637       1.60302261       5.84449327      -0.00114503       0.00162016       0.00198308
I        3.37431972       4.73494953       9.68030437       0.00114526      -0.00161984      -0.00198317
I        3.37431963       4.73494944       5.84449317       0.00114559      -0.00162001       0.00198345
I        5.58892644       1.60302250       9.68030443      -0.00114518       0.00162023      -0.00198352
