9
Lattice="4.5787959698815435 -8.994543717611914e-08 2.6435693208886075 1.526265235987003 4.316930158015221 2.6435693252282118 -1.9751182122931315e-08 -8.651302107747489e-09 5.287138675987277" Properties=species:S:1:pos:R:3:forces:R:3 energy=-34.63420867919922 free_energy=-34.63420867919922 stress="1.0719718375185039e-05 -3.688412064661861e-08 9.558520197572307e-09 -3.688412064661861e-08 1.0790671694849152e-05 -2.37779360645618e-08 9.558520197572307e-09 -2.37779360645618e-08 1.0720858881541062e-05" pbc="T T T"
Zn       1.52626479       1.07923199       2.64356938       0.00000081       0.00000043       0.00000042
Zn       4.57879638       3.23769821       7.93070801      -0.00000177      -0.00000148      -0.00000073
P       -0.00000010      -0.00000011       0.00000007       0.00000076       0.00000174       0.00000052
F        1.31736999       0.93152139       5.28713860      -0.00457302      -0.00323504       0.00000016
F        4.78769127       3.38540877       5.28713863       0.00457126       0.00323269       0.00000046
F        3.92011088       0.93152121       3.78444531       0.00228758      -0.00323436      -0.00396281
F        2.18495022       3.38540872       6.78983201      -0.00228639       0.00323424       0.00396082
F        2.18495027       3.38540874       3.78444531      -0.00228772       0.00323701      -0.00396314
F        3.92011082       0.93152126       6.78983180       0.00228836      -0.00323507       0.00396428
