9
Lattice="6.228057152857297 -8.963012791276792e-08 3.5957705276863847 2.0760189967483513 5.871868730785481 3.5957704752051423 -4.2699086467471453e-08 -9.446894906533452e-08 7.191541129329731" Properties=species:S:1:pos:R:3:forces:R:3 energy=-26.077606201171875 free_energy=-26.077606201171875 stress="-7.451056717400206e-06 1.1555410850405679e-08 7.121820910782617e-09 1.1555410850405679e-08 -7.457639640051639e-06 -2.72747668894624e-09 7.121820910782617e-09 -2.72747668894624e-09 -7.481054126401432e-06" pbc="T T T"
Zn       2.07601986       1.46796645       3.59576906       0.00000067      -0.00000013      -0.00000101
Zn       6.22805629       4.40390211      10.78731106      -0.00000052       0.00000022      -0.00000055
Ru       0.00000023       0.00000002       0.00000043      -0.00000251      -0.00000014       0.00000123
Cl       1.90865566       1.34962302       7.19154150      -0.00168663      -0.00119239       0.00000003
Cl       6.39542030       4.52224535       7.19154143       0.00168857       0.00119346       0.00000062
Cl       5.27372934       1.34962325       5.24871484       0.00084284      -0.00119233      -0.00145924
Cl       3.03034691       4.52224525       9.13436749      -0.00084253       0.00119108       0.00145867
Cl       3.03034692       4.52224549       5.24871511      -0.00084369       0.00119239      -0.00145981
Cl       5.27372899       1.34962317       9.13436766       0.00084363      -0.00119221       0.00146031
