9
Lattice="6.070331759128728 2.368802433159895e-08 3.5047078968818406 2.0234439946887814 5.723163326640984 3.50470780569639 1.1124457171373092e-07 -3.301714719441885e-08 7.009415601082488" Properties=species:S:1:pos:R:3:forces:R:3 energy=-24.418228149414062 free_energy=-24.418228149414062 stress="-9.38096854952164e-05 -1.4097119027667304e-08 -1.3629128936543111e-08 -1.4097119027667304e-08 -9.379668335895985e-05 -8.194278144912914e-09 -1.3629128936543111e-08 -8.194278144912914e-09 -9.378621325595304e-05" pbc="T T T"
Zn       2.02344455       1.43079185       3.50470825       0.00000089       0.00000211      -0.00000012
Zn       6.07033125       4.29237211      10.51411997      -0.00000129       0.00000017      -0.00000697
Rh       0.00000012      -0.00000008       0.00000054       0.00000002       0.00000176      -0.00000792
Cl       1.91134106       1.35152151       7.00941584       0.00311396       0.00220148      -0.00000016
Cl       6.18243481       4.37164154       7.00941673      -0.00311545      -0.00220257       0.00000226
Cl       5.11466148       1.35152165       5.15997774      -0.00155728       0.00220263       0.00269786
Cl       2.97911462       4.37164095       8.85885446       0.00155582      -0.00220102      -0.00269288
Cl       2.97911379       4.37164115       5.15997760       0.00155772      -0.00220457       0.00269908
Cl       5.11466179       1.35152257       8.85885401      -0.00155428       0.00219972      -0.00269103
