9
Lattice="6.331226117919774 -7.644011985837336e-08 3.6553350658494512 2.1104086850741757 5.969136994657818 3.655334977221524 1.0151305258346666e-08 -1.0136852343742093e-07 7.310670114116357" Properties=species:S:1:pos:R:3:forces:R:3 energy=-23.612831115722656 free_energy=-23.612831115722656 stress="-0.00017955826479010284 -6.532425267380404e-09 3.4871689980064957e-09 -6.532425267380404e-09 -0.00017954816576093435 -9.83849002267334e-10 3.4871689980064957e-09 -9.83849002267334e-10 -0.0001795476709958166" pbc="T T T"
Zn       2.11040858       1.49228423       3.65533506      -0.00000015       0.00000019      -0.00000007
Zn       6.33122630       4.47685254      10.96600533       0.00000010      -0.00000018       0.00000017
Ru      -0.00000025       0.00000008      -0.00000005       0.00000285      -0.00000075      -0.00000208
Br       2.03457506       1.43866189       7.31067012       0.00150941       0.00106747      -0.00000005
Br       6.40706005       4.53047508       7.31067004      -0.00151141      -0.00106847      -0.00000014
Br       5.31393866       1.43866160       5.41732860      -0.00075550       0.00106871       0.00130829
Br       3.12769612       4.53047491       9.20401131       0.00075462      -0.00106683      -0.00130638
Br       3.12769622       4.53047516       5.41732877       0.00075494      -0.00106739       0.00130714
Br       5.31393856       1.43866177       9.20401142      -0.00075485       0.00106742      -0.00130692
