9
Lattice="4.9514104767762275 -3.7942181765009484e-08 2.8586981084247625 1.6504701110992512 4.668234988274735 2.8586981293026814 -1.2438922468245186e-07 -6.238618321407089e-08 5.71739643229797" Properties=species:S:1:pos:R:3:forces:R:3 energy=-33.42384719848633 free_energy=-33.42384719848633 stress="6.0038193623768166e-05 9.16943392326175e-08 1.3852250013712819e-08 9.16943392326175e-08 5.998894266667776e-05 -2.8135067609014186e-08 1.3852250013712819e-08 -2.8135067609014186e-08 5.989728379063308e-05" pbc="T T T"
Zn       1.65046848       1.16705942       2.85869831      -0.00000670       0.00000447       0.00000104
Zn       4.95141059       3.50117638       8.57609540       0.00000071       0.00000041       0.00000575
Rh       0.00000034      -0.00000008       0.00000002      -0.00000905      -0.00000164       0.00000024
F        1.61357853       1.14097194       5.71739641      -0.00027960      -0.00019941      -0.00000000
F        4.98830244       3.52726228       5.71739600       0.00028776       0.00020014      -0.00000171
F        4.14462167       1.14097268       4.25609747       0.00014220      -0.00019533      -0.00023820
F        2.45725879       3.52726247       7.17869498      -0.00013828       0.00019289       0.00023658
F        2.45725911       3.52726228       4.25609779      -0.00013907       0.00019591      -0.00024019
F        4.14462197       1.14097180       7.17869449       0.00014208      -0.00019742       0.00023638
