9
Lattice="6.61675000825985 -5.0407161976429146e-08 3.820182489008828 2.205583284780094 6.23833174316305 3.8201824955597705 2.8534900925730674e-08 2.8200447958668572e-08 7.640364928593747" Properties=species:S:1:pos:R:3:forces:R:3 energy=-20.592636108398438 free_energy=-20.592636108398438 stress="9.048609354067594e-05 -1.0245422288335249e-08 1.172762442713804e-09 -1.0245422288335249e-08 9.049851360032335e-05 -3.2145190953514202e-09 1.172762442713804e-09 -3.2145190953514202e-09 9.049941581906751e-05" pbc="T T T"
Zn       2.20558334       1.55958288       3.82018250       0.00000034      -0.00000010       0.00000019
Zn       6.61674999       4.67874883      11.46054747      -0.00000029      -0.00000013      -0.00000008
Ru      -0.00000003       0.00000014       0.00000029       0.00000016      -0.00000013      -0.00000252
I        2.19779226       1.55407381       7.64036499       0.00040349       0.00028538       0.00000004
I        6.62454111       4.68425799       7.64036491      -0.00040434      -0.00028573       0.00000014
I        5.51785374       1.55407379       5.72352644      -0.00020176       0.00028530       0.00034933
I        3.30447956       4.68425770       9.55720322       0.00020093      -0.00028337      -0.00034808
I        3.30447954       4.68425774       5.72352651       0.00020172      -0.00028497       0.00034897
I        5.51785378       1.55407403       9.55720335      -0.00020029       0.00028370      -0.00034805
