9
Lattice="6.382975563796623 -6.42703748258997e-08 3.685212605416595 2.1276585228253584 6.017926565832151 3.6852124977617855 5.643351898595408e-08 -9.194508699520753e-08 7.370425113087442" Properties=species:S:1:pos:R:3:forces:R:3 energy=-22.338605880737305 free_energy=-22.338605880737305 stress="-0.0002413891052128747 -3.070181053832499e-10 -1.955987016799554e-08 -3.070181053832499e-10 -0.00024137826403602958 2.0122836730251947e-08 -1.955987016799554e-08 2.0122836730251947e-08 -0.00024137542641256005" pbc="T T T"
Zn       2.12765841       1.50448087       3.68521223      -0.00000010      -0.00000001       0.00000006
Zn       6.38297558       4.51344545      11.05563834      -0.00000009      -0.00000009       0.00000001
Sb       0.00000009       0.00000004      -0.00000003       0.00000049       0.00000011       0.00000208
Cl       1.98187595       1.40139753       7.37042484       0.00654655       0.00462907       0.00000039
Cl       6.52875830       4.61652881       7.37042507      -0.00654681      -0.00462990       0.00000010
Cl       5.39203778       1.40139791       5.40156743      -0.00327229       0.00462906       0.00566816
Cl       3.11859647       4.61652845       9.33928287       0.00327322      -0.00462955      -0.00566914
Cl       3.11859647       4.61652914       5.40156751       0.00327382      -0.00462980       0.00566988
Cl       5.39203767       1.40139742       9.33928279      -0.00327478       0.00463114      -0.00567167
