9
Lattice="6.519846438631702 2.9408974707262763e-09 3.76423515737207 2.173282123819217 6.146970192556568 3.764235200957541 -1.3867012288653982e-08 4.357559641481307e-08 7.528470338762522" Properties=species:S:1:pos:R:3:forces:R:3 energy=-19.35724449157715 free_energy=-19.35724449157715 stress="-0.00011735824955394492 1.5024768984517323e-08 -6.041700917336357e-09 1.5024768984517323e-08 -0.00011737169552361593 1.2048573694301012e-08 -6.041700917336357e-09 1.2048573694301012e-08 -0.00011737913155229762" pbc="T T T"
Zn       2.17328197       1.53674230       3.76423544       0.00000005       0.00000006       0.00000011
Zn       6.51984652       4.61022739      11.29270536       0.00000003      -0.00000001       0.00000017
Sb       0.00000004      -0.00000016      -0.00000062       0.00000031       0.00000240       0.00000773
Br       2.16515007       1.53099249       7.52847032      -0.00038231      -0.00027045      -0.00000034
Br       6.52797865       4.61597806       7.52847035       0.00038078       0.00026931       0.00000020
Br       5.43727141       1.53099252       5.63931013       0.00019133      -0.00027090      -0.00033169
Br       3.25585684       4.61597830       9.41763096      -0.00018862       0.00026734       0.00032661
Br       3.25585708       4.61597807       5.63930999      -0.00019037       0.00026904      -0.00032936
Br       5.43727158       1.53099201       9.41763081       0.00018887      -0.00026680       0.00032663
