9
Lattice="6.636587430459849 1.0976047489537125e-07 3.8316355963886384 2.2121958778312285 6.2570346662869545 3.831635658405163 -7.386755097597115e-08 2.3722136878837293e-08 7.663271320719652" Properties=species:S:1:pos:R:3:forces:R:3 energy=-29.68572998046875 free_energy=-29.68572998046875 stress="-3.4355249226791784e-05 1.68229075114823e-08 -5.678195247327267e-09 1.68229075114823e-08 -3.436617771512829e-05 6.110008943238654e-09 -5.678195247327267e-09 6.110008943238654e-09 -3.437005580053665e-05" pbc="T T T"
Zn       2.21219567       1.56425877       3.83163555      -0.00000004       0.00000004      -0.00000009
Zn       6.63658777       4.69277644      11.49490689      -0.00000003      -0.00000014       0.00000016
Ta      -0.00000005      -0.00000011       0.00000029      -0.00000272      -0.00000057      -0.00000684
Br       2.06790165       1.46222745       7.66327142       0.00091006       0.00064352      -0.00000022
Br       6.78088139       4.79480697       7.66327133      -0.00090751      -0.00064166      -0.00000046
Br       5.60263642       1.46222752       5.62249111      -0.00045563       0.00064488       0.00078933
Br       3.24614672       4.79480738       9.70405141       0.00045414      -0.00064261      -0.00078623
Br       3.24614669       4.79480740       5.62249112       0.00045658      -0.00064601       0.00079091
Br       5.60263671       1.46222739       9.70405133      -0.00045487       0.00064255      -0.00078650
