9
Lattice="6.537847058480957 3.031021689900435e-08 3.7746275833101928 2.179282407961022 6.1639410905396455 3.7746275373117064 2.0416035541184392e-07 8.802669636336229e-08 7.5492548130043735" Properties=species:S:1:pos:R:3:forces:R:3 energy=-33.57197570800781 free_energy=-33.57197570800781 stress="-0.00024172465782612562 -5.273703251873485e-09 1.7955292364035813e-08 -5.273703251873485e-09 -0.00024172855773940682 -3.048373642400293e-08 1.7955292364035813e-08 -3.048373642400293e-08 -0.00024173440760932863" pbc="T T T"
Zn       2.17928302       1.54098487       3.77462756      -0.00000021       0.00000030      -0.00000002
Zn       6.53784682       4.62295624      11.32388223       0.00000005      -0.00000019       0.00000016
Ta       0.00000004      -0.00000021       0.00000022      -0.00000248       0.00000392       0.00000113
Cl       1.93210772       1.36620694       7.54925503      -0.00398131      -0.00281510       0.00000039
Cl       6.78502198       4.79773439       7.54925503       0.00398208       0.00281481       0.00000025
Cl       5.57179273       1.36620665       5.44788174       0.00199131      -0.00281547      -0.00344723
Cl       3.14533687       4.79773463       9.65062772      -0.00198957       0.00281228       0.00344504
Cl       3.14533658       4.79773442       5.44788214      -0.00199261       0.00281754      -0.00345077
Cl       5.57179297       1.36620678       9.65062791       0.00199278      -0.00281808       0.00345103
