9
Lattice="6.129763726557733 -3.380854970412085e-07 3.539020760186666 2.043254353526466 5.779197122947383 3.5390205925982485 -2.5182267993786867e-07 -3.8331870543201135e-07 7.078041956542941" Properties=species:S:1:pos:R:3:forces:R:3 energy=-46.3253173828125 free_energy=-46.3253173828125 stress="6.810271588619798e-05 4.387167962249805e-08 -9.33865251795396e-09 4.387167962249805e-08 6.802491407142952e-05 -1.919411296569251e-08 -9.33865251795396e-09 -1.919411296569251e-08 6.804052827646956e-05" pbc="T T T"
Zn       2.04325395       1.44480138       3.53902056       0.00000097      -0.00000196      -0.00000078
Zn       6.12976383       4.33439714      10.61706245       0.00000103      -0.00000135      -0.00000142
Ta       0.00000209      -0.00000356      -0.00000240      -0.00011091       0.00016757       0.00015741
F        1.56511264       1.10670042       7.07804017      -0.00127438      -0.00090370       0.00000039
F        6.60790448       4.67249567       7.07804176       0.00127470       0.00089523      -0.00000253
F        5.34720649       1.10670234       4.89444968       0.00068428      -0.00096461      -0.00118092
F        2.82580861       4.67249564       9.26163800      -0.00058673       0.00082588       0.00101483
F        2.82581086       4.67249553       4.89444736      -0.00062905       0.00088882      -0.00109342
F        5.34720731       1.10670007       9.26163484       0.00064024      -0.00090608       0.00110629
