9
Lattice="5.65392105930882 4.668412910557934e-08 3.2642929488495356 1.8846403733450567 5.330568290013896 3.264292990024041 3.928106696454557e-08 7.820415485768754e-08 6.528585829662273" Properties=species:S:1:pos:R:3:forces:R:3 energy=-42.358821868896484 free_energy=-42.358821868896484 stress="-0.0004208966565784067 -5.00468360087325e-08 4.595195690626497e-08 -5.00468360087325e-08 -0.0004208755271974951 1.0654457760495006e-08 4.595195690626497e-08 1.0654457760495006e-08 -0.00042088725604116917" pbc="T T T"
Zr       1.88464183       1.33264224       3.26429236       0.00001258       0.00000075      -0.00000146
Zr       5.65392245       3.99792578       9.79287653       0.00001417      -0.00000327      -0.00002539
As       0.00000007       0.00000002      -0.00000001      -0.00000002       0.00000015       0.00000010
Se       1.94820072       1.37758628       6.52858595       0.00332582       0.00235566       0.00000180
Se       5.59036017       3.95298275       6.52858650      -0.00333092      -0.00234962       0.00000996
Se       4.67982014       1.37758568       4.95148510      -0.00166671       0.00234380       0.00288254
Se       2.85874054       3.95298207       8.10568755       0.00166018      -0.00235283      -0.00287923
Se       2.85873990       3.95298179       4.95148494       0.00165075      -0.00235280       0.00288251
Se       4.67982004       1.37758705       8.10568818      -0.00166589       0.00235820      -0.00287089
