9
Lattice="5.633933325352031 7.799478886048676e-09 3.2527529957901824 1.8779777851646682 5.311723333825662 3.252752991124222 -8.791129496486405e-09 -1.1930904560568959e-08 6.50550600680705" Properties=species:S:1:pos:R:3:forces:R:3 energy=-44.78184127807617 free_energy=-44.78184127807617 stress="0.0003109431709162891 4.712210621704571e-09 2.640833507427942e-08 4.712210621704571e-09 0.0003108866512775421 2.4152029709512135e-08 2.640833507427942e-08 2.4152029709512135e-08 0.00031089410185813904" pbc="T T T"
Zr       1.87797799       1.32792978       3.25275317       0.00000278      -0.00001178       0.00000313
Zr       5.63393321       3.98379199       9.75825926      -0.00000208      -0.00000381      -0.00000013
Bi       0.00000002      -0.00000005       0.00000020      -0.00000250      -0.00000568      -0.00000389
S        2.02047057       1.42868876       6.50550610      -0.00748163      -0.00528803      -0.00000068
S        5.49144004       3.88303496       6.50550585       0.00748429       0.00529678       0.00000146
S        4.62369783       1.42868891       5.00253172       0.00373809      -0.00528841      -0.00647981
S        2.88821330       3.88303521       8.00847951      -0.00374152       0.00529706       0.00648005
S        2.88821358       3.88303492       5.00253220      -0.00373849       0.00529315      -0.00648081
S        4.62369787       1.42868892       8.00847989       0.00374079      -0.00528935       0.00648050
