9
Lattice="5.880704586978151 -1.258886100690343e-07 3.3952263170067387 1.9602347723552007 5.544381361110587 3.395226267265588 -2.203662675706076e-09 -6.247844876195424e-08 6.790452637830336" Properties=species:S:1:pos:R:3:forces:R:3 energy=-40.05607223510742 free_energy=-40.05607223510742 stress="-9.41158868954517e-05 4.913737683409636e-08 1.938924576450063e-08 4.913737683409636e-08 -9.42069964366965e-05 3.855376107253505e-08 1.938924576450063e-08 3.855376107253505e-08 -9.396898531122133e-05" pbc="T T T"
Zr       1.96023696       1.38609932       3.39522513       0.00002590       0.00004155      -0.00000934
Zr       5.88070244       4.15828601      10.18567592      -0.00002422       0.00000098      -0.00003256
Bi      -0.00000005       0.00000014       0.00000017      -0.00000225       0.00000223      -0.00000309
Se       2.15788064       1.52585139       6.79045266      -0.00406341      -0.00288138       0.00000132
Se       5.68305944       4.01852813       6.79045413       0.00407396       0.00286626       0.00001578
Se       4.80176400       1.52585136       5.26400567       0.00202728      -0.00288004      -0.00352147
Se       3.03917588       4.01852747       8.31690168      -0.00202596       0.00285763       0.00354359
Se       3.03917494       4.01852883       5.26400527      -0.00203453       0.00286596      -0.00352769
Se       4.80176325       1.52585204       8.31690031       0.00202317      -0.00287330       0.00353373
