9
Lattice="6.371711430553463 -4.897717434695043e-08 3.678709284839545 2.1239038033243243 6.007306945277503 3.678709216742312 3.71038571826813e-08 -5.71653465765868e-08 7.357418505413321" Properties=species:S:1:pos:R:3:forces:R:3 energy=-36.8907470703125 free_energy=-36.8907470703125 stress="-2.8458716769819148e-05 1.637680768773464e-09 5.354025556236763e-10 1.637680768773464e-09 -2.8440406822483055e-05 5.511291423232478e-10 5.354025556236763e-10 5.511291423232478e-10 -2.846272946044337e-05" pbc="T T T"
Zr       2.12390422       1.50182639       3.67870892       0.00000088      -0.00000380       0.00000010
Zr       6.37171134       4.50548057      11.03612834      -0.00000155       0.00000418       0.00000221
Bi       0.00000005      -0.00000022       0.00000002      -0.00000139       0.00000282      -0.00000196
Te       2.33793960       1.65317235       7.35741861       0.00002818       0.00001749       0.00000041
Te       6.15767584       4.35413420       7.35741817      -0.00002672      -0.00001809      -0.00000147
Te       5.20274152       1.65317266       5.70342430      -0.00001343       0.00001608       0.00002229
Te       3.29287334       4.35413433       9.01141271       0.00001337      -0.00001727      -0.00002317
Te       3.29287376       4.35413436       5.70342413       0.00001504      -0.00001781       0.00002290
Te       5.20274140       1.65317264       9.01141288      -0.00001445       0.00001636      -0.00002119
