9
Lattice="6.13514131454718 -5.468001976693338e-08 3.5421254373898483 2.0450470751412944 5.784266584329817 3.542125399553143 9.529120638510422e-09 -3.960222243422218e-08 7.08425085827474" Properties=species:S:1:pos:R:3:forces:R:3 energy=-38.32863235473633 free_energy=-38.32863235473633 stress="8.615518709120806e-06 -7.348548436425517e-09 1.559645412818611e-09 -7.348548436425517e-09 8.638890903966967e-06 -1.2530891879691808e-08 1.559645412818611e-09 -1.2530891879691808e-08 8.644677109259646e-06" pbc="T T T"
Zr       2.04504762       1.44606693       3.54212505       0.00000314       0.00000090      -0.00000405
Zr       6.13514125       4.33819962      10.62637486       0.00000128       0.00000038      -0.00000554
Ga       0.00000020      -0.00000006      -0.00000008      -0.00000053       0.00000179      -0.00000267
Te       2.14759727       1.51858060       7.08425102      -0.00150220      -0.00106059       0.00000100
Te       6.03259102       4.26568587       7.08425153       0.00150090       0.00106139       0.00000183
Te       5.06134248       1.51858032       5.40199938       0.00075020      -0.00106275      -0.00130115
Te       3.11884586       4.26568559       8.76650284      -0.00075267       0.00106272       0.00130359
Te       3.11884545       4.26568621       5.40199940      -0.00075179       0.00105997      -0.00129818
Te       5.06134243       1.51858085       8.76650276       0.00075149      -0.00106403       0.00130530
