9
Lattice="5.410361131637313 -2.4483757240158664e-08 3.12367347007299 1.8034537044098984 5.100937361229835 3.1236734407188163 1.8719751345302363e-08 -2.271451190865339e-08 6.24734690772241" Properties=species:S:1:pos:R:3:forces:R:3 energy=-46.729652404785156 free_energy=-46.729652404785156 stress="-0.00024664003285579383 3.4574239027307385e-09 -5.956251492023057e-09 3.4574239027307385e-09 -0.00024665481760166585 6.8348415815933095e-09 -5.956251492023057e-09 6.8348415815933095e-09 -0.0002466606383677572" pbc="T T T"
Zr       1.80345375       1.27523463       3.12367344       0.00000015       0.00000025       0.00000012
Zr       5.41036217       3.82570405       9.37102072       0.00001021       0.00001004       0.00000123
Ga      -0.00000009      -0.00000008       0.00000005       0.00000182      -0.00000019       0.00000175
S        1.87420603       1.32526366       6.24734685      -0.00417757      -0.00295573       0.00000015
S        5.33960909       3.77567317       6.24734658       0.00417811       0.00295183      -0.00000126
S        4.47325802       1.32526340       4.74678353       0.00208634      -0.00295827      -0.00361624
S        2.74055641       3.77567351       7.74791023      -0.00209111       0.00295448       0.00361630
S        2.74055619       3.77567373       4.74678359      -0.00209293       0.00295466      -0.00361660
S        4.47325787       1.32526315       7.74791027       0.00208506      -0.00295708       0.00361454
