9
Lattice="6.31694719576546 5.399689975422624e-08 3.6470911428371706 2.1056490924502818 5.955675129489969 3.647091183910394 -2.197309564927517e-08 3.47668904926941e-08 7.294182323732844" Properties=species:S:1:pos:R:3:forces:R:3 energy=-37.46208953857422 free_energy=-37.46208953857422 stress="-3.292906694696285e-05 1.9260864903003494e-08 5.889261078806385e-09 1.9260864903003494e-08 -3.2996984373312443e-05 8.498744819007698e-09 5.889261078806385e-09 8.498744819007698e-09 -3.29529975715559e-05" pbc="T T T"
Zr       2.10564884       1.48891985       3.64709094      -0.00000210       0.00000728      -0.00000305
Zr       6.31694673       4.46675558      10.94127333      -0.00000366      -0.00000628       0.00000228
Sb      -0.00000008       0.00000009      -0.00000004       0.00000204      -0.00000040       0.00000008
Te       2.25877657       1.59719684       7.29418240       0.00002768       0.00002193       0.00000103
Te       6.16381985       4.35847839       7.29418232      -0.00002890      -0.00002473      -0.00000137
Te       5.18755892       1.59719663       5.60324923      -0.00001304       0.00002292       0.00002534
Te       3.23503766       4.35847842       8.98511572       0.00001654      -0.00002350      -0.00002284
Te       3.23503762       4.35847842       5.60324907       0.00001598      -0.00002045       0.00002362
Te       5.18755893       1.59719666       8.98511562      -0.00001502       0.00002314      -0.00002500
