9
Lattice="4.56164117490455 -1.5340456349242262e-08 2.6336645704713493 1.5205469845473596 4.300756325475599 2.633664673166424 -6.876916631305254e-08 7.714813245876625e-08 5.267329260054392" Properties=species:S:1:pos:R:3:forces:R:3 energy=-64.74038696289062 free_energy=-64.74038696289062 stress="0.00021678202028851956 1.6187415496915492e-07 -1.8815386226833652e-07 1.6187415496915492e-07 0.00021694350289180875 4.469234937687361e-08 -1.8815386226833652e-07 4.469234937687361e-08 0.00021699925127904862" pbc="T T T"
Zr       1.52054779       1.07518992       2.63366284       0.00000654       0.00001442      -0.00002115
Zr       4.56163835       3.22556877       7.90099414      -0.00003704       0.00002155      -0.00000043
Sb      -0.00000007       0.00000004      -0.00000013       0.00000193       0.00000539       0.00000185
O        1.56931445       1.10967253       5.26732994       0.00102681       0.00072129       0.00001183
O        4.51287441       3.19108282       5.26732900      -0.00102338      -0.00073770      -0.00000483
O        3.77698357       1.10967133       3.99273148      -0.00051175       0.00071037       0.00089636
O        2.30520517       3.19108378       6.54192806       0.00052452      -0.00072415      -0.00088739
O        2.30520530       3.19108338       3.99272970       0.00053480      -0.00073478       0.00088501
O        3.77698310       1.10967305       6.54192889      -0.00052224       0.00072317      -0.00088093
