9
Lattice="5.609224079530999 8.954810277733016e-08 3.2384869642429526 1.8697414189230703 5.288427195298865 3.238487008145884 -5.631479806274386e-08 1.3949309698435842e-08 6.476974026025975" Properties=species:S:1:pos:R:3:forces:R:3 energy=-45.41543960571289 free_energy=-45.41543960571289 stress="5.767971379100345e-05 -2.9964471792709446e-08 -4.2700495583858356e-08 -2.9964471792709446e-08 5.769444032921456e-05 2.748362959437145e-08 -4.2700495583858356e-08 2.748362959437145e-08 5.759125269833021e-05" pbc="T T T"
Zr       1.86974243       1.32210902       3.23848671       0.00001237       0.00002752      -0.00000040
Zr       5.60922421       3.96632054       9.71546036       0.00000516      -0.00000407      -0.00000550
Sb       0.00000017       0.00000010       0.00000003       0.00000502       0.00000061       0.00000252
S        1.97559153       1.39695440       6.47697394      -0.00031257      -0.00021914       0.00000229
S        5.50337425       3.89147275       6.47697413       0.00031179       0.00021282       0.00000008
S        4.62142770       1.39695412       4.94939947       0.00015086      -0.00022182      -0.00027049
S        2.85753720       3.89147200       8.00454931      -0.00015661       0.00020850       0.00027600
S        2.85753619       3.89147211       4.94939924      -0.00016454       0.00021124      -0.00027126
S        4.62142798       1.39695410       8.00454873       0.00014836      -0.00021562       0.00026724
