9
Lattice="5.531665103980714 -6.266443509993268e-08 3.1937083330614846 1.8438883173133778 5.215303885548807 3.193708318511599 -3.651171000802103e-08 -4.3637600577847354e-08 6.387416729363108" Properties=species:S:1:pos:R:3:forces:R:3 energy=-50.304141998291016 free_energy=-50.304141998291016 stress="3.842193109448999e-05 -1.6517471834731623e-08 6.207559355431158e-09 -1.6517471834731623e-08 3.845539686153643e-05 2.053659642342609e-08 6.207559355431158e-09 2.053659642342609e-08 3.8450336433015764e-05" pbc="T T T"
Zr       1.84388775       1.30382567       3.19370829      -0.00000794      -0.00000443       0.00000059
Zr       5.53166576       3.91147836       9.58112462       0.00000812       0.00000367      -0.00000529
Y        0.00000012       0.00000011      -0.00000002      -0.00000234      -0.00000339      -0.00000194
S        2.00025488       1.41439389       6.38741672       0.00012165       0.00008544       0.00000116
S        5.37529823       3.80090955       6.38741683      -0.00011315      -0.00008067       0.00000353
S        4.53153749       1.41439365       4.92598049      -0.00005894       0.00007791       0.00010382
S        2.84401568       3.80091009       7.84885276       0.00005333      -0.00007965      -0.00010129
S        2.84401583       3.80090991       4.92598070       0.00005583      -0.00008074       0.00010184
S        4.53153777       1.41439389       7.84885302      -0.00005643       0.00008139      -0.00010243
