9
Lattice="4.6488872537028465 -1.393764294588188e-07 2.684036260622634 1.5496289787405966 4.383013024832803 2.684036216319669 5.354801160813544e-08 -1.6395664669016756e-08 5.368072428497394" Properties=species:S:1:pos:R:3:forces:R:3 energy=-65.201904296875 free_energy=-65.201904296875 stress="4.4552540202857926e-05 1.0332568933790753e-07 -1.753117260250292e-07 1.0332568933790753e-07 4.458817056729458e-05 6.714066191904067e-09 -1.753117260250292e-07 6.714066191904067e-09 4.488558988668956e-05" pbc="T T T"
Zr       1.54962961       1.09575276       2.68403747       0.00001263      -0.00000970       0.00002708
Zr       4.64888664       3.28725820       8.05211100      -0.00001180      -0.00003090       0.00003747
Y       -0.00000011      -0.00000020       0.00000007       0.00000572      -0.00000070       0.00001034
O        1.68712148       1.19297457       5.36807108      -0.00012073      -0.00008987      -0.00001772
O        4.51139448       3.19003889       5.36807176       0.00011139       0.00009786      -0.00001433
O        3.80532701       1.19297631       4.14512506       0.00006701      -0.00006165      -0.00012668
O        2.39318938       3.19003799       6.59101867      -0.00006772       0.00008453       0.00010284
O        2.39318975       3.19003798       4.14512592      -0.00006031       0.00008945      -0.00011491
O        3.80532686       1.19297490       6.59101867       0.00006466      -0.00007908       0.00009718
