9
Lattice="6.304124999376374 -9.93749765394547e-08 3.6396883815801715 2.1013749470473533 5.943586011520402 3.6396883106581384 1.700270809164668e-08 -7.483866138041646e-08 7.279376733710798" Properties=species:S:1:pos:R:3:forces:R:3 energy=-42.46192169189453 free_energy=-42.46192169189453 stress="-4.150076711084694e-05 -3.969206829879113e-08 6.826258669434537e-09 -3.969206829879113e-08 -4.145788261666894e-05 -1.3479328764276488e-08 6.826258669434537e-09 -1.3479328764276488e-08 -4.14380592701491e-05" pbc="T T T"
Zr       2.10137508       1.48589631       3.63968865       0.00000063      -0.00000018      -0.00000019
Zr       6.30412487       4.45769043      10.91906566      -0.00000052       0.00000700       0.00000427
Y       -0.00000037      -0.00000019       0.00000039       0.00000800       0.00000393      -0.00000551
Te       2.28361114       1.61475637       7.27937698       0.00063613       0.00044675      -0.00000168
Te       6.12188940       4.32882924       7.27937651      -0.00064416      -0.00045614      -0.00000158
Te       5.16231947       1.61475654       5.61735331      -0.00032076       0.00045171       0.00055358
Te       3.24318052       4.32882898       8.94139951       0.00031643      -0.00044714      -0.00055028
Te       3.24318051       4.32882923       5.61735338       0.00031957      -0.00045133       0.00055160
Te       5.16231923       1.61475643       8.94139935      -0.00031560       0.00044528      -0.00055039
