9
Lattice="5.813486747410601 -4.51738969601092e-08 3.3564181529219748 1.9378288567452677 5.481007861754378 3.35641818144523 -3.039748510397087e-08 1.343943719098737e-08 6.712836358493932" Properties=species:S:1:pos:R:3:forces:R:3 energy=-45.300567626953125 free_energy=-45.300567626953125 stress="-0.00023214514658320695 -3.2047118736500124e-08 9.509357745685065e-09 -3.2047118736500124e-08 -0.00023209025675896555 -1.730204068906005e-08 9.509357745685065e-09 -1.730204068906005e-08 -0.00023197694099508226" pbc="T T T"
Zr       1.93783043       1.37025149       3.35641828       0.00001450      -0.00000319       0.00000220
Zr       5.81348649       4.11075739      10.06925478      -0.00000034       0.00001476       0.00000406
Y        0.00000016      -0.00000035      -0.00000035       0.00000458       0.00000705       0.00000901
Se       2.09871422       1.48401496       6.71283632      -0.00168565      -0.00119534       0.00000099
Se       5.65260149       3.99699344       6.71283625       0.00167713       0.00119095       0.00000071
Se       4.76412878       1.48401459       5.17395810       0.00083917      -0.00120251      -0.00146480
Se       2.98718541       3.99699286       8.25171480      -0.00084098       0.00118853       0.00145592
Se       2.98718617       3.99699270       5.17395780      -0.00084358       0.00119369      -0.00146516
Se       4.76412914       1.48401430       8.25171480       0.00083506      -0.00119396       0.00145680
