9
Lattice="6.103950530277314 1.214427148297164e-08 3.5241175236623428 2.0346501724912125 5.754859866727341 3.524117550886065 -6.901854960031386e-09 2.846176021835263e-08 7.048235059279096" Properties=species:S:1:pos:R:3:forces:R:3 energy=-17.955768585205078 free_energy=-17.955768585205078 stress="0.00020299085008446127 -8.27905921596539e-09 1.0999207100681474e-09 -8.27905921596539e-09 0.00020298754679970443 -1.3312581072233431e-11 1.0999207100681474e-09 -1.3312581072233431e-11 0.00020299576863180846" pbc="T T T"
Ag       2.03465001       1.43871492       3.52411757      -0.00000028       0.00000028      -0.00000002
Ag       6.10395044       4.31614500      10.57235264      -0.00000013       0.00000004       0.00000008
Au       0.00000024      -0.00000009       0.00000008      -0.00000333       0.00000180      -0.00000033
Br       2.11244531       1.49372436       7.04823506      -0.00224537      -0.00158755       0.00000021
Br       6.02615551       4.26113562       7.04823503       0.00224605       0.00158855       0.00000026
Br       5.04772785       1.49372445       5.35354872       0.00112370      -0.00158854      -0.00194585
Br       3.09087279       4.26113554       8.74292145      -0.00112203       0.00158691       0.00194377
Br       3.09087273       4.26113553       5.35354869      -0.00112240       0.00158776      -0.00194407
Br       5.04772788       1.49372433       8.74292130       0.00112383      -0.00158916       0.00194603
