9
Lattice="4.978542493074894 1.4779743947214594e-08 2.874362992890396 1.659514228174791 4.693814744053869 2.874362906492214 1.9609667771166226e-07 3.284555657140007e-08 5.748725646131375" Properties=species:S:1:pos:R:3:forces:R:3 energy=-28.886716842651367 free_energy=-28.886716842651367 stress="0.00018651684513315558 -6.3235852110210544e-09 -1.0043970988249384e-08 -6.3235852110210544e-09 0.00018651189748197794 1.0259282312574669e-08 -1.0043970988249384e-08 1.0259282312574669e-08 0.00018652263679541647" pbc="T T T"
Ag       1.65951423       1.17345348       2.87436285      -0.00000001       0.00000041      -0.00000016
Ag       4.97854271       3.52036087       8.62308893      -0.00000014       0.00000028       0.00000005
Au       0.00000001      -0.00000009       0.00000010       0.00000491       0.00000102      -0.00000330
F        1.64474167       1.16300803       5.74872577       0.00311814       0.00220403      -0.00000069
F        4.99331504       3.53080690       5.74872572      -0.00311944      -0.00220678       0.00000030
F        4.15617193       1.16300805       4.29875075      -0.00156001       0.00220474       0.00270228
F        2.48188520       3.53080684       7.19870035       0.00155758      -0.00220324      -0.00269800
F        2.48188508       3.53080704       4.29875105       0.00155832      -0.00220523       0.00270090
F        4.15617185       1.16300786       7.19870079      -0.00155929       0.00220479      -0.00270134
