9
Lattice="5.783894095235059 -1.096902165249142e-09 3.3393328747803084 1.927964691507283 5.4531076474515245 3.3393328849478134 2.9747368872587317e-09 1.4556061234906598e-08 6.6786657444082245" Properties=species:S:1:pos:R:3:forces:R:3 energy=-20.634384155273438 free_energy=-20.634384155273438 stress="0.00014871975872665644 2.1030528429832884e-09 -8.641191762137623e-09 2.1030528429832884e-09 0.0001487247209297493 -4.141686549274937e-09 -8.641191762137623e-09 -4.141686549274937e-09 0.00014865543926134706" pbc="T T T"
Ag       1.92796466       1.36327693       3.33933283       0.00000019       0.00000015      -0.00000052
Ag       5.78389407       4.08983074      10.01799857       0.00000004      -0.00000009       0.00000013
Au       0.00000015      -0.00000008       0.00000017      -0.00000143       0.00000173       0.00000254
Cl       1.97524066       1.39670604       6.67866576       0.00093049       0.00065777       0.00000055
Cl       5.73661816       4.05640173       6.67866572      -0.00093070      -0.00065771       0.00000118
Cl       4.79627379       1.39670606       5.04994158      -0.00046454       0.00065699       0.00080431
Cl       2.91558516       4.05640154       8.30738987       0.00046569      -0.00065845      -0.00080648
Cl       2.91558486       4.05640167       5.04994166       0.00046514      -0.00065830       0.00080487
Cl       4.79627372       1.39670602       8.30738986      -0.00046515       0.00065786      -0.00080648
