9
Lattice="6.588711278670428 -3.4545706917683666e-12 3.8039942132845144 2.196237107610334 6.211896660203873 3.803994187782669 2.7060474062386333e-08 -1.2098575463742131e-08 7.607988379698856" Properties=species:S:1:pos:R:3:forces:R:3 energy=-16.03264045715332 free_energy=-16.03264045715332 stress="5.406207128544338e-05 -2.7567961247143558e-09 -3.05391445465375e-09 -2.7567961247143558e-09 5.40633627679199e-05 -1.5413985643419892e-09 -3.05391445465375e-09 -1.5413985643419892e-09 5.407114440458827e-05" pbc="T T T"
Ag       2.19623715       1.55297428       3.80399417       0.00000032       0.00000028      -0.00000015
Ag       6.58871130       4.65892240      11.41198259      -0.00000031      -0.00000090      -0.00000003
Au      -0.00000008       0.00000017       0.00000028       0.00000094      -0.00000126      -0.00000266
I        2.31662735       1.63810296       7.60798852      -0.00186521      -0.00131883      -0.00000004
I        6.46832111       4.57379370       7.60798822       0.00186434       0.00131828       0.00000031
I        5.43039764       1.63810292       5.81025222       0.00093221      -0.00131786      -0.00161396
I        3.35455082       4.57379344       9.40572439      -0.00093282       0.00131962       0.00161611
I        3.35455078       4.57379367       5.81025234      -0.00093205       0.00131917      -0.00161451
I        5.43039759       1.63810309       9.40572440       0.00093260      -0.00131841       0.00161497
