9
Lattice="5.989606463239926 4.783564200813332e-08 3.4581008559570474 1.996535469525792 5.647055310580832 3.458100965631734 -5.6802445994720726e-08 9.415814980385154e-08 6.916201810298828" Properties=species:S:1:pos:R:3:forces:R:3 energy=-20.69464111328125 free_energy=-20.69464111328125 stress="-1.2046981510138721e-06 -8.35390334685826e-09 5.909517764024486e-09 -8.35390334685826e-09 -1.193399498333747e-06 -8.686720676109871e-09 5.909517764024486e-09 -8.686720676109871e-09 -1.1892909697053256e-06" pbc="T T T"
Ag       1.99653543       1.41176369       3.45810082      -0.00000024      -0.00000020      -0.00000049
Ag       5.98960656       4.23529166      10.37430278       0.00000023      -0.00000001       0.00000008
Be      -0.00000007       0.00000005      -0.00000003       0.00000026      -0.00000001       0.00000022
Br       1.97360658       1.39555099       6.91620189       0.00306639       0.00216873       0.00000014
Br       6.01253529       4.25150482       6.91620182      -0.00306758      -0.00217041       0.00000190
Br       5.00280294       1.39555089       5.16729438      -0.00153284       0.00216804       0.00265741
Br       2.98333869       4.25150473       8.66510925       0.00153476      -0.00216925      -0.00265783
Br       2.98333893       4.25150433       5.16729448       0.00153205      -0.00216718       0.00265679
Br       5.00280306       1.39555073       8.66510921      -0.00153294       0.00217052      -0.00265813
