9
Lattice="4.61427638390183 7.133912398801233e-08 2.6640536702067097 1.5380921894863706 4.350381606177648 2.6640536801488364 4.253095949738262e-08 4.225046677229598e-08 5.3281072667476685" Properties=species:S:1:pos:R:3:forces:R:3 energy=-33.4632682800293 free_energy=-33.4632682800293 stress="0.0002576868573669344 -8.00532617972749e-09 -1.4623665611779302e-09 -8.00532617972749e-09 0.00025782166630961 1.458269593967998e-08 -1.4623665611779302e-09 1.458269593967998e-08 0.0002576493425294757" pbc="T T T"
Ag       1.53809252       1.08759575       2.66405350       0.00000092       0.00000082      -0.00000093
Ag       4.61427711       3.26278659       7.99215999       0.00000210       0.00000181      -0.00000372
Be      -0.00000007       0.00000002       0.00000004      -0.00000035       0.00000019      -0.00000025
F        1.42841385       1.01004126       5.32810731      -0.00307107      -0.00217074       0.00000046
F        4.72395447       3.34034041       5.32810770       0.00306898       0.00216952       0.00000100
F        3.90006922       1.01004110       3.90109656       0.00153491      -0.00217092      -0.00265843
F        2.25229906       3.34034010       6.75511846      -0.00153637       0.00217077       0.00265896
F        2.25229885       3.34034070       3.90109631      -0.00153458       0.00217023      -0.00265652
F        3.90006944       1.01004114       6.75511843       0.00153521      -0.00217247       0.00265956
