9
Lattice="5.671954414062502 3.864851506496155e-08 3.274704481535762 1.8906514882177747 5.347569921622496 3.2747045154398613 2.7390845005906047e-08 6.089215409980608e-08 6.54940891562913" Properties=species:S:1:pos:R:3:forces:R:3 energy=-23.16737937927246 free_energy=-23.16737937927246 stress="0.00010007675155065954 7.3135830724879725e-09 2.1259838334231063e-08 7.3135830724879725e-09 0.00010002706403611228 5.32667510100282e-09 2.1259838334231063e-08 5.32667510100282e-09 0.00010010032565332949" pbc="T T T"
Ag       1.89065147       1.33689240       3.27470433       0.00000023      -0.00000074       0.00000008
Ag       5.67195450       4.01067774       9.82411371      -0.00000002      -0.00000002       0.00000067
Be       0.00000042       0.00000013       0.00000013       0.00000068       0.00000006       0.00000023
Cl       1.87768824       1.32772627       6.54940876       0.00551343       0.00389850      -0.00000107
Cl       5.68491784       4.01984362       6.54940895      -0.00551516      -0.00389960      -0.00000046
Cl       4.73311038       1.32772617       4.90082997      -0.00275800       0.00390011       0.00477630
Cl       2.82949537       4.01984386       8.19798792       0.00275734      -0.00389904      -0.00477543
Cl       2.82949531       4.01984391       4.90083015       0.00275883      -0.00389940       0.00477576
Cl       4.73311004       1.32772603       8.19798774      -0.00275749       0.00389996      -0.00477606
