9
Lattice="6.443731526842307 -4.8031980387344544e-08 3.7202901278235108 2.14791048086257 6.075208238740652 3.7202900980318394 -7.661865883216247e-09 -4.1904923083439736e-08 7.440580268917697" Properties=species:S:1:pos:R:3:forces:R:3 energy=-17.839717864990234 free_energy=-17.839717864990234 stress="4.633277512766654e-06 1.5125548591399252e-09 8.989886057797492e-10 1.5125548591399252e-09 4.626729150913889e-06 9.563274616652961e-10 8.989886057797492e-10 9.563274616652961e-10 4.6161076170392334e-06" pbc="T T T"
Ag       2.14791053       1.51880218       3.72029004      -0.00000007      -0.00000022      -0.00000016
Ag       6.44373145       4.55640604      11.16087057      -0.00000022      -0.00000002       0.00000001
Be       0.00000049       0.00000035      -0.00000004      -0.00000154      -0.00000269      -0.00000050
I        2.10912976       1.49137991       7.44058025      -0.00418139      -0.00295788      -0.00000007
I        6.48251129       4.58382782       7.44058023       0.00418688       0.00295954       0.00000011
I        5.38916666       1.49138007       5.54685042       0.00209166      -0.00295860      -0.00362223
I        3.20247569       4.58382811       9.33430996      -0.00209347       0.00295976       0.00362431
I        3.20247582       4.58382807       5.54685045      -0.00209304       0.00295873      -0.00362460
I        5.38916634       1.49138005       9.33431012       0.00209108      -0.00295857       0.00362322
