9
Lattice="5.718426900514401 -3.069932162661748e-07 3.30153507510671 1.9061419693143975 5.391384674666038 3.301535146850102 -8.678230998386946e-08 2.6503034190105643e-08 6.603070300524791" Properties=species:S:1:pos:R:3:forces:R:3 energy=-25.809572219848633 free_energy=-25.809572219848633 stress="-0.0001768778165569529 -4.1637546188688646e-10 -8.026819209305813e-09 -4.1637546188688646e-10 -0.0001768298534443602 1.7606333058139967e-09 -8.026819209305813e-09 1.7606333058139967e-09 -0.0001768968068063259" pbc="T T T"
Ag       1.90614236       1.34784567       3.30153490      -0.00000010      -0.00000045      -0.00000003
Ag       5.71842663       4.04353819       9.90460563       0.00000019      -0.00000027       0.00000024
Co      -0.00000007       0.00000049      -0.00000039       0.00000068      -0.00000313       0.00000235
Cl       1.83215459       1.29553020       6.60306990       0.00327179       0.00231308      -0.00000063
Cl       5.79241374       4.09585433       6.60307060      -0.00326875      -0.00231212       0.00000092
Cl       4.80234900       1.29552911       4.88822731      -0.00163573       0.00231212       0.00283369
Cl       2.82221962       4.09585529       8.31791302       0.00163504      -0.00231262      -0.00283232
Cl       2.82222028       4.09585554       4.88822819       0.00163509      -0.00230971       0.00283104
Cl       4.80234907       1.29552875       8.31791305      -0.00163804       0.00231305      -0.00283533
