9
Lattice="5.979595087603246 3.2949585968702325e-08 3.4523209496335143 1.993198342566575 5.6376165925098345 3.452321038025209 5.675668266381411e-09 1.1227057470254934e-07 6.904641889436465" Properties=species:S:1:pos:R:3:forces:R:3 energy=-19.808490753173828 free_energy=-19.808490753173828 stress="2.2181422991707223e-06 -1.309452324349536e-09 1.629950729942209e-09 -1.309452324349536e-09 2.1848961750947637e-06 1.6004411129699747e-09 1.629950729942209e-09 1.6004411129699747e-09 2.2190786239661975e-06" pbc="T T T"
Ag       1.99319827       1.40940400       3.45232087       0.00000057      -0.00000024       0.00000032
Ag       5.97959505       4.22821264      10.35696362       0.00000001       0.00000121       0.00000061
C       -0.00000086      -0.00000005      -0.00000042      -0.00000066       0.00000024      -0.00000127
Br       1.93764348       1.37012087       6.90464172       0.00110555       0.00078195       0.00000081
Br       6.03515053       4.26749636       6.90464208      -0.00110671      -0.00078252      -0.00000015
Br       5.01077327       1.37012104       5.13036969      -0.00055197       0.00078127       0.00095579
Br       2.96202019       4.26749553       8.67891403       0.00055276      -0.00078183      -0.00095639
Br       2.96202019       4.26749556       5.13036982       0.00055300      -0.00078118       0.00095621
Br       5.01077364       1.37012101       8.67891414      -0.00055256       0.00078118      -0.00095612
