9
Lattice="5.00705821598282 -4.6307353943948276e-08 2.890826453829159 1.6690193525094363 4.720699850041214 2.8908264696933506 -5.720807776227033e-10 1.90250617241452e-08 5.7816529086492165" Properties=species:S:1:pos:R:3:forces:R:3 energy=-27.124160766601562 free_energy=-27.124160766601562 stress="0.0003959367168135941 -4.329381741996485e-09 -1.3834054790606842e-08 -4.329381741996485e-09 0.0003959651221521199 -2.0073469997328175e-08 -1.3834054790606842e-08 -2.0073469997328175e-08 0.00039587917854078114" pbc="T T T"
Ag       1.66901950       1.18017521       2.89082632       0.00000027       0.00000052       0.00000004
Ag       5.00705824       3.54052488       8.67247953       0.00000011       0.00000006       0.00000063
Cd       0.00000022       0.00000007       0.00000016      -0.00000033       0.00000009      -0.00000185
F        1.77238162       1.25326309       5.78165303      -0.00112313      -0.00079411       0.00000012
F        4.90369584       3.46743673       5.78165284       0.00112301       0.00079381      -0.00000027
F        4.12086734       1.25326309       4.42575368       0.00056151      -0.00079328      -0.00097275
F        2.55521007       3.46743669       7.13755202      -0.00056207       0.00079417       0.00097352
F        2.55521006       3.46743670       4.42575398      -0.00056180       0.00079399      -0.00097328
F        4.12086733       1.25326294       7.13755162       0.00056240      -0.00079554       0.00097412
