9
Lattice="6.017875817026368 -6.78883697837691e-08 3.4744221862374327 2.0059585699863374 5.673707559380969 3.4744221371914703 6.891428503366661e-09 -5.5195709022653085e-08 6.948844360538476" Properties=species:S:1:pos:R:3:forces:R:3 energy=-22.988880157470703 free_energy=-22.988880157470703 stress="-0.0001049880520440638 4.96826491058755e-09 -1.1423211682126677e-10 4.96826491058755e-09 -0.00010500771168153733 -3.2045035514016718e-09 -1.1423211682126677e-10 -3.2045035514016718e-09 -0.00010498749179532751" pbc="T T T"
Ag       2.00595841       1.41842681       3.47442225      -0.00000083      -0.00000067       0.00000044
Ag       6.01787587       4.25528086      10.42326642      -0.00000045       0.00000120       0.00000021
Co       0.00000017      -0.00000005       0.00000034       0.00000036       0.00000042      -0.00000162
Br       1.98451284       1.40326224       6.94884448       0.00263825       0.00186539      -0.00000033
Br       6.03932167       4.27044513       6.94884432      -0.00263968      -0.00186656       0.00000009
Br       5.02561929       1.40326231       5.19306058      -0.00131937       0.00186686       0.00228551
Br       2.99821496       4.27044501       8.70462799       0.00131959      -0.00186542      -0.00228469
Br       2.99821498       4.27044518       5.19306061       0.00132041      -0.00186670       0.00228530
Br       5.02561942       1.40326221       8.70462776      -0.00131828       0.00186546      -0.00228502
