9
Lattice="4.569526650863471 9.853355411367674e-08 2.638217518741668 1.523175628955393 4.308191128885628 2.638217543390072 4.2629234836489113e-08 6.033145593498092e-08 5.276434963647318" Properties=species:S:1:pos:R:3:forces:R:3 energy=-34.53009796142578 free_energy=-34.53009796142578 stress="-0.0001970126322703436 3.8149376990759265e-08 2.648359931356481e-08 3.8149376990759265e-08 -0.00019703825819306076 -2.2870382920814336e-08 2.648359931356481e-08 -2.2870382920814336e-08 -0.00019712997891474515" pbc="T T T"
Ag       1.52317559       1.07704828       2.63821742      -0.00000017      -0.00000114       0.00000030
Ag       4.56952639       3.23114334       7.91465286       0.00000164       0.00000074      -0.00000083
C        0.00000026       0.00000012      -0.00000006       0.00000125      -0.00000234      -0.00000116
F        1.28506599       0.90867890       5.27643495      -0.00111270      -0.00078714       0.00000058
F        4.80763638       3.39951216       5.27643490       0.00111002       0.00078881      -0.00000019
F        3.92699388       0.90867905       3.75111729       0.00055310      -0.00078481      -0.00095946
F        2.16570870       3.39951225       6.80175301      -0.00055617       0.00078708       0.00095642
F        2.16570843       3.39951224       3.75111723      -0.00055313       0.00078589      -0.00095630
F        3.92699381       0.90867892       6.80175279       0.00055513      -0.00078738       0.00096017
