9
Lattice="5.853266404102365 1.8506157143460674e-08 3.3793850078615333 1.9510888203046866 5.518512616620607 3.3793850052816903 2.2990428454674154e-08 1.309704105649045e-08 6.758769975902486" Properties=species:S:1:pos:R:3:forces:R:3 energy=-19.464061737060547 free_energy=-19.464061737060547 stress="0.00019926478853449225 -4.444897339084264e-09 -1.386350145793358e-08 -4.444897339084264e-09 0.0001992512115975842 -1.8000001489326678e-08 -1.386350145793358e-08 -1.8000001489326678e-08 0.00019931455608457327" pbc="T T T"
Ag       1.95108881       1.37962810       3.37938494      -0.00000043       0.00000101      -0.00000059
Ag       5.85326632       4.13888453      10.13815487       0.00000028      -0.00000018      -0.00000023
Cd       0.00000008       0.00000006       0.00000024       0.00000264      -0.00000002      -0.00000158
Cl       2.04712921       1.44753934       6.75877039      -0.00021639      -0.00015242      -0.00000103
Cl       5.75722604       4.07097369       6.75877037       0.00021416       0.00015074      -0.00000010
Cl       4.82970165       1.44753896       5.15225127       0.00010890      -0.00015074      -0.00018561
Cl       2.97465354       4.07097314       8.36528839      -0.00010864       0.00015390       0.00018898
Cl       2.97465368       4.07097363       5.15225103      -0.00010793       0.00015190      -0.00018698
Cl       4.82970169       1.44753917       8.36528848       0.00010748      -0.00015406       0.00018692
