9
Lattice="4.570967433750632 2.9515218842867945e-07 2.6390498636207202 1.5236559892379156 4.309550093384926 2.6390500373184014 1.38416869269131e-07 3.1061082775245657e-07 5.2780994874963465" Properties=species:S:1:pos:R:3:forces:R:3 energy=-34.53010177612305 free_energy=-34.53010177612305 stress="0.00010339463915443048 5.438274115476815e-07 -3.8395860713080765e-08 5.438274115476815e-07 0.00010334460239391774 2.1132706251592026e-07 -3.8395860713080765e-08 2.1132706251592026e-07 0.00010490167187526822" pbc="T T T"
Ag       1.52365608       1.07738757       2.63905033       0.00000139       0.00000175      -0.00000020
Ag       4.57096745       3.23216350       7.91714888      -0.00000214      -0.00000217       0.00000183
C       -0.00000005      -0.00000041       0.00000056      -0.00000028       0.00000594      -0.00000088
F        1.28526633       0.90882078       5.27810069      -0.00440013      -0.00312036      -0.00000485
F        4.80935737       3.40073020       5.27810049       0.00439972       0.00311625      -0.00000332
F        3.92833471       0.90882050       3.75212452       0.00218907      -0.00310189      -0.00384068
F        2.16628859       3.40073028       6.80407448      -0.00218728       0.00310189       0.00384766
F        2.16628797       3.40073052       3.75212402      -0.00218418       0.00309205      -0.00383562
F        3.92833537       0.90882000       6.80407517       0.00218317      -0.00309342       0.00383377
