9
Lattice="4.807533512293852 -4.4856479197856506e-08 2.77563067496743 1.602511154885324 4.532585949043663 2.7756306292208053 6.567861517447968e-09 -5.1383725298411183e-08 5.551261338558964" Properties=species:S:1:pos:R:3:forces:R:3 energy=-34.32592010498047 free_energy=-34.32592010498047 stress="0.00048629415687173605 -7.2169057396820335e-09 7.041304206367727e-10 -7.2169057396820335e-09 0.00048631912795826793 -1.680815664428792e-08 7.041304206367727e-10 -1.680815664428792e-08 0.0004862779751420021" pbc="T T T"
Ag       1.60251107       1.13314679       2.77563065      -0.00000004       0.00000025      -0.00000018
Ag       4.80753326       3.39943949       8.32689182      -0.00000024       0.00000025      -0.00000001
Co      -0.00000019       0.00000010       0.00000000       0.00000089      -0.00000201       0.00000101
F        1.51558802       1.07168215       5.55126123      -0.00040817      -0.00028852      -0.00000002
F        4.89445705       3.46090345       5.55126142       0.00040872       0.00028895       0.00000013
F        4.04973972       1.07168221       4.08816808       0.00020390      -0.00028862      -0.00035320
F        2.36030510       3.46090355       7.01435475      -0.00020424       0.00028898       0.00035329
F        2.36030500       3.46090359       4.08816809      -0.00020432       0.00028878      -0.00035344
F        4.04973970       1.07168220       7.01435451       0.00020368      -0.00028832       0.00035276
