9
Lattice="6.783327356322924 2.496015302843525e-08 3.916355897509266 2.2611091587406524 6.395382492783053 3.9163558690452476 6.006390472315463e-08 7.610476827149654e-09 7.832711690984725" Properties=species:S:1:pos:R:3:forces:R:3 energy=-14.815852165222168 free_energy=-14.815852165222168 stress="8.204884943552315e-05 -8.170969678644724e-09 6.023125997955958e-09 -8.170969678644724e-09 8.206381608033553e-05 -9.094724084945938e-09 6.023125997955958e-09 -9.094724084945938e-09 8.205443737097085e-05" pbc="T T T"
Ag       2.26110911       1.59884546       3.91635588      -0.00000003      -0.00000049      -0.00000041
Ag       6.78332754       4.79653683      11.74906763      -0.00000002       0.00000015       0.00000005
Cd       0.00000009       0.00000004      -0.00000009       0.00000068       0.00000006       0.00000030
I        2.40394024       1.69984236       7.83271165      -0.00149310      -0.00105672      -0.00000013
I        6.64049630       4.69554026       7.83271163       0.00149319       0.00105572       0.00000033
I        5.58135737       1.69984255       5.99822920       0.00074656      -0.00105600      -0.00129242
I        3.46307914       4.69554007       9.66719401      -0.00074664       0.00105634       0.00129418
I        3.46307915       4.69553987       5.99822962      -0.00074787       0.00105740      -0.00129451
I        5.58135734       1.69984260       9.66719436       0.00074723      -0.00105645       0.00129272
