9
Lattice="6.048457297642497 -1.343098964430593e-07 3.4920785237769505 2.016152299470354 5.702540321814206 3.4920785349463035 -5.771860928999638e-08 -2.7133656791324903e-08 6.984157147525536" Properties=species:S:1:pos:R:3:forces:R:3 energy=-27.930419921875 free_energy=-27.930419921875 stress="4.3283114791847765e-05 -4.93167355841706e-08 7.779146216080335e-09 -4.93167355841706e-08 4.331267700763419e-05 -1.039490271637078e-09 7.779146216080335e-09 -1.039490271637078e-09 4.3338193790987134e-05" pbc="T T T"
Ag       2.01615260       1.42563516       3.49207846       0.00000036      -0.00000013      -0.00000004
Ag       6.04845702       4.27690521      10.47623577      -0.00000008      -0.00000007      -0.00000028
Cr      -0.00000071      -0.00000013       0.00000065       0.00001464      -0.00000104      -0.00001144
Br       1.98725508       1.40520161       6.98415723      -0.00102018      -0.00072240      -0.00000079
Br       6.07735514       4.29733923       6.98415712       0.00100976       0.00071306      -0.00000024
Br       5.05482969       1.40520121       5.21309187       0.00050692      -0.00071543      -0.00087569
Br       3.00978025       4.29733801       8.75522148      -0.00051382       0.00072691       0.00088982
Br       3.00978003       4.29733851       5.21309224      -0.00050953       0.00072057      -0.00088424
Br       5.05482903       1.40520182       8.75522192       0.00051183      -0.00072144       0.00088277
