9
Lattice="6.414658320867679 -5.4599418933446037e-08 3.7035047971316217 2.1382193225034682 6.047798131682543 3.7035049119819745 -6.309314348083646e-08 9.604883898202955e-08 7.407009703543745" Properties=species:S:1:pos:R:3:forces:R:3 energy=-20.267215728759766 free_energy=-20.267215728759766 stress="-6.246913835639134e-05 8.042624899395889e-10 -9.748103435569533e-10 8.042624899395889e-10 -6.249400757951662e-05 -2.305383217660051e-09 -9.748103435569533e-10 -2.305383217660051e-09 -6.247330748010427e-05" pbc="T T T"
Ag       2.13821949       1.51194945       3.70350483       0.00000041      -0.00000013      -0.00000006
Ag       6.41465817       4.53584851      11.11051464      -0.00000020       0.00000001       0.00000021
Co      -0.00000004       0.00000016       0.00000003      -0.00000013       0.00000072      -0.00000011
I        2.13880141       1.51236090       7.40700965       0.00232507       0.00164397      -0.00000083
I        6.41407624       4.53543729       7.40700965      -0.00232564      -0.00164450      -0.00000016
I        5.34525756       1.51236094       5.55576127      -0.00116257       0.00164397       0.00201416
I        3.20762001       4.53543713       9.25825795       0.00116240      -0.00164381      -0.00201404
I        3.20762014       4.53543700       5.55576144       0.00116314      -0.00164454       0.00201422
I        5.34525737       1.51236128       9.25825820      -0.00116249       0.00164428      -0.00201346
