9
Lattice="4.975162488690291 -7.897963645847244e-08 2.8724114682869155 1.658387465357797 4.690627862577531 2.87241139278611 6.321401041438797e-08 -4.7770165978393715e-08 5.744822827083958" Properties=species:S:1:pos:R:3:forces:R:3 energy=-32.67508316040039 free_energy=-32.67508316040039 stress="-0.0002544894232414663 4.575744938506432e-08 1.694978735145014e-08 4.575744938506432e-08 -0.0002545956231188029 -2.5955984028769308e-08 1.694978735145014e-08 -2.5955984028769308e-08 -0.0002545499592088163" pbc="T T T"
Ag       1.65838777       1.17265677       2.87241155       0.00000027       0.00000040       0.00000037
Ag       4.97516231       3.51797096       8.61723432       0.00000049      -0.00000026      -0.00000041
Ca       0.00000009      -0.00000007      -0.00000018       0.00000034      -0.00000245       0.00000053
F        1.76671298       1.24925459       5.74482270      -0.00225365      -0.00159420      -0.00000016
F        4.86683718       3.44137297       5.74482289       0.00225446       0.00159448       0.00000016
F        4.09180581       1.24925461       4.40242964       0.00112700      -0.00159411      -0.00195348
F        2.54174387       3.44137322       7.08721602      -0.00112796       0.00159459       0.00195429
F        2.54174400       3.44137335       4.40243007      -0.00112808       0.00159678      -0.00195493
F        4.09180611       1.24925457       7.08721581       0.00112718      -0.00159542       0.00195386
