9
Lattice="5.708200682949563 -3.734417443950654e-08 3.2956313366911987 1.9027335376624583 5.381743310451584 3.2956313161011463 -8.548596593178458e-09 -3.126239671730345e-08 6.591262688188947" Properties=species:S:1:pos:R:3:forces:R:3 energy=-21.970674514770508 free_energy=-21.970674514770508 stress="0.00011500861728563905 -7.412178426591254e-09 -2.825068179390655e-09 -7.412178426591254e-09 0.00011492350313346833 5.184472406938312e-09 -2.825068179390655e-09 5.184472406938312e-09 0.0001149468298535794" pbc="T T T"
Ag       1.90273342       1.34543583       3.29563129      -0.00000033       0.00000042      -0.00000003
Ag       5.70820075       4.03630745       9.88689404       0.00000028      -0.00000022       0.00000004
Cu      -0.00000010       0.00000013      -0.00000036       0.00000303      -0.00000286       0.00000334
Cl       1.88474212       1.33271431       6.59126270      -0.00000215      -0.00000134      -0.00000233
Cl       5.72619183       4.04902924       6.59126283       0.00000292      -0.00000075       0.00000047
Cl       4.76582922       1.33271417       4.92786601       0.00000218      -0.00000313      -0.00000063
Cl       2.84510471       4.04902874       8.25465903      -0.00000221       0.00000247       0.00000653
Cl       2.84510506       4.04902934       4.92786662      -0.00000384       0.00000286      -0.00000596
Cl       4.76582981       1.33271370       8.25465925       0.00000009       0.00000268      -0.00000143
