9
Lattice="4.80477826558128 4.871400938182988e-08 2.7740399437648726 1.601592793079476 4.529988290550749 2.774039957694516 4.061739744534845e-08 4.578111566385483e-08 5.548079817178344" Properties=species:S:1:pos:R:3:forces:R:3 energy=-34.32598114013672 free_energy=-34.32598114013672 stress="0.0001529962319182232 4.1983172494042265e-09 -2.7820826531410603e-08 4.1983172494042265e-09 0.0001530132140032947 1.5362239480509743e-08 -2.7820826531410603e-08 1.5362239480509743e-08 0.0001529614528408274" pbc="T T T"
Ag       1.60159286       1.13249726       2.77403996       0.00000014       0.00000019      -0.00000021
Ag       4.80477822       3.39749135       8.32212003      -0.00000014       0.00000020       0.00000017
Co       0.00000018       0.00000017       0.00000018      -0.00000196      -0.00000307       0.00000364
F        1.51548396       1.07160851       5.54807978      -0.00154465      -0.00109186       0.00000043
F        4.89088690       3.45837951       5.54807938       0.00154912       0.00109480       0.00000194
F        4.04703599       1.07160932       4.08648719       0.00077434      -0.00109588      -0.00133982
F        2.35933459       3.45837972       7.00967242      -0.00077181       0.00109141       0.00133696
F        2.35933513       3.45837923       4.08648722      -0.00077653       0.00109497      -0.00134005
F        4.04703676       1.07160852       7.00967279       0.00077150      -0.00109076       0.00133669
