9
Lattice="6.427991937048022 1.2272071859705748e-09 3.711202794580723 2.142663969505451 6.060368996523123 3.7112028130574592 -1.2529682341910785e-08 1.3769422066465725e-08 7.422405610863481" Properties=species:S:1:pos:R:3:forces:R:3 energy=-17.0484619140625 free_energy=-17.0484619140625 stress="-0.00012955030251760036 2.7884197173477787e-09 1.978784691658575e-09 2.7884197173477787e-09 -0.0001295713009312749 -1.5595807978385778e-09 1.978784691658575e-09 -1.5595807978385778e-09 -0.0001295647380175069" pbc="T T T"
Ag       2.14266403       1.51509251       3.71120272      -0.00000086      -0.00000021      -0.00000030
Ag       6.42799205       4.54527679      11.13360859       0.00000052       0.00000018       0.00000061
Cu       0.00000000       0.00000008       0.00000017      -0.00000007       0.00000008      -0.00000064
I        2.18373776       1.54413596       7.42240562      -0.00374605      -0.00264775      -0.00000014
I        6.38691795       4.51623291       7.42240542       0.00374584       0.00264756      -0.00000023
I        5.33612317       1.54413578       5.60237537       0.00187227      -0.00264818      -0.00324392
I        3.23453293       4.51623296       9.24243585      -0.00187242       0.00264853       0.00324414
I        3.23453289       4.51623332       5.60237535      -0.00187263       0.00264828      -0.00324328
I        5.33612279       1.54413574       9.24243579       0.00187340      -0.00264850       0.00324375
