9
Lattice="4.81467705918602 3.291072130758343e-08 2.7797550852848474 1.6048924042892376 4.539321168517201 2.7797550502996464 2.8396482143558618e-08 -2.2768569804141325e-08 5.5595101213855" Properties=species:S:1:pos:R:3:forces:R:3 energy=-30.774898529052734 free_energy=-30.774898529052734 stress="0.0002637920842971653 -7.801904899906731e-09 1.65075881852772e-08 -7.801904899906731e-09 0.0002637541329022497 -1.4248223934032467e-08 1.65075881852772e-08 -1.4248223934032467e-08 0.00026374170556664467" pbc="T T T"
Ag       1.60489222       1.13483025       2.77975516      -0.00000036      -0.00000042       0.00000012
Ag       4.81467707       3.40449071       8.33926534       0.00000002       0.00000012      -0.00000022
Cu      -0.00000000      -0.00000001      -0.00000024      -0.00000007       0.00000335      -0.00000552
F        1.53216083       1.08340141       5.55951010       0.00165296       0.00116929      -0.00000036
F        4.88740864       3.45591983       5.55951015      -0.00165397      -0.00116953       0.00000052
F        4.04859685       1.08340133       4.10664512      -0.00082685       0.00116915       0.00143242
F        2.37097270       3.45592005       7.01237516       0.00082694      -0.00116912      -0.00143200
F        2.37097282       3.45592000       4.10664511       0.00082704      -0.00117055       0.00143433
F        4.04859690       1.08340115       7.01237506      -0.00082588       0.00116786      -0.00142929
