9
Lattice="6.535246820720589 -4.4249873359184015e-08 3.773126470090425 2.178415538590496 6.161489612968081 3.7731265161580296 -6.177194004908007e-08 1.2741725318354644e-08 7.546253047172968" Properties=species:S:1:pos:R:3:forces:R:3 energy=-24.39832878112793 free_energy=-24.39832878112793 stress="-1.6601312381681055e-05 3.463938913483844e-09 1.6328537411069988e-09 3.463938913483844e-09 -1.6597592548350804e-05 -2.437675616917545e-09 1.6328537411069988e-09 -2.437675616917545e-09 -1.6610159946139902e-05" pbc="T T T"
Ag       2.17841519       1.54037265       3.77312620      -0.00000054       0.00000014      -0.00000052
Ag       6.53524641       4.62111637      11.31938018      -0.00000087      -0.00000111       0.00000054
Cr      -0.00000046       0.00000041       0.00000016       0.00000512      -0.00000187      -0.00000204
I        2.16266839       1.52923753       7.54625294      -0.00017919      -0.00012597      -0.00000014
I        6.55099426       4.63225245       7.54625292       0.00017687       0.00012472      -0.00000006
I        5.45391317       1.52923728       5.64605181       0.00008825      -0.00012370      -0.00015223
I        3.25974961       4.63225199       9.44645404      -0.00008928       0.00012619       0.00015492
I        3.25974990       4.63225259       5.64605185      -0.00008813       0.00012602      -0.00015380
I        5.45391274       1.52923709       9.44645413       0.00008783      -0.00012432       0.00015341
