9
Lattice="6.413548217647538 -6.87883432294753e-08 3.702863865831886 2.137849360199466 6.046751359631876 3.7028638326263104 1.7952174830227466e-08 -2.797428886079402e-08 7.405727700569709" Properties=species:S:1:pos:R:3:forces:R:3 energy=-20.267160415649414 free_energy=-20.267160415649414 stress="-0.00010239109542453662 9.581387239165906e-09 2.763532180871664e-10 9.581387239165906e-09 -0.00010239482799079269 1.3283748545589447e-09 2.763532180871664e-10 1.3283748545589447e-09 -0.00010240027768304572" pbc="T T T"
Ag       2.13784972       1.51168798       3.70286359       0.00000028       0.00000053      -0.00000036
Ag       6.41354835       4.53506321      11.10859205       0.00000045      -0.00000032       0.00000085
Co       0.00000013      -0.00000009      -0.00000002       0.00000173       0.00000235      -0.00000194
I        2.14011993       1.51329371       7.40572777      -0.00796922      -0.00563464      -0.00000060
I        6.41127743       4.53345718       7.40572745       0.00796998       0.00563627       0.00000095
I        5.34348813       1.51329348       5.55626273       0.00398351      -0.00563595      -0.00690225
I        3.20790928       4.53345795       9.25519320      -0.00398514       0.00563438       0.00690189
I        3.20790966       4.53345804       5.55626198      -0.00398536       0.00563402      -0.00690120
I        5.34348771       1.51329357       9.25519285       0.00398382      -0.00563669       0.00690261
