9
Lattice="6.39566054949133 -7.860184597289717e-08 3.6925361795490828 2.1318867206931102 6.029886468945038 3.692536274865226 -2.960413537194329e-08 9.580465603903845e-08 7.38507241037396" Properties=species:S:1:pos:R:3:forces:R:3 energy=-17.614948272705078 free_energy=-17.614948272705078 stress="8.070781041169539e-05 5.127112512326448e-09 -5.549574133567603e-09 5.127112512326448e-09 8.07087926659733e-05 4.239773809810998e-11 -5.549574133567603e-09 4.239773809810998e-11 8.069771865848452e-05" pbc="T T T"
Ag       2.13188658       1.50747145       3.69253631      -0.00000005       0.00000034      -0.00000023
Ag       6.39566056       4.52241494      11.07760858       0.00000013       0.00000034      -0.00000084
C        0.00000013      -0.00000037      -0.00000009      -0.00000060      -0.00000324      -0.00000111
I        2.16564629       1.53134321       7.38507263      -0.00215679      -0.00152498      -0.00000017
I        6.36190175       4.49854373       7.38507261       0.00215715       0.00152525       0.00000060
I        5.31283721       1.53134305       5.56804069       0.00107861      -0.00152475      -0.00186664
I        3.21470962       4.49854348       9.20210415      -0.00107828       0.00152594       0.00186801
I        3.21470951       4.49854352       5.56804048      -0.00107884       0.00152561      -0.00186712
I        5.31283732       1.53134302       9.20210416       0.00107867      -0.00152442       0.00186753
