9
Lattice="6.406657237558157 7.056777564289218e-08 3.6988853111275213 2.13555250212602 6.04025442041937 3.698885271161034 -3.622216184262241e-08 -7.456168340986761e-08 7.397770684993683" Properties=species:S:1:pos:R:3:forces:R:3 energy=-21.33289337158203 free_energy=-21.33289337158203 stress="0.00016055187734309584 2.151782396708768e-08 1.5861251201343407e-10 2.151782396708768e-08 0.00016053438594099134 7.862197115571234e-09 1.5861251201343407e-10 7.862197115571234e-09 0.00016052111459430307" pbc="T T T"
Ag       2.13555258       1.51006363       3.69888530       0.00000087       0.00000066      -0.00000047
Ag       6.40665727       4.53019103      11.09665598       0.00000004      -0.00000002      -0.00000038
Ca       0.00000011      -0.00000017       0.00000018      -0.00000060      -0.00000072       0.00000228
Br       2.26866752       1.60418983       7.39777061      -0.00213829      -0.00151221      -0.00000043
Br       6.27354250       4.43606447       7.39777068       0.00213799       0.00151178       0.00000016
Br       5.27232354       1.60419001       5.66360840       0.00106869      -0.00151102      -0.00185065
Br       3.26988583       4.43606440       9.13193277      -0.00106816       0.00151061       0.00184939
Br       3.26988578       4.43606471       5.66360836      -0.00106850       0.00151107      -0.00184955
Br       5.27232363       1.60418972       9.13193275       0.00106789      -0.00151015       0.00184970
