9
Lattice="5.721581789644054 4.560937631862295e-08 3.3033568554689787 1.9071939923497994 5.3943592047171265 3.303356821750308 4.0303955056284e-08 -1.2797602529968283e-08 6.606713641129374" Properties=species:S:1:pos:R:3:forces:R:3 energy=-25.809555053710938 free_energy=-25.809555053710938 stress="0.000230080695473589 -1.13195275375233e-08 5.347621012674608e-09 -1.13195275375233e-08 0.00023002813395578414 -6.541258201764322e-09 5.347621012674608e-09 -6.541258201764322e-09 0.0002300537162227556" pbc="T T T"
Ag       1.90719407       1.34858981       3.30335689       0.00000066      -0.00000003       0.00000023
Ag       5.72158189       4.04576929       9.91007059       0.00000005      -0.00000005      -0.00000020
Co       0.00000016       0.00000019       0.00000002      -0.00000033      -0.00000022       0.00000082
Cl       1.83264444       1.29587510       6.60671368      -0.00010717      -0.00007407       0.00000052
Cl       5.79613124       4.09848391       6.60671383       0.00010723       0.00007442      -0.00000000
Cl       4.80525927       1.29587521       4.89047313       0.00005303      -0.00007541      -0.00009269
Cl       2.82351628       4.09848423       8.32295388      -0.00005387       0.00007439       0.00009194
Cl       2.82351633       4.09848405       4.89047328      -0.00005350       0.00007582      -0.00009197
Cl       4.80525967       1.29587519       8.32295388       0.00005378      -0.00007436       0.00009120
