9
Lattice="6.019479267176148 -2.9074258123921814e-09 3.4753479261557114 2.0064930872285682 5.6752194489055325 3.4753479245778327 -1.1446187674007924e-08 -1.0026187625325769e-08 6.950695872136833" Properties=species:S:1:pos:R:3:forces:R:3 energy=-22.98887825012207 free_energy=-22.98887825012207 stress="0.00012052388046868145 -1.816685135658247e-09 -2.0166470715565765e-09 -1.816685135658247e-09 0.00012050274381181225 -7.480464581099966e-10 -2.0166470715565765e-09 -7.480464581099966e-10 0.00012052028614562005" pbc="T T T"
Ag       2.00649308       1.41880488       3.47534797      -0.00000009      -0.00000006       0.00000005
Ag       6.01947921       4.25641455      10.42604399      -0.00000007      -0.00000017       0.00000033
Co      -0.00000014      -0.00000003       0.00000013       0.00000025       0.00000009      -0.00000038
Br       1.98513773       1.40370433       6.95069577      -0.00060229      -0.00042537      -0.00000059
Br       6.04083452       4.27151511       6.95069589       0.00060302       0.00042614       0.00000024
Br       5.02691055       1.40370425       5.19452744       0.00030068      -0.00042577      -0.00052139
Br       2.99906193       4.27151519       8.70686405      -0.00030158       0.00042559       0.00052139
Br       2.99906205       4.27151521       5.19452750      -0.00030094       0.00042541      -0.00052176
Br       5.02691046       1.40370428       8.70686413       0.00030100      -0.00042585       0.00052211
