9
Lattice="4.8717599860906 -1.6781064158651518e-08 2.812711903453587 1.6239199767715378 4.593139341546084 2.8127119082525587 1.1199732628386384e-08 1.3796883017488483e-08 5.625423787508748" Properties=species:S:1:pos:R:3:forces:R:3 energy=-39.95389175415039 free_energy=-39.95389175415039 stress="0.00032616042881272733 -2.9678361102014605e-08 2.1935136373940622e-08 -2.9678361102014605e-08 0.0003261227102484554 2.989864711366863e-08 2.1935136373940622e-08 2.989864711366863e-08 0.0003262257669121027" pbc="T T T"
Ag       1.62392012       1.14828487       2.81271216      -0.00000009      -0.00000023       0.00000011
Ag       4.87176018       3.44485452       8.43813539      -0.00000042      -0.00000009       0.00000040
Cr      -0.00000027       0.00000008       0.00000025       0.00000946      -0.00000004      -0.00001230
F        1.53347084       1.08432782       5.62542378       0.00622882       0.00440386       0.00000024
F        4.96220921       3.50881157       5.62542393      -0.00623336      -0.00440664       0.00000124
F        4.10502423       1.08432811       4.14073699      -0.00311624       0.00440487       0.00539614
F        2.39065559       3.50881123       7.11011044       0.00311218      -0.00440085      -0.00538793
F        2.39065576       3.50881094       4.14073744       0.00311290      -0.00440295       0.00539136
F        4.10502421       1.08432815       7.11011025      -0.00311317       0.00440184      -0.00538921
