9
Lattice="4.8676039900148735 2.889479751396209e-08 2.810312437365361 1.6225347465721789 4.589221076284048 2.8103123403849946 1.1776317108072594e-07 -3.5505081178734085e-08 5.620624670759043" Properties=species:S:1:pos:R:3:forces:R:3 energy=-39.95399475097656 free_energy=-39.95399475097656 stress="5.0240651034982875e-06 3.2637256452971997e-08 -3.2687491824390236e-08 3.2637256452971997e-08 5.0007743084279355e-06 1.4720606955620497e-08 -3.2687491824390236e-08 1.4720606955620497e-08 5.03940464113839e-06" pbc="T T T"
Ag       1.62253478       1.14730526       2.81031242       0.00000014       0.00000052       0.00000026
Ag       4.86760411       3.44191583       8.43093710       0.00000012       0.00000001       0.00000058
Cr       0.00000022       0.00000067       0.00000106       0.00000424      -0.00001476      -0.00002166
F        1.53384837       1.08459438       5.62062463      -0.00014783      -0.00010229       0.00000036
F        4.95629067       3.50462669       5.62062471       0.00014718       0.00010592       0.00000170
F        4.10068015       1.08459402       4.13866313       0.00006901      -0.00009773      -0.00011903
F        2.38945849       3.50462675       7.10258573      -0.00007426       0.00010786       0.00013112
F        2.38945873       3.50462676       4.13866303      -0.00007214       0.00010295      -0.00012240
F        4.10068011       1.08459396       7.10258574       0.00007361      -0.00010242       0.00012952
