9
Lattice="5.97194756973025 1.5858722389413235e-07 3.4479056659735647 1.9906493056502343 5.630406019128898 3.4479057244776485 -3.289706688365179e-08 4.839084109443805e-08 6.895811388926509" Properties=species:S:1:pos:R:3:forces:R:3 energy=-24.101430892944336 free_energy=-24.101430892944336 stress="9.817199315875769e-05 -4.1868048583637574e-08 -5.190271323840534e-09 -4.1868048583637574e-08 9.822984429774806e-05 1.0668969707694487e-08 -5.190271323840534e-09 1.0668969707694487e-08 9.819494880503044e-05" pbc="T T T"
Ag       1.99064889       1.40760138       3.44790569      -0.00000160      -0.00000138      -0.00000026
Ag       5.97194775       4.22280489      10.34371735       0.00000114       0.00000130       0.00000156
Ca      -0.00000021      -0.00000019       0.00000035       0.00000067       0.00000071      -0.00000623
Cl       2.10310561       1.48712022       6.89581187       0.00110745       0.00078692      -0.00000113
Cl       5.85949138       4.14328580       6.89581194      -0.00110839      -0.00078329      -0.00000120
Cl       4.92039575       1.48712088       5.26924847      -0.00055587       0.00078577       0.00096230
Cl       3.04220230       4.14328640       8.52237330       0.00055354      -0.00078366      -0.00095826
Cl       3.04220162       4.14328552       5.26924840       0.00055837      -0.00078709       0.00096052
Cl       4.92039424       1.48711997       8.52237366      -0.00055522       0.00078082      -0.00095735
