9
Lattice="6.018523569725177 -1.7648138037833502e-08 3.4747962270327304 2.0061745042639467 5.674318513595345 3.474796231083904 -1.598093934932407e-08 -6.338531390994992e-09 6.949592481745212" Properties=species:S:1:pos:R:3:forces:R:3 energy=-19.485170364379883 free_energy=-19.485170364379883 stress="0.0002083716681227088 1.7949862707311581e-09 4.0576626503252555e-09 1.7949862707311581e-09 0.00020837143529206514 4.384520746469889e-09 4.0576626503252555e-09 4.384520746469889e-09 0.00020835158647969365" pbc="T T T"
Ag       2.00617432       1.41857962       3.47479617      -0.00000042      -0.00000040      -0.00000019
Ag       6.01852341       4.25573880      10.42438835      -0.00000025       0.00000003      -0.00000098
Cu      -0.00000000       0.00000004       0.00000002      -0.00000086       0.00000021      -0.00000088
Br       2.00918503       1.42070821       6.94959245      -0.00313997      -0.00221959       0.00000036
Br       6.01551309       4.25361021       6.94959261       0.00314000       0.00222105       0.00000046
Br       5.01393108       1.42070830       5.21480155       0.00157039      -0.00222012      -0.00271988
Br       3.01076707       4.25361024       8.68438364      -0.00156988       0.00221993       0.00271928
Br       3.01076708       4.25361022       5.21480148      -0.00156957       0.00221883      -0.00271860
Br       5.01393111       1.42070833       8.68438349       0.00157057      -0.00221992       0.00272021
