9
Lattice="5.661853080353823 1.0592249176655622e-07 3.2688723640134993 1.8872844721071829 5.338046604915964 3.2688723430131623 3.0094496586338484e-08 -4.44001661870733e-09 6.537744675901865" Properties=species:S:1:pos:R:3:forces:R:3 energy=-22.460540771484375 free_energy=-22.460540771484375 stress="0.00018967039068229496 2.1035829078641655e-08 7.259808754156438e-09 2.1035829078641655e-08 0.0001896474714158103 4.654951091254134e-09 7.259808754156438e-09 4.654951091254134e-09 0.00018967961659654975" pbc="T T T"
Ag       1.88728414       1.33451175       3.26887228      -0.00000063       0.00000025       0.00000000
Ag       5.66185343       4.00353470       9.80661721       0.00000003       0.00000007       0.00000012
C       -0.00000395       0.00000239       0.00000059      -0.00003843       0.00002750       0.00000505
Cl       1.78254837       1.26045218       6.53774448       0.00086180       0.00060850       0.00000061
Cl       5.76659075       4.07759538       6.53774462      -0.00084622      -0.00060290      -0.00000030
Cl       4.77058000       1.26045062       4.81260280      -0.00042043       0.00059627       0.00073080
Cl       2.77855890       4.07759436       8.26288450       0.00043420      -0.00061560      -0.00075067
Cl       2.77855887       4.07759451       4.81260469       0.00043222      -0.00061208       0.00074692
Cl       4.77057970       1.26045094       8.26288633      -0.00042242       0.00059798      -0.00073249
