9
Lattice="6.992904556961155 4.7250859170165434e-08 4.037355274868925 2.3309682175290014 6.592973819714701 4.0373552968196265 5.145700710760135e-08 6.326966820491306e-08 8.074710460611573" Properties=species:S:1:pos:R:3:forces:R:3 energy=-18.83116340637207 free_energy=-18.83116340637207 stress="9.687657438917086e-05 -8.486441771538011e-09 -2.897345918739802e-09 -8.486441771538011e-09 9.68831664067693e-05 -9.45324796219893e-09 -2.897345918739802e-09 -9.45324796219893e-09 9.688702266430482e-05" pbc="T T T"
Ag       2.33096828       1.64824346       4.03735549       0.00000032      -0.00000035       0.00000109
Ag       6.99290477       4.94473058      12.11206590       0.00000042       0.00000065       0.00000006
Ca      -0.00000028       0.00000014      -0.00000004       0.00000211       0.00000043      -0.00000039
I        2.51087342       1.77545601       8.07471003      -0.00622262      -0.00439829      -0.00000051
I        6.81299971       4.81751809       8.07471061       0.00622053       0.00439703       0.00000115
I        5.73746743       1.77545584       6.21183529       0.00311188      -0.00439965      -0.00538796
I        3.58640472       4.81751846       9.93758563      -0.00311167       0.00439861       0.00538757
I        3.58640496       4.81751762       6.21183542      -0.00311078       0.00440127      -0.00538805
I        5.73746829       1.77545549       9.93758586       0.00310981      -0.00439966       0.00538705
