9
Lattice="6.536112587005533 -3.73446088663788e-09 3.7736264567770452 2.1787042166095727 6.162306075195076 3.773626414407795 3.596639336957265e-08 -2.6459391920082976e-08 7.547252851258406" Properties=species:S:1:pos:R:3:forces:R:3 energy=-24.398324966430664 free_energy=-24.398324966430664 stress="6.485266931122169e-05 -3.6707328288088092e-09 2.2484305528536197e-09 -3.6707328288088092e-09 6.484336336143315e-05 4.012150854604268e-12 2.2484305528536197e-09 4.012150854604268e-12 6.484331242972985e-05" pbc="T T T"
Ag       2.17870412       1.54057654       3.77362642       0.00000013       0.00000003      -0.00000036
Ag       6.53611267       4.62172969      11.32087898       0.00000015       0.00000011      -0.00000046
Cr       0.00000021      -0.00000034      -0.00000108      -0.00000057       0.00000177       0.00000943
I        2.16307547       1.52952521       7.54725306      -0.00239902      -0.00169685       0.00000042
I        6.55174149       4.63278090       7.54725318       0.00239800       0.00169607      -0.00000035
I        5.45457467       1.52952535       5.64690506       0.00120134      -0.00169896      -0.00207996
I        3.26024179       4.63278087       9.44760128      -0.00119770       0.00169449       0.00207497
I        3.26024186       4.63278064       5.64690495      -0.00120125       0.00169885      -0.00207966
I        5.45457502       1.52952534       9.44760108       0.00119892      -0.00169553       0.00207586
