9
Lattice="6.048829404540147 -9.737720880803626e-08 3.4922933160164713 2.0162764213799496 5.702891035254649 3.492293238060348 -1.0100811398199408e-08 -1.0261873600251922e-07 6.984586649528079" Properties=species:S:1:pos:R:3:forces:R:3 energy=-27.930419921875 free_energy=-27.930419921875 stress="6.496794958366081e-05 -4.920259755181178e-08 1.3730838688275071e-08 -4.920259755181178e-08 6.50008296361193e-05 -1.4943379866849682e-08 1.3730838688275071e-08 -1.4943379866849682e-08 6.504140765173361e-05" pbc="T T T"
Ag       2.01627639       1.42572292       3.49229330       0.00000028       0.00000047       0.00000000
Ag       6.04882943       4.27716818      10.47687986      -0.00000015       0.00000019       0.00000011
Cr       0.00000017      -0.00000001      -0.00000043      -0.00000115       0.00000094       0.00000621
Br       1.98722586       1.40518058       6.98458666      -0.00009590      -0.00006728      -0.00000009
Br       6.07787990       4.29771014       6.98458657       0.00009554       0.00006747       0.00000046
Br       5.05521619       1.40518102       5.21328148       0.00005148      -0.00007196      -0.00008816
Br       3.00988924       4.29771011       8.75589201      -0.00004814       0.00006757       0.00008398
Br       3.00988958       4.29770967       5.21328145      -0.00005171       0.00007281      -0.00008926
Br       5.05521649       1.40518072       8.75589201       0.00004989      -0.00007029       0.00008667
