9
Lattice="6.238993043156761 6.676159228616736e-08 3.602084264584081 2.079664395901929 5.882179105803834 3.602084290149895 4.3498090055241814e-08 6.20693849748163e-08 7.204168453827196" Properties=species:S:1:pos:R:3:forces:R:3 energy=-16.998817443847656 free_energy=-16.998817443847656 stress="0.00018922321032732725 2.1793432836147986e-08 -3.022971650779027e-09 2.1793432836147986e-08 0.0001892051805043593 2.3548734073841615e-09 -3.022971650779027e-09 2.3548734073841615e-09 0.00018922142044175416" pbc="T T T"
Ag       2.07966456       1.47054471       3.60208400       0.00000032       0.00000038      -0.00000153
Ag       6.23899308       4.41163435      10.80625270      -0.00000019      -0.00000046      -0.00000018
Cd      -0.00000002       0.00000008      -0.00000009       0.00000040      -0.00000010       0.00000356
Br       2.19855089       1.55461028       7.20416860      -0.00280693      -0.00198457      -0.00000051
Br       6.12010652       4.32756910       7.20416844       0.00280738       0.00198399      -0.00000010
Br       5.13971763       1.55461033       5.50608504       0.00140356      -0.00198489      -0.00243038
Br       3.17893995       4.32756871       8.90225191      -0.00140424       0.00198482       0.00243124
Br       3.17893982       4.32756904       5.50608517      -0.00140370       0.00198451      -0.00243065
Br       5.13971755       1.55461040       8.90225229       0.00140347      -0.00198370       0.00242856
