9
Lattice="5.739742700057388 -1.7702639902604987e-07 3.313841856049769 1.9132474571820404 5.41148104407998 3.313841756633057 -1.4767487468654294e-07 -2.2618205680346303e-07 6.627683967879981" Properties=species:S:1:pos:R:3:forces:R:3 energy=-31.15513038635254 free_energy=-31.15513038635254 stress="-3.969693716499023e-05 -1.2485287470553885e-08 -1.209457956008464e-08 -1.2485287470553885e-08 -3.9712631405564025e-05 9.460584315945653e-09 -1.209457956008464e-08 9.460584315945653e-09 -3.96845061914064e-05" pbc="T T T"
Ag       1.91324731       1.35287011       3.31384185      -0.00000004      -0.00000031       0.00000005
Ag       5.73974235       4.05861052       9.94152590      -0.00000014       0.00000004      -0.00000026
Cr       0.00000032       0.00000017      -0.00000059      -0.00000327      -0.00000142       0.00000364
Cl       1.87725027       1.32741630       6.62768419      -0.00106938      -0.00075702      -0.00000012
Cl       5.77573948       4.08406439       6.62768424       0.00107163       0.00075750      -0.00000120
Cl       4.80111718       1.32741661       4.93958839       0.00053769      -0.00075866      -0.00093025
Cl       2.85187268       4.08406400       8.31577873      -0.00053620       0.00075854       0.00092930
Cl       2.85187293       4.08406399       4.93958874      -0.00053615       0.00075932      -0.00092982
Cl       4.80111764       1.32741631       8.31577865       0.00053596      -0.00075802       0.00092885
