9
Lattice="5.659320956058454 -2.6590476091166743e-08 3.26740975792119 1.8864402477858329 5.335658953291012 3.2674098373021883 9.564893449852124e-08 1.6485548717241948e-07 6.534819350173445" Properties=species:S:1:pos:R:3:forces:R:3 energy=-22.460567474365234 free_energy=-22.460567474365234 stress="-4.582223482429981e-05 1.9538736850677196e-08 3.4751767685747836e-08 1.9538736850677196e-08 -4.584610724123195e-05 1.3236783225067938e-08 3.4751767685747836e-08 1.3236783225067938e-08 -4.5948821934871376e-05" pbc="T T T"
Ag       1.88644025       1.33391477       3.26740985      -0.00000002       0.00000004       0.00000012
Ag       5.65932122       4.00174415       9.80222948       0.00000054      -0.00000042       0.00000053
C       -0.00000120      -0.00000270       0.00000164      -0.00001227      -0.00003291       0.00000870
Cl       1.78263403       1.26051250       6.53481903       0.00076009       0.00054031      -0.00000071
Cl       5.76312900       4.07514826       6.53481880      -0.00074233      -0.00052353       0.00000511
Cl       4.76800497       1.26051175       4.81121379      -0.00037768       0.00053289       0.00065750
Cl       2.77775581       4.07514813       8.25842536       0.00038208      -0.00053499      -0.00065937
Cl       2.77775651       4.07514837       4.81121268       0.00037190      -0.00052732       0.00065286
Cl       4.76800438       1.26051109       8.25842513      -0.00038254       0.00054599      -0.00066489
