9
Lattice="6.055021492970134 -2.176174796304905e-08 3.4958679341553123 2.0183406338360426 5.708728341352226 3.495867662748848 1.7055191520280257e-07 -2.1180525754838362e-07 6.991735572906013" Properties=species:S:1:pos:R:3:forces:R:3 energy=-25.725439071655273 free_energy=-25.725439071655273 stress="-0.0001243468577740714 7.331458107273647e-08 5.0937316586896486e-08 7.331458107273647e-08 -0.00012443613377399743 -5.191592222786312e-08 5.0937316586896486e-08 -5.191592222786312e-08 -0.00012455119576770812" pbc="T T T"
Ag       2.01834060       1.42718246       3.49586767       0.00000029       0.00000038       0.00000035
Ag       6.05502197       4.28154630      10.48760353      -0.00000004      -0.00000070      -0.00000048
Fe       0.00000047      -0.00000039      -0.00000013      -0.00000894      -0.00000170       0.00000799
Br       1.86063672       1.31566830       6.99173573       0.00440341       0.00311272       0.00000003
Br       6.21272527       4.39305978       6.99173541      -0.00439481      -0.00311199       0.00000156
Br       5.12470339       1.31566807       5.10722506      -0.00220381       0.00311655       0.00382414
Br       2.94865856       4.39305999       8.87624577       0.00220709      -0.00312118      -0.00382398
Br       2.94865914       4.39305943       5.10722569       0.00219961      -0.00311223       0.00381261
Br       5.12470305       1.31566835       8.87624628      -0.00220282       0.00311814      -0.00382225
