9
Lattice="5.693038068437913 8.483870777662509e-08 3.286877286491801 1.8976794921367541 5.367447654685793 3.2868771894899464 1.5408517051236864e-07 -9.847831950874208e-09 6.573754306100286" Properties=species:S:1:pos:R:3:forces:R:3 energy=-28.005582809448242 free_energy=-28.005582809448242 stress="-4.860091212322004e-05 -9.909981280031843e-09 1.2087179257491698e-08 -9.909981280031843e-09 -4.8499747208552435e-05 1.221032519538312e-08 1.2087179257491698e-08 1.221032519538312e-08 -4.850911136600189e-05" pbc="T T T"
Ag       1.89767952       1.34186192       3.28687718      -0.00000028       0.00000051       0.00000027
Ag       5.69303805       4.02558586       9.86063180       0.00000025       0.00000007       0.00000042
Fe       0.00000020       0.00000044       0.00000023       0.00000104      -0.00000933      -0.00000925
Cl       1.83152173       1.29508194       6.57375441      -0.00738335      -0.00522298      -0.00000120
Cl       5.75919579       4.07236593       6.57375473       0.00738624       0.00522348      -0.00000187
Cl       4.77727720       1.29508124       4.87302212       0.00368917      -0.00521791      -0.00639564
Cl       2.81344064       4.07236530       8.27448596      -0.00369653       0.00522903       0.00640669
Cl       2.81344071       4.07236630       4.87302261      -0.00369133       0.00522369      -0.00640118
Cl       4.77727718       1.29508215       8.27448574       0.00369485      -0.00522688       0.00640208
