9
Lattice="6.418419647917049 -1.774463117275592e-08 3.7056760741582346 2.139473156123254 6.051343867990564 3.705676148842922 -4.816876505956758e-08 5.7409234112037124e-08 7.4113522317472" Properties=species:S:1:pos:R:3:forces:R:3 energy=-22.328853607177734 free_energy=-22.328853607177734 stress="-5.369689461076632e-05 -1.758972700827144e-08 -1.3551051836202532e-08 -1.758972700827144e-08 -5.368368874769658e-05 1.7605058744152302e-08 -1.3551051836202532e-08 1.7605058744152302e-08 -5.3691212087869644e-05" pbc="T T T"
Ag       2.13947339       1.51283606       3.70567613       0.00000055      -0.00000018       0.00000001
Ag       6.41841963       4.53850805      11.11702853      -0.00000010       0.00000006       0.00000003
Fe       0.00000011       0.00000011      -0.00000046      -0.00000051      -0.00000506       0.00000725
I        1.98754271       1.40540532       7.41135217       0.00148012       0.00104642       0.00000004
I        6.57034948       4.64593874       7.41135246      -0.00147698      -0.00104639      -0.00000025
I        5.42464788       1.40540527       5.42693855      -0.00073685       0.00104307       0.00127966
I        3.13324473       4.64593882       9.39576572       0.00073740      -0.00104329      -0.00127895
I        3.13324507       4.64593845       5.42693864       0.00073729      -0.00104216       0.00127708
I        5.42464805       1.40540484       9.39576616      -0.00074108       0.00104742      -0.00128445
