9
Lattice="6.055295020170852 4.5263118880901643e-08 3.4960261565648145 2.0184317213941023 5.7089869513893134 3.4960261473340952 1.931223285748408e-08 2.350547704364258e-09 6.992052279679859" Properties=species:S:1:pos:R:3:forces:R:3 energy=-25.725446701049805 free_energy=-25.725446701049805 stress="-1.092732054530643e-05 2.219833383776404e-08 -1.5126500940709775e-08 2.219833383776404e-08 -1.0996230230375659e-05 1.9772221193647965e-08 -1.5126500940709775e-08 1.9772221193647965e-08 -1.0991862836817745e-05" pbc="T T T"
Ag       2.01843180       1.42724635       3.49602640      -0.00000019      -0.00000098      -0.00000024
Ag       6.05529489       4.28174000      10.48807861      -0.00000038       0.00000031       0.00000082
Fe      -0.00000001      -0.00000007      -0.00000057      -0.00000080       0.00000516       0.00002460
Br       1.86090804       1.31586068       6.99205213       0.00026169       0.00018580       0.00000019
Br       6.21281834       4.39312640       6.99205216      -0.00025855      -0.00018464      -0.00000009
Br       5.12484077       1.31586115       5.10761995      -0.00012672       0.00017935       0.00022015
Br       2.94888589       4.39312671       8.87648497       0.00013347      -0.00019208      -0.00023399
Br       2.94888588       4.39312630       5.10761960       0.00012725      -0.00018348       0.00022396
Br       5.12484151       1.31586045       8.87648507      -0.00013566       0.00019078      -0.00023524
