9
Lattice="6.418723708999059 -1.9628095410765225e-07 3.705852074741371 2.139574317695483 6.051630856782903 3.705852190642066 5.345508341903484e-11 1.4198661331792155e-07 7.411704149390057" Properties=species:S:1:pos:R:3:forces:R:3 energy=-22.3288516998291 free_energy=-22.3288516998291 stress="-5.245819193078205e-05 -1.1832253221655264e-07 -3.907765488975201e-08 -1.1832253221655264e-07 -5.235959179117344e-05 5.946030512404832e-08 -3.907765488975201e-08 5.946030512404832e-08 -5.22752852702979e-05" pbc="T T T"
Ag       2.13957408       1.51290836       3.70585219      -0.00000026       0.00000074       0.00000014
Ag       6.41872393       4.53872267      11.11755634       0.00000025      -0.00000092       0.00000031
Fe       0.00000028      -0.00000004       0.00000017      -0.00000927      -0.00000479      -0.00000315
I        1.98748900       1.40536638       7.41170445       0.00229610       0.00162263      -0.00000082
I        6.57080846       4.64626347       7.41170414      -0.00228617      -0.00161401      -0.00000054
I        5.42497865       1.40536881       5.42706988      -0.00113717       0.00160727       0.00196784
I        3.13331977       4.64626213       9.39633893       0.00113474      -0.00160573      -0.00196792
I        3.13331932       4.64626288       5.42706938       0.00113959      -0.00161471       0.00197662
I        5.42497867       1.40536863       9.39633823      -0.00113792       0.00160953      -0.00197233
