9
Lattice="5.693052616114561 -1.9178611938681218e-07 3.286885301658937 1.8976840518572724 5.367461042228757 3.286885254368136 3.115433461404943e-08 -3.588975118262263e-08 6.573770549356981" Properties=species:S:1:pos:R:3:forces:R:3 energy=-28.00558090209961 free_energy=-28.00558090209961 stress="-0.00034316297387704253 -1.7726096146475356e-08 1.123108361866798e-08 -1.7726096146475356e-08 -0.0003432203084230423 1.5021379695667747e-08 1.123108361866798e-08 1.5021379695667747e-08 -0.0003432340454310179" pbc="T T T"
Ag       1.89768409       1.34186505       3.28688527       0.00000056       0.00000001      -0.00000040
Ag       5.69305274       4.02559572       9.86065583       0.00000046       0.00000029      -0.00000015
Fe       0.00000072      -0.00000012      -0.00000017      -0.00000963      -0.00000125      -0.00000043
Cl       1.82985881       1.29390532       6.57377044       0.00758022       0.00536004      -0.00000127
Cl       5.76087794       4.07355597       6.57377057      -0.00757757      -0.00535864       0.00000251
Cl       4.77812348       1.29390539       4.87158887      -0.00378899       0.00535861       0.00656825
Cl       2.81261303       4.07355484       8.27595235       0.00379181      -0.00535762      -0.00656688
Cl       2.81261320       4.07355595       4.87158897       0.00379057      -0.00536162       0.00656521
Cl       4.77812269       1.29390508       8.27595243      -0.00378741       0.00536019      -0.00656730
