9
Lattice="4.819270659797374 -2.6212683132562965e-08 2.782407317327206 1.606423544166573 4.5436518877442555 2.7824072902824084 2.727871938158006e-08 -1.3834018862559841e-08 5.564814587406302" Properties=species:S:1:pos:R:3:forces:R:3 energy=-36.77882766723633 free_energy=-36.77882766723633 stress="0.0001493012096034363 -5.470791819561782e-09 -3.4501979051526632e-09 -5.470791819561782e-09 0.000149480503750965 1.155460438440059e-08 -3.4501979051526632e-09 1.155460438440059e-08 0.000149394225445576" pbc="T T T"
Ag       1.60642347       1.13591295       2.78240720       0.00000004       0.00000010      -0.00000013
Ag       4.81927091       3.40773886       8.34722202      -0.00000025      -0.00000025       0.00000010
Fe       0.00000003      -0.00000012       0.00000010       0.00000353       0.00000313       0.00000242
F        1.55086918       1.09663031       5.56481462       0.00189331       0.00133818      -0.00000080
F        4.87482494       3.44702168       5.56481462      -0.00189582      -0.00134021      -0.00000017
F        4.04383606       1.09663025       4.12549937      -0.00094758       0.00133890       0.00164190
F        2.38185830       3.44702159       7.00412967       0.00094710      -0.00133920      -0.00164264
F        2.38185819       3.44702162       4.12549955       0.00094651      -0.00133845       0.00164050
F        4.04383581       1.09663030       7.00412965      -0.00094637       0.00133783      -0.00164089
