9
Lattice="4.818403715619766 9.964627815481465e-08 2.781906791698995 1.606134638379817 4.5428349748858645 2.781906839227985 -2.314759506657852e-08 4.1842985828668517e-08 5.563813623490865" Properties=species:S:1:pos:R:3:forces:R:3 energy=-36.778839111328125 free_energy=-36.778839111328125 stress="4.149180313106626e-05 -1.0021647511848641e-08 1.1045939274367811e-08 -1.0021647511848641e-08 4.136825737077743e-05 -2.2922986175899496e-08 1.1045939274367811e-08 -2.2922986175899496e-08 4.1422161302762106e-05" pbc="T T T"
Ag       1.60613460       1.13570870       2.78190680      -0.00000038       0.00000009      -0.00000016
Ag       4.81840368       3.40712639       8.34572051       0.00000006      -0.00000017       0.00000020
Fe      -0.00000002      -0.00000030      -0.00000036      -0.00000383       0.00000760       0.00000795
F        1.55090846       1.09665857       5.56381371       0.00062001       0.00043872      -0.00000025
F        4.87362979       3.44617706       5.56381372      -0.00062129      -0.00044036      -0.00000010
F        4.04294934       1.09665835       4.12503321      -0.00030848       0.00043640       0.00053427
F        2.38158884       3.44617679       7.00259412       0.00031264      -0.00044149      -0.00054175
F        2.38158900       3.44617699       4.12503311       0.00031179      -0.00044057       0.00053844
F        4.04294943       1.09665801       7.00259419      -0.00031082       0.00044003      -0.00053886
