9
Lattice="6.665761289753507 -7.001277610564464e-08 3.848479131743179 2.2219203581808764 6.284540095630617 3.8484791416649 -2.7706143052484192e-08 -7.4396118455005414e-09 7.696958311474757" Properties=species:S:1:pos:R:3:forces:R:3 energy=-18.335371017456055 free_energy=-18.335371017456055 stress="0.00011116566747659817 -7.802703372306041e-09 4.389887120481717e-09 -7.802703372306041e-09 0.00011115938104921952 -9.181934323976293e-09 4.389887120481717e-09 -9.181934323976293e-09 0.00011117531539639458" pbc="T T T"
Ag       2.22192017       1.57113502       3.84847926      -0.00000053      -0.00000006       0.00000049
Ag       6.66576135       4.71340508      11.54543732       0.00000032       0.00000002      -0.00000078
Ge      -0.00000005      -0.00000001      -0.00000014      -0.00000009      -0.00000018      -0.00000061
I        2.31480191       1.63681220       7.69695825      -0.00315642      -0.00223164      -0.00000022
I        6.57287970       4.64772791       7.69695828       0.00315624       0.00223160       0.00000031
I        5.50836017       1.63681213       5.85315670       0.00157844      -0.00223196      -0.00273319
I        3.37932149       4.64772792       9.54076003      -0.00157781       0.00223194       0.00273366
I        3.37932135       4.64772788       5.85315665      -0.00157829       0.00223218      -0.00273326
I        5.50836037       1.63681195       9.54076004       0.00157812      -0.00223193       0.00273356
