9
Lattice="4.929908358684823 7.641110604775293e-08 2.84628388210716 1.6433028596110193 4.647962376021386 2.8462838797832886 2.099281794208425e-10 -2.6976682857608514e-09 5.692567763850687" Properties=species:S:1:pos:R:3:forces:R:3 energy=-37.669715881347656 free_energy=-37.669715881347656 stress="0.0003319251409266144 2.201126747536364e-08 2.2519794029562945e-08 2.201126747536364e-08 0.0003319443203508854 -1.564377072327261e-08 2.2519794029562945e-08 -1.564377072327261e-08 0.0003318314556963742" pbc="T T T"
Ag       1.64330288       1.16199057       2.84628401      -0.00000009       0.00000011       0.00000015
Ag       4.92990818       3.48597183       8.53885156       0.00000016      -0.00000037      -0.00000001
Ge       0.00000014      -0.00000005      -0.00000004      -0.00000136      -0.00000243      -0.00000170
F        1.50047297       1.06099459       5.69256769       0.00627798       0.00443858       0.00000012
F        5.07273824       3.58696780       5.69256794      -0.00627506      -0.00443530       0.00000024
F        4.17967202       1.06099469       4.14573139      -0.00314039       0.00443834       0.00543815
F        2.39353935       3.58696783       7.23940409       0.00313860      -0.00443816      -0.00543785
F        2.39353931       3.58696774       4.14573147       0.00313875      -0.00443792       0.00543714
F        4.17967182       1.06099483       7.23940398      -0.00313875       0.00443709      -0.00543684
