9
Lattice="6.6630570632363035 1.9922074297684024e-07 3.846917562686142 2.221019204472102 6.281990287072882 3.8469175703657426 2.15929781821323e-08 2.4674141228419453e-08 7.693835087971961" Properties=species:S:1:pos:R:3:forces:R:3 energy=-18.335397720336914 free_energy=-18.335397720336914 stress="-4.4360927859088406e-05 2.1836052965795716e-09 3.8590068918153975e-09 2.1836052965795716e-09 -4.436780363903381e-05 -2.01533345567384e-09 3.8590068918153975e-09 -2.01533345567384e-09 -4.437323150341399e-05" pbc="T T T"
Ag       2.22101881       1.57049844       3.84691730      -0.00000031       0.00000155      -0.00000020
Ag       6.66305805       4.71149271      11.54075292       0.00000176      -0.00000032       0.00000057
Ge      -0.00000002      -0.00000015      -0.00000014       0.00000001       0.00000009      -0.00000003
I        2.31289065       1.63546052       7.69383528       0.00055408       0.00039189      -0.00000006
I        6.57118569       4.64652979       7.69383471      -0.00055411      -0.00039198      -0.00000077
I        5.50661241       1.63546052       5.84993945      -0.00027722       0.00039184       0.00048004
I        3.37746400       4.64652966       9.53773094       0.00027622      -0.00039220      -0.00047995
I        3.37746370       4.64652968       5.84993917       0.00027663      -0.00039251       0.00048007
I        5.50661189       1.63546087       9.53773125      -0.00027715       0.00039162      -0.00047959
