9
Lattice="5.787526335450853 -6.095526375946653e-08 3.3414301554968726 1.9291753831383154 5.456532557013518 3.341430163365216 -3.650895000751599e-08 -1.617901742772315e-08 6.6828603742290795" Properties=species:S:1:pos:R:3:forces:R:3 energy=-25.6724853515625 free_energy=-25.6724853515625 stress="-3.011257831531111e-05 -1.9059200440096902e-08 -1.9108659543576323e-08 -1.9059200440096902e-08 -3.0077255360083655e-05 7.9825497323327e-09 -1.9108659543576323e-08 7.9825497323327e-09 -3.012873639818281e-05" pbc="T T T"
Ag       1.92917551       1.36413303       3.34143026       0.00000005      -0.00000035      -0.00000012
Ag       5.78752627       4.09239937      10.02429048      -0.00000015       0.00000043      -0.00000025
Ge      -0.00000010       0.00000014       0.00000003       0.00000143       0.00000058      -0.00000194
Cl       1.86778957       1.32072680       6.68286123       0.00041494       0.00029324       0.00000034
Cl       5.84891234       4.13580548       6.68286114      -0.00041738      -0.00029446       0.00000088
Cl       4.85363115       1.32072733       4.95898301      -0.00020872       0.00029418       0.00035837
Cl       2.86307028       4.13580555       8.40673671       0.00020593      -0.00028963      -0.00035718
Cl       2.86307041       4.13580539       4.95898354       0.00020887      -0.00029403       0.00035822
Cl       4.85363136       1.32072671       8.40673641      -0.00020467       0.00028965      -0.00035772
