9
Lattice="4.928010106842085 -1.9434142069032361e-07 2.8451879900138892 1.6426699327154544 4.64617229942543 2.8451878508812367 3.773798131344746e-09 -1.677336009404365e-07 5.690375973491334" Properties=species:S:1:pos:R:3:forces:R:3 energy=-37.66978073120117 free_energy=-37.66978073120117 stress="0.0004472344007808715 -7.916133171192996e-08 -1.2915660541068519e-08 -7.916133171192996e-08 0.00044743064790964127 6.949435249481439e-09 -1.2915660541068519e-08 6.949435249481439e-09 0.0004475172027014196" pbc="T T T"
Ag       1.64267008       1.16154302       2.84518790       0.00000002       0.00000026       0.00000028
Ag       4.92801004       3.48462888       8.53556401      -0.00000014      -0.00000018      -0.00000077
Ge      -0.00000007      -0.00000006      -0.00000011       0.00000628       0.00000145       0.00000256
F        1.50094294       1.06132681       5.69037579      -0.00484818      -0.00343025       0.00000008
F        5.06973725       3.58484531       5.69037597       0.00484091       0.00342530       0.00000040
F        4.17753841       1.06132703       4.14504303       0.00242600      -0.00343192      -0.00420260
F        2.39314155       3.58484506       7.23570892      -0.00242475       0.00343210       0.00420111
F        2.39314143       3.58484477       4.14504291      -0.00242534       0.00343317      -0.00420266
F        4.17753830       1.06132678       7.23570883       0.00242522      -0.00342977       0.00420028
