9
Lattice="6.10239981212885 2.4321933098149512e-08 3.5232223015776327 2.034133308751619 5.753397937326956 3.523222275404466 -5.414671767733417e-08 -7.034290820721819e-08 7.046444696940134" Properties=species:S:1:pos:R:3:forces:R:3 energy=-21.75931167602539 free_energy=-21.75931167602539 stress="0.0001182406849693507 3.9928282902224055e-09 -2.352538164274165e-09 3.9928282902224055e-09 0.00011824509419966489 -2.5180106888456066e-09 -2.352538164274165e-09 -2.5180106888456066e-09 0.00011822111991932616" pbc="T T T"
Ag       2.03413297       1.43834899       3.52322301      -0.00000035      -0.00000088       0.00000095
Ag       6.10239982       4.31504742      10.56966726       0.00000003      -0.00000116       0.00000003
Ge       0.00000021       0.00000032       0.00000038      -0.00000081      -0.00000302      -0.00000571
Br       2.00823665       1.42003781       7.04644447      -0.00000584      -0.00000338      -0.00000127
Br       6.12829610       4.33336035       7.04644439       0.00000983       0.00000729      -0.00000112
Br       5.09828183       1.42003789       5.26240602       0.00000156      -0.00000187      -0.00000411
Br       3.03825178       4.33336011       8.83048264      -0.00000668       0.00000768       0.00000857
Br       3.03825164       4.33336055       5.26240600      -0.00000264       0.00000258      -0.00000489
Br       5.09828122       1.42003813       8.83048287       0.00000487      -0.00000717       0.00000763
