9
Lattice="5.789593541851832 -5.339812160774091e-08 3.3426233033577106 1.9298644625534014 5.458481082842632 3.3426233051814886 -2.982737863474948e-08 -1.885745357694739e-08 6.685246658377939" Properties=species:S:1:pos:R:3:forces:R:3 energy=-25.67246437072754 free_energy=-25.67246437072754 stress="0.00019871359108947217 -1.1154651424760686e-08 -2.1061396182631142e-08 -1.1154651424760686e-08 0.00019874086137861013 3.3821967448943724e-10 -2.1061396182631142e-08 3.3821967448943724e-10 0.0001986863644560799" pbc="T T T"
Ag       1.92986450       1.36462016       3.34262324      -0.00000008       0.00000022      -0.00000009
Ag       5.78959352       4.09386076      10.02787003      -0.00000003      -0.00000028      -0.00000001
Ge       0.00000012      -0.00000007       0.00000040      -0.00000270       0.00000121      -0.00000644
Cl       1.86795407       1.32084271       6.68524667      -0.00105396      -0.00074509       0.00000014
Cl       5.85150396       4.13763803       6.68524678       0.00105721       0.00074759      -0.00000168
Cl       4.85561635       1.32084284       4.96031861       0.00052597      -0.00074379      -0.00091186
Cl       2.86384187       4.13763800       8.41017419      -0.00053075       0.00074807       0.00091401
Cl       2.86384106       4.13763853       4.96031877      -0.00052345       0.00074129      -0.00090837
Cl       4.85561649       1.32084301       8.41017434       0.00052787      -0.00074895       0.00091428
