9
Lattice="4.993806064374086 -3.0647091359935774e-08 2.8831754126835722 1.6646019620744614 4.708205638758966 2.883175465492439 -9.475128915542304e-09 5.7977485193182205e-08 5.766350841778522" Properties=species:S:1:pos:R:3:forces:R:3 energy=-24.98107147216797 free_energy=-24.98107147216797 stress="0.00023488840088248253 -1.757935308432934e-08 -2.1850295794934027e-08 -1.757935308432934e-08 0.00023486696591135114 -3.4630811995839395e-08 -2.1850295794934027e-08 -3.4630811995839395e-08 0.00023495462664868683" pbc="T T T"
Ag       1.66460212       1.17705132       2.88317569       0.00000048      -0.00000001       0.00000027
Ag       4.99380602       3.53115435       8.64952622       0.00000013      -0.00000013       0.00000001
Hg      -0.00000002       0.00000012       0.00000009       0.00000255      -0.00000317      -0.00000065
F        1.73146178       1.22432818       5.76635071       0.00410819       0.00290465       0.00000007
F        4.92694623       3.48387747       5.76635070      -0.00410777      -0.00290418      -0.00000067
F        4.12807511       1.22432850       4.38266541      -0.00205341       0.00290418       0.00355685
F        2.53033297       3.48387718       7.15003634       0.00205243      -0.00290281      -0.00355512
F        2.53033279       3.48387724       4.38266552       0.00205201      -0.00290257       0.00355536
F        4.12807510       1.22432854       7.15003620      -0.00205421       0.00290412      -0.00355661
