9
Lattice="6.240051939086779 1.4374847111339825e-08 3.602695622047247 2.0800173029696136 5.883177516864444 3.6026956629445532 6.714418484842375e-08 9.756685520191507e-08 7.205391127797392" Properties=species:S:1:pos:R:3:forces:R:3 energy=-15.450305938720703 free_energy=-15.450305938720703 stress="0.00018287317652720958 -5.419781512472355e-09 6.124436513488263e-09 -5.419781512472355e-09 0.00018287151760887355 9.42244327006847e-09 6.124436513488263e-09 9.42244327006847e-09 0.00018288192222826183" pbc="T T T"
Ag       2.08001753       1.47079492       3.60269529       0.00000023       0.00000041      -0.00000092
Ag       6.24005168       4.41238283      10.80808697      -0.00000015      -0.00000064       0.00000080
Hg       0.00000023       0.00000002      -0.00000009      -0.00000227       0.00000134       0.00000072
Br       2.20848282       1.56163308       7.20539120      -0.00287414      -0.00203052       0.00000075
Br       6.11158640       4.32154413       7.20539127       0.00287512       0.00203300      -0.00000054
Br       5.13581059       1.56163312       5.51529789       0.00143790      -0.00203344      -0.00249121
Br       3.18425877       4.32154459       8.89548500      -0.00143717       0.00203097       0.00248736
Br       3.18425869       4.32154455       5.51529749      -0.00143676       0.00203162      -0.00248802
Br       5.13581054       1.56163321       8.89548470       0.00143719      -0.00203273       0.00249082
