9
Lattice="6.751013407649066 -4.4506205284008345e-08 3.897699404366438 2.2503377733303056 6.3649165309453775 3.8976993822975423 2.799870119721432e-08 -7.2306490035276525e-09 7.7953987602377435" Properties=species:S:1:pos:R:3:forces:R:3 energy=-13.311588287353516 free_energy=-13.311588287353516 stress="5.85485904593952e-05 8.170621512704201e-09 -4.173494438930447e-09 8.170621512704201e-09 5.854360279045068e-05 4.9625259457286575e-09 -4.173494438930447e-09 4.9625259457286575e-09 5.853270340594463e-05" pbc="T T T"
Ag       2.25033832       1.59122921       3.89769932       0.00000023      -0.00000037      -0.00000019
Ag       6.75101320       4.77368728      11.69309776      -0.00000024       0.00000035      -0.00000017
Hg       0.00000003       0.00000001       0.00000025      -0.00000094       0.00000044      -0.00000100
I        2.41000705       1.70413219       7.79539884      -0.00064942      -0.00045943      -0.00000062
I        6.59134380       4.66078401       7.79539876       0.00064927       0.00046092      -0.00000022
I        5.54600984       1.70413237       5.98482694       0.00032434      -0.00045906      -0.00056347
I        3.45534160       4.66078398       9.60597090      -0.00032483       0.00045958       0.00056234
I        3.45534129       4.66078426       5.98482667      -0.00032412       0.00045799      -0.00056064
I        5.54600970       1.70413264       9.60597077       0.00032572      -0.00046039       0.00056410
