9
Lattice="6.343706230921807 -7.499019853307446e-08 3.662540782751284 2.114568638525886 5.980903985674837 3.6625408423567976 -1.4714491386810302e-08 6.259692765523348e-08 7.325081590988787" Properties=species:S:1:pos:R:3:forces:R:3 energy=-31.60226058959961 free_energy=-31.60226058959961 stress="3.2538900995859876e-05 -6.14370705420697e-08 -2.5919828061660155e-08 -6.14370705420697e-08 3.258254218962975e-05 3.0479359480750645e-08 -2.5919828061660155e-08 3.0479359480750645e-08 3.2629304769216105e-05" pbc="T T T"
Ag       2.11456885       1.49522585       3.66254073       0.00000078       0.00000013       0.00000008
Ag       6.34370596       4.48567801      10.98762235      -0.00000043      -0.00000010      -0.00000039
Hf      -0.00000006       0.00000001      -0.00000040      -0.00000007      -0.00000271       0.00000369
Br       2.12636393       1.50356638       7.32508121      -0.00479676      -0.00339127       0.00000130
Br       6.33191088       4.47733742       7.32508149       0.00479782       0.00339204       0.00000102
Br       5.28052344       1.50356736       5.50402703       0.00240411      -0.00339986      -0.00416210
Br       3.17775111       4.47733723       9.14613675      -0.00240194       0.00339733       0.00416075
Br       3.17775137       4.47733666       5.50402700      -0.00240253       0.00339764      -0.00416079
Br       5.28052393       1.50356695       9.14613677       0.00239907      -0.00339324       0.00415635
