9
Lattice="5.029317322386037 4.778922191090868e-08 2.903677706333337 1.676439162396632 4.741685703820812 2.9036776892231924 -1.9175308854143875e-08 -3.451451336657176e-08 5.807355445879292" Properties=species:S:1:pos:R:3:forces:R:3 energy=-49.085208892822266 free_energy=-49.085208892822266 stress="0.0005457340157590806 7.646566047014858e-08 6.232045279830345e-08 7.646566047014858e-08 0.0005457017687149346 -7.004718582948044e-08 6.232045279830345e-08 -7.004718582948044e-08 0.0005456340732052922" pbc="T T T"
Ag       1.67643930       1.18542135       2.90367755      -0.00000013      -0.00000008      -0.00000002
Ag       5.02931749       3.55626439       8.71103330       0.00000023      -0.00000030       0.00000002
Hf      -0.00000008      -0.00000006      -0.00000017      -0.00000291       0.00000027       0.00000064
F        1.63584429       1.15671632       5.80735561      -0.00488442      -0.00345345      -0.00000053
F        5.06991207       3.58496939       5.80735527       0.00488679       0.00345483       0.00000031
F        4.21139526       1.15671635       4.32036024       0.00243855      -0.00344841      -0.00422384
F        2.49436126       3.58496931       7.29435061      -0.00243821       0.00344749       0.00422290
F        2.49436135       3.58496933       4.32036059      -0.00244239       0.00345298      -0.00422952
F        4.21139485       1.15671653       7.29435038       0.00244240      -0.00345339       0.00422998
