9
Lattice="5.901701300788412 -1.1368406106634896e-07 3.4073489986655257 1.9672337154364121 5.564177267583818 3.407348902208778 6.230500863399403e-08 -7.407854262561527e-08 6.814697889415526" Properties=species:S:1:pos:R:3:forces:R:3 energy=-35.86152648925781 free_energy=-35.86152648925781 stress="-4.150376844336279e-05 4.836276712438803e-09 -1.1747949280049852e-08 4.836276712438803e-09 -4.151802568230778e-05 1.2601769405762298e-08 -1.1747949280049852e-08 1.2601769405762298e-08 -4.149896267335862e-05" pbc="T T T"
Ag       1.96723388       1.39104431       3.40734867       0.00000019      -0.00000104      -0.00000137
Ag       5.90170129       4.17313260      10.22204720       0.00000048      -0.00000026      -0.00000074
Hf      -0.00000008      -0.00000027       0.00000127      -0.00000204       0.00000796      -0.00002491
Cl       1.98574007       1.40412996       6.81469813      -0.00217920      -0.00154005      -0.00000027
Cl       5.88319487       4.16004747       6.81469837       0.00217502       0.00153866      -0.00000076
Cl       4.90883219       1.40412963       5.12704983       0.00108479      -0.00153166      -0.00188023
Cl       2.96010389       4.16004643       8.50234476      -0.00109363       0.00154488       0.00189167
Cl       2.96010287       4.16004746       5.12704978      -0.00108171       0.00152919      -0.00187715
Cl       4.90883132       1.40413075       8.50234511       0.00109612      -0.00154764       0.00189366
