9
Lattice="5.897040507046226 -2.7724195486971745e-08 3.4046578442595536 1.965680160477468 5.559783302626363 3.4046578137742762 3.060739632614046e-08 -1.5693987624598728e-08 6.809315635505553" Properties=species:S:1:pos:R:3:forces:R:3 energy=-17.699373245239258 free_energy=-17.699373245239258 stress="0.00018493883544579148 9.279663842898245e-11 1.3757830430449758e-09 9.279663842898245e-11 0.00018487172201275826 -1.4732712272369497e-10 1.3757830430449758e-09 -1.4732712272369497e-10 0.00018494829419068992" pbc="T T T"
Ag       1.96568017       1.38994584       3.40465789      -0.00000033       0.00000035       0.00000035
Ag       5.89704049       4.16983743      10.21397346      -0.00000016       0.00000008      -0.00000045
Hg       0.00000006      -0.00000013       0.00000044       0.00000117      -0.00000024      -0.00000462
Cl       2.08068280       1.47126468       6.80931589      -0.00070584      -0.00050071       0.00000098
Cl       5.78203805       4.08851837       6.80931580       0.00070667       0.00049788       0.00000071
Cl       4.85669921       1.47126483       5.20658143       0.00035149      -0.00049871      -0.00061142
Cl       3.00602140       4.08851839       8.41204948      -0.00035498       0.00050175       0.00061238
Cl       3.00602144       4.08851860       5.20658136      -0.00035256       0.00049925      -0.00061086
Cl       4.85669928       1.47126498       8.41204949       0.00035423      -0.00049984       0.00061294
