9
Lattice="6.893201838165377 -2.003833216354328e-07 3.9797920834689084 2.297733845518331 6.498972924175366 3.9797919303791875 -7.51140281519142e-09 -1.9280720057429374e-07 7.959584179947993" Properties=species:S:1:pos:R:3:forces:R:3 energy=-27.77461814880371 free_energy=-27.77461814880371 stress="-7.950314284244087e-06 -3.584521124366802e-08 1.0422930074582837e-08 -3.584521124366802e-08 -7.933183951536193e-06 -1.1078591377611247e-08 1.0422930074582837e-08 -1.1078591377611247e-08 -7.880592420406174e-06" pbc="T T T"
Ag       2.29773388       1.62474289       3.97979179      -0.00000044      -0.00000046       0.00000042
Ag       6.89320144       4.87422939      11.93937641       0.00000026       0.00000014       0.00000074
Hf      -0.00000035       0.00000016       0.00000025       0.00000523      -0.00000216      -0.00000210
I        2.30684043       1.63118267       7.95958372      -0.00033195      -0.00023504       0.00000109
I        6.88409508       4.86779040       7.95958373       0.00033065       0.00023298      -0.00000030
I        5.73978107       1.63118241       5.97757473       0.00016689      -0.00023602      -0.00028849
I        3.45115474       4.86779035       9.94159269      -0.00016826       0.00023760       0.00029305
I        3.45115461       4.86778950       5.97757590      -0.00016920       0.00023977      -0.00029434
I        5.73978181       1.63118239       9.94159358       0.00016685      -0.00023676       0.00028987
