9
Lattice="5.089692489647451 -5.835528267585077e-08 2.938535337008509 1.6965641059423808 4.798608229630449 2.938535340915332 -4.938306551070536e-08 -3.013417347358669e-08 5.877070759550993" Properties=species:S:1:pos:R:3:forces:R:3 energy=-36.700523376464844 free_energy=-36.700523376464844 stress="2.9758182336081518e-06 3.271538773219618e-08 2.872182669477752e-08 3.271538773219618e-08 2.9656835067726206e-06 -3.667472725510379e-08 2.872182669477752e-08 -3.667472725510379e-08 2.94629467134655e-06" pbc="T T T"
Ag       1.69656405       1.19965191       2.93853559      -0.00000014       0.00000014      -0.00000045
Ag       5.08969239       3.59895602       8.81560611      -0.00000009      -0.00000004       0.00000003
Ir       0.00000003       0.00000008      -0.00000027      -0.00000168      -0.00000606       0.00000936
F        1.59753597       1.12962833       5.87707074       0.00070971       0.00050249      -0.00000061
F        5.18872075       3.66897991       5.87707091      -0.00070653      -0.00049998      -0.00000104
F        4.29092450       1.12962826       4.32204169      -0.00035547       0.00050383       0.00061627
F        2.49533204       3.66898004       7.43209947       0.00035659      -0.00050496      -0.00061772
F        2.49533204       3.66897972       4.32204193       0.00035315      -0.00049930       0.00061093
F        4.29092440       1.12962826       7.43209952      -0.00035551       0.00050386      -0.00061684
