9
Lattice="4.967034885993022 3.513060079222923e-08 2.8677191641186743 1.655678356288599 4.682965373483921 2.867719115905042 6.064282640510253e-08 -1.616844020161198e-08 5.735438223200878" Properties=species:S:1:pos:R:3:forces:R:3 energy=-33.29179000854492 free_energy=-33.29179000854492 stress="0.00034413632238283753 1.0621173274216744e-08 1.7058530143998496e-09 1.0621173274216744e-08 0.00034410908119753003 6.278834341344464e-09 1.7058530143998496e-09 6.278834341344464e-09 0.0003440271539147943" pbc="T T T"
Ag       1.65567836       1.17074135       2.86771921      -0.00000044       0.00000057      -0.00000026
Ag       4.96703506       3.51222404       8.60315751       0.00000041      -0.00000009       0.00000024
In      -0.00000002       0.00000003      -0.00000007       0.00000099       0.00000161       0.00000075
F        1.69449614       1.19818962       5.73543810      -0.00669193      -0.00473201      -0.00000009
F        4.92821743       3.48477583       5.73543811       0.00668997       0.00473100       0.00000001
F        4.11978687       1.19818959       4.33519576       0.00334570      -0.00473219      -0.00579542
F        2.50292629       3.48477568       7.13568085      -0.00334483       0.00473076       0.00579393
F        2.50292614       3.48477594       4.33519555      -0.00334540       0.00473136      -0.00579345
F        4.11978704       1.19818942       7.13568081       0.00334528      -0.00473118       0.00579429
