9
Lattice="5.819240228319257 6.737009039387504e-08 3.3597397318238458 1.9397468081453235 5.48643191768992 3.359739728610707 2.5456018262233366e-08 1.4064927232977228e-08 6.719479419556606" Properties=species:S:1:pos:R:3:forces:R:3 energy=-28.3831844329834 free_energy=-28.3831844329834 stress="-4.138987424084917e-05 4.2094562502370536e-08 -3.04954617114106e-09 4.2094562502370536e-08 -4.1433606384089217e-05 2.0965270408623837e-08 -3.04954617114106e-09 2.0965270408623837e-08 -4.144808917772025e-05" pbc="T T T"
Ag       1.93974677       1.37160813       3.35973959       0.00000016       0.00000069      -0.00000016
Ag       5.81924032       4.11482398      10.07921891      -0.00000002       0.00000017      -0.00000017
Ir       0.00000033      -0.00000054       0.00000022      -0.00000904       0.00001100      -0.00000633
Cl       1.89487566       1.33987910       6.71947930      -0.00067037      -0.00047335       0.00000067
Cl       5.86411153       4.14655297       6.71947930       0.00067049       0.00047174       0.00000084
Cl       4.87180246       1.33987915       5.00074959       0.00033613      -0.00047264      -0.00057968
Cl       2.88718450       4.14655307       8.43820977      -0.00033268       0.00046989       0.00057673
Cl       2.88718412       4.14655328       5.00074947      -0.00033075       0.00046629      -0.00057241
Cl       4.87180255       1.33987892       8.43820939       0.00033583      -0.00047389       0.00058043
