9
Lattice="5.894480824571884 3.742566626791604e-08 3.4031800947056383 1.9648269637219 5.557369649772809 3.4031801173734726 4.394984343129632e-09 3.0870106903194486e-08 6.806360181798914" Properties=species:S:1:pos:R:3:forces:R:3 energy=-23.63578987121582 free_energy=-23.63578987121582 stress="0.00019633806368801743 1.6387865287015302e-08 -6.531973850698591e-10 1.6387865287015302e-08 0.00019629659072961658 1.0541554296139566e-08 -6.531973850698591e-10 1.0541554296139566e-08 0.00019628061272669584" pbc="T T T"
Ag       1.96482694       1.38934239       3.40318014      -0.00000050      -0.00000090       0.00000024
Ag       5.89448093       4.16802724      10.20954040       0.00000080       0.00000054       0.00000017
In      -0.00000023      -0.00000004      -0.00000103       0.00000205      -0.00000114       0.00001069
Cl       2.02874890       1.43454204       6.80636040      -0.00133172      -0.00094166       0.00000189
Cl       5.83055892       4.12282792       6.80636017       0.00133058       0.00094104       0.00000176
Cl       4.88010666       1.43454221       5.16012868       0.00066575      -0.00094399      -0.00115731
Cl       2.97920074       4.12282817       8.45259216      -0.00066249       0.00093678       0.00115299
Cl       2.97920126       4.12282745       5.16012846      -0.00066631       0.00094539      -0.00115925
Cl       4.88010697       1.43454151       8.45259228       0.00066173      -0.00093618       0.00114939
