9
Lattice="6.248106538744851 -5.6604972561616316e-08 3.607346098120682 2.0827021658178735 5.890771367030581 3.607346029524664 7.092488832319488e-08 -3.386116269017391e-08 7.21469207339585" Properties=species:S:1:pos:R:3:forces:R:3 energy=-20.436216354370117 free_energy=-20.436216354370117 stress="2.4494262106600218e-05 -9.44030542626706e-09 4.244709916889633e-09 -9.44030542626706e-09 2.4513379685231484e-05 -1.0690262897128378e-08 4.244709916889633e-09 -1.0690262897128378e-08 2.4534909243811853e-05" pbc="T T T"
Ag       2.08270203       1.47269255       3.60734602      -0.00000023      -0.00000038       0.00000061
Ag       6.24810652       4.41807844      10.82203806      -0.00000040      -0.00000036      -0.00000053
In      -0.00000078      -0.00000051      -0.00000058       0.00000926       0.00000430       0.00001166
Br       2.16722445       1.53245934       7.21469157      -0.00129712      -0.00091755       0.00000214
Br       6.16358518       4.35831295       7.21469203       0.00128490       0.00090784       0.00000109
Br       5.16449391       1.53245932       5.48421720       0.00064993      -0.00091654      -0.00112072
Br       3.16631430       4.35831288       8.94516773      -0.00064178       0.00091076       0.00111592
Br       3.16631466       4.35831176       5.48421762      -0.00064902       0.00092003      -0.00112414
Br       5.16449486       1.53245832       8.94516731       0.00064468      -0.00090827       0.00111410
