9
Lattice="6.492151719227661 -1.765380643040325e-07 3.7482455485794515 2.164050434884483 6.120859309691141 3.748245499648638 -1.1433620897784038e-08 -6.801252765592284e-08 7.496491116962481" Properties=species:S:1:pos:R:3:forces:R:3 energy=-22.751657485961914 free_energy=-22.751657485961914 stress="0.0001875170273706317 1.7419848674649074e-08 5.065318386954232e-09 1.7419848674649074e-08 0.00018749036826193333 -1.0742483347314646e-08 5.065318386954232e-09 -1.0742483347314646e-08 0.0001874928711913526" pbc="T T T"
Ag       2.16405075       1.53021463       3.74824559       0.00000058       0.00000032       0.00000000
Ag       6.49215129       4.59064393      11.24473680      -0.00000055      -0.00000056      -0.00000004
Ir      -0.00000023       0.00000013       0.00000000       0.00000128      -0.00000188       0.00000250
I        2.18212050       1.54299211       7.49649105       0.00123512       0.00087355       0.00000031
I        6.47408157       4.57786720       7.49649105      -0.00123487      -0.00087329      -0.00000042
I        5.40109132       1.54299227       5.63801689      -0.00061850       0.00087477       0.00107127
I        3.25511084       4.57786688       9.35496494       0.00061850      -0.00087528      -0.00107125
I        3.25511099       4.57786705       5.63801731       0.00061758      -0.00087312       0.00106991
I        5.40109150       1.54299204       9.35496498      -0.00061913       0.00087547      -0.00107219
