9
Lattice="6.135837145380391 -1.897376455872875e-08 3.5425273781079847 2.0452790223579984 5.784922759756649 3.5425273923342075 -1.0149972662388044e-08 1.0246391588668908e-08 7.085054773796293" Properties=species:S:1:pos:R:3:forces:R:3 energy=-25.307907104492188 free_energy=-25.307907104492188 stress="6.493049113487359e-06 -1.133315041812466e-08 5.6504849688110426e-09 -1.133315041812466e-08 6.497796675830614e-06 -4.948056187004113e-09 5.6504849688110426e-09 -4.948056187004113e-09 6.516727808048017e-06" pbc="T T T"
Ag       2.04527898       1.44623091       3.54252737      -0.00000020       0.00000029      -0.00000013
Ag       6.13583671       4.33869232      10.62758207      -0.00000042       0.00000023      -0.00000075
Ir       0.00000043      -0.00000026      -0.00000022      -0.00000546       0.00000575      -0.00000135
Br       2.02509618       1.43195902       7.08505488       0.00207489       0.00146673      -0.00000004
Br       6.15602004       4.35296347       7.08505483      -0.00207433      -0.00146696       0.00000052
Br       5.12328905       1.43195913       5.29631218      -0.00103576       0.00146483       0.00179413
Br       3.05782711       4.35296368       8.87379764       0.00103831      -0.00146774      -0.00179629
Br       3.05782711       4.35296359       5.29631214       0.00103793      -0.00146738       0.00179647
Br       5.12328902       1.43195912       8.87379732      -0.00103500       0.00146421      -0.00179256
