9
Lattice="6.09194195507573 -8.355780540843184e-08 3.517184394209233 2.0306472296514264 5.743537998665992 3.5171844114051707 -7.133926917775893e-08 -2.938381878696295e-08 7.034368911981699" Properties=species:S:1:pos:R:3:forces:R:3 energy=-27.121728897094727 free_energy=-27.121728897094727 stress="-9.8460353910923e-05 3.237067947026162e-09 2.226055606513455e-08 3.237067947026162e-09 -9.846463944995776e-05 6.91223345228309e-09 2.226055606513455e-08 6.91223345228309e-09 -9.840115671977401e-05" pbc="T T T"
Ag       2.03064761       1.43588463       3.51718427       0.00000129      -0.00000054      -0.00000019
Ag       6.09194196       4.30765360      10.55155337       0.00000037       0.00000020       0.00000201
Mn      -0.00000091       0.00000046      -0.00000037       0.00001302      -0.00000847       0.00000254
Br       1.93081310       1.36529083       7.03436878       0.00228927       0.00161874      -0.00000012
Br       6.19177593       4.37824708       7.03436875      -0.00229222      -0.00162316       0.00000114
Br       5.12653514       1.36529118       5.18931746      -0.00114742       0.00162189       0.00198629
Br       2.99605390       4.37824674       8.87941956       0.00114262      -0.00161774      -0.00197767
Br       2.99605415       4.37824668       5.18931851       0.00113982      -0.00161541       0.00197550
Br       5.12653555       1.36529035       8.87942057      -0.00114702       0.00162444      -0.00198951
