9
Lattice="6.655049799046518 -1.0492178431706137e-07 3.8422948330670708 2.2183497616027767 6.274441252690404 3.84229495862605 -1.2435319536762444e-07 6.584690118510671e-08 7.684589881520038" Properties=species:S:1:pos:R:3:forces:R:3 energy=-24.69073486328125 free_energy=-24.69073486328125 stress="-3.6472549709287705e-06 -5.872349717606085e-09 -9.685300561557142e-09 -5.872349717606085e-09 -3.635361053966335e-06 1.0096247393676094e-08 -9.685300561557142e-09 1.0096247393676094e-08 -3.6407211609912338e-06" pbc="T T T"
Ag       2.21834950       1.56860961       3.84229509      -0.00000113      -0.00000098       0.00000057
Ag       6.65504956       4.70583111      11.52688443       0.00000037      -0.00000001      -0.00000122
Mo       0.00000050       0.00000025       0.00000044      -0.00000538      -0.00000214      -0.00000523
I        2.24928325       1.59048380       7.68458995       0.00028783       0.00020352      -0.00000060
I        6.62411553       4.68395736       7.68459013      -0.00028160      -0.00019856      -0.00000004
I        5.53040768       1.59048388       5.79023218      -0.00014277       0.00020134       0.00024611
I        3.34299189       4.68395730       9.57894732       0.00014022      -0.00019906      -0.00024396
I        3.34299172       4.68395742       5.79023193       0.00014301      -0.00020267       0.00024812
I        5.53040799       1.59048409       9.57894729      -0.00014074       0.00019860      -0.00024375
