9
Lattice="6.486537165860764 3.885525813535307e-06 3.745000725984967 2.162182769276148 6.115560602407251 3.7450006382034497 -6.304563511933371e-07 -5.533100981676556e-07 7.490002543952166" Properties=species:S:1:pos:R:3:forces:R:3 energy=-23.573495864868164 free_energy=-23.573495864868164 stress="-2.9573520805570297e-05 1.0871472255757908e-07 1.0278531448193462e-07 1.0871472255757908e-07 -2.932369170594029e-05 -7.076365449165678e-08 1.0278531448193462e-07 -7.076365449165678e-08 -2.9801431082887575e-05" pbc="T T T"
Ag       2.16217723       1.52889553       3.74499729       0.00000126       0.00003322      -0.00000926
Ag       6.48654748       4.58666876      11.23500579       0.00000672      -0.00002610       0.00000819
Mn      -0.00000336       0.00000737       0.00000602       0.00003054      -0.00004285      -0.00006519
I        2.12464642       1.50236623       7.49000843       0.00154112       0.00106257      -0.00000781
I        6.52408152       4.61319243       7.48999700      -0.00156699      -0.00106937       0.00000356
I        5.42422140       1.50236424       5.58498295      -0.00080420       0.00109915       0.00140004
I        3.22449424       4.61319544       9.39501749       0.00077374      -0.00104505      -0.00135985
I        3.22450312       4.61319465       5.58498423       0.00078475      -0.00107895       0.00137454
I        5.42420926       1.50237176       9.39501577      -0.00076673       0.00106734      -0.00134419
