9
Lattice="6.0905972721935075 -1.3389988400281393e-07 3.516407616431157 2.030199032862124 5.742270371162672 3.5164074980056887 -4.0813033181400454e-08 -1.739001651979188e-07 7.03281530355255" Properties=species:S:1:pos:R:3:forces:R:3 energy=-27.121688842773438 free_energy=-27.121688842773438 stress="-2.2660953618469648e-05 -2.8584384637042604e-08 6.41130537548662e-10 -2.8584384637042604e-08 -2.268285425088834e-05 3.5162070588512506e-08 6.41130537548662e-10 3.5162070588512506e-08 -2.262996531499084e-05" pbc="T T T"
Ag       2.03019913       1.43556775       3.51640747      -0.00000017       0.00000029      -0.00000009
Ag       6.09059696       4.30670270      10.54922308      -0.00000022       0.00000048       0.00000119
Mn      -0.00000029      -0.00000052       0.00000043       0.00000640       0.00000567      -0.00000969
Br       1.93185268       1.36602538       7.03281509      -0.00760786      -0.00537829      -0.00000167
Br       6.18894457       4.37624533       7.03281508       0.00759736       0.00537198       0.00000104
Br       5.12467134       1.36602556       5.18944031       0.00380101      -0.00537268      -0.00658356
Br       2.99612490       4.37624349       8.87619019      -0.00380205       0.00537747       0.00658564
Br       2.99612512       4.37624494       5.18944035      -0.00380040       0.00537331      -0.00658154
Br       5.12467068       1.36602565       8.87618962       0.00380592      -0.00537828       0.00658870
