9
Lattice="5.794467476421133 -1.0277640793568474e-07 3.3454372769521306 1.9314890895129369 5.4630760448738895 3.3454372291398244 3.918630440816761e-09 -5.578702691285574e-08 6.690874547117054" Properties=species:S:1:pos:R:3:forces:R:3 energy=-30.204097747802734 free_energy=-30.204097747802734 stress="0.00038412990397773683 -2.5237476108941337e-08 -8.869777828879322e-11 -2.5237476108941337e-08 0.0003841287980321795 -7.015120040421152e-09 -8.869777828879322e-11 -7.015120040421152e-09 0.00038416843744926155" pbc="T T T"
Ag       1.93148899       1.36576888       3.34543722      -0.00000060      -0.00000037       0.00000009
Ag       5.79446752       4.09730687      10.03631177       0.00000017      -0.00000027       0.00000037
Mn       0.00000057       0.00000081       0.00000060      -0.00000953      -0.00001710      -0.00001550
Cl       1.84988619       1.30806731       6.69087462      -0.00310504      -0.00219600      -0.00000117
Cl       5.87606908       4.15500829       6.69087428       0.00312245       0.00220799       0.00000010
Cl       4.86952451       1.30806712       4.94748624       0.00155263      -0.00219825      -0.00269312
Cl       2.85643271       4.15500820       8.43426217      -0.00156128       0.00220704       0.00270572
Cl       2.85643236       4.15500867       4.94748662      -0.00155693       0.00220057      -0.00269707
Cl       4.86952442       1.30806741       8.43426254       0.00155832      -0.00220349       0.00270079
