9
Lattice="6.189604124699827 -3.3433475041915026e-07 3.5735698353152334 2.0632010686855553 5.835614755566636 3.5735698197277204 -7.051493364896319e-08 -6.895236001265513e-08 7.147139792765811" Properties=species:S:1:pos:R:3:forces:R:3 energy=-28.09336280822754 free_energy=-28.09336280822754 stress="-1.3263921573525295e-05 -1.0408290762597971e-07 9.978839976554355e-09 -1.0408290762597971e-07 -1.321039417234715e-05 -3.0596356559442484e-09 9.978839976554355e-09 -3.0596356559442484e-09 -1.312604308623122e-05" pbc="T T T"
Ag       2.06320145       1.45890368       3.57356968       0.00000071      -0.00000022      -0.00000051
Ag       6.18960362       4.37671066      10.72070968       0.00000009       0.00000075       0.00000040
Mo      -0.00000117      -0.00000041       0.00000042       0.00001585       0.00000693      -0.00000686
Br       2.06002597       1.45665788       7.14713990      -0.00033706      -0.00023763      -0.00000072
Br       6.19278053       4.37895727       7.14713978       0.00031992       0.00022430      -0.00000021
Br       5.15959084       1.45665809       5.35760521       0.00016768      -0.00023512      -0.00028966
Br       3.09321447       4.37895567       8.93667373      -0.00017060       0.00024232       0.00029580
Br       3.09321427       4.37895617       5.35760536      -0.00016835       0.00023849      -0.00029264
Br       5.15959045       1.45665840       8.93667402       0.00017167      -0.00023978       0.00029442
