9
Lattice="4.876035996044806 -1.515781827512039e-08 2.8151806332779037 1.625345325084658 4.5971708529856805 2.8151806205288707 1.897434810346206e-08 -2.1973880663909827e-09 5.630361233691263" Properties=species:S:1:pos:R:3:forces:R:3 energy=-39.262290954589844 free_energy=-39.262290954589844 stress="0.00030077886185608804 3.517271807140787e-08 5.601358310514115e-08 3.517271807140787e-08 0.00030065703322179615 -4.490616589691854e-08 5.601358310514115e-08 -4.490616589691854e-08 0.0003005694306921214" pbc="T T T"
Ag       1.62534514       1.14929273       2.81518045       0.00000037      -0.00000004       0.00000007
Ag       4.87603628       3.44787822       8.44554184      -0.00000002       0.00000006       0.00000001
Mn      -0.00000021      -0.00000009       0.00000014      -0.00000565      -0.00000218       0.00000554
F        1.51006517       1.06777708       5.63036136      -0.00314073      -0.00221954      -0.00000118
F        4.99131557       3.52939322       5.63036116       0.00314839       0.00222489       0.00000005
F        4.12100364       1.06777721       4.12293535       0.00156871      -0.00222005      -0.00271873
F        2.38037819       3.52939378       7.13778719      -0.00157027       0.00221816       0.00271633
F        2.38037812       3.52939372       4.12293563      -0.00157271       0.00222068      -0.00272153
F        4.12100329       1.06777744       7.13778690       0.00157173      -0.00222167       0.00271980
