9
Lattice="5.78907906148479 -4.788646309604189e-09 3.342326420935254 1.9296930094817033 5.4579960538294054 3.3423264321909394 4.3941522415197416e-08 4.485671638343878e-08 6.684652765761696" Properties=species:S:1:pos:R:3:forces:R:3 energy=-30.204126358032227 free_energy=-30.204126358032227 stress="-0.00031346152536571026 4.144588228172097e-09 -4.984610502134501e-09 4.144588228172097e-09 -0.00031357063562609255 -1.7215340264442602e-08 -4.984610502134501e-09 -1.7215340264442602e-08 -0.0003134391154162586" pbc="T T T"
Ag       1.92969285       1.36449906       3.34232638       0.00000032       0.00000005       0.00000020
Ag       5.78907937       4.09349716      10.02697890      -0.00000003       0.00000047      -0.00000058
Mn       0.00000017      -0.00000024       0.00000023      -0.00000220       0.00000385       0.00000088
Cl       1.84890649       1.30737367       6.68465270       0.00525749       0.00371803       0.00000049
Cl       5.86986549       4.15062252       6.68465296      -0.00525793      -0.00371882       0.00000076
Cl       4.86462598       1.30737450       4.94352627      -0.00262684       0.00371651       0.00455174
Cl       2.85414606       4.15062197       8.42577958       0.00262839      -0.00372021      -0.00455409
Cl       2.85414592       4.15062157       4.94352612       0.00262760      -0.00371791       0.00455269
Cl       4.86462594       1.30737415       8.42577970      -0.00262685       0.00371809      -0.00455195
