9
Lattice="5.057242913819782 -8.121979743510513e-09 2.9198006316638963 1.6857475959671697 4.768014395650574 2.9198006910996894 -2.3123179578331904e-08 5.644308591331425e-08 5.8396013033783145" Properties=species:S:1:pos:R:3:forces:R:3 energy=-40.0566291809082 free_energy=-40.0566291809082 stress="0.0002736600290518254 -4.680049059402336e-08 -3.562483641417202e-08 -4.680049059402336e-08 0.00027370621683076024 3.396757364271252e-08 -3.562483641417202e-08 3.396757364271252e-08 0.00027371622854843736" pbc="T T T"
Ag       1.68574758       1.19200365       2.91980080      -0.00000018      -0.00000003       0.00000010
Ag       5.05724289       3.57601081       8.75940180       0.00000035      -0.00000013       0.00000005
Mo      -0.00000001       0.00000007      -0.00000015       0.00000288      -0.00000405       0.00000099
F        1.62097880       1.14620511       5.83960150      -0.00247324      -0.00174879       0.00000037
F        5.12201163       3.62180940       5.83960142       0.00247334       0.00174844      -0.00000044
F        4.24675326       1.14620524       4.32360964       0.00123887      -0.00175159      -0.00214566
F        2.49623717       3.62180914       7.35559270      -0.00124010       0.00175346       0.00214797
F        2.49623700       3.62180934       4.32360965      -0.00123838       0.00175139      -0.00214526
F        4.24675349       1.14620504       7.35559320       0.00123639      -0.00174873       0.00214201
