9
Lattice="6.487501363687568 1.1855912193782585e-08 3.7455607918627805 2.1625004520021887 6.116475093990388 3.745560815657912 -4.4106904526084343e-08 -2.0452410246249408e-09 7.491121660120935" Properties=species:S:1:pos:R:3:forces:R:3 energy=-23.573495864868164 free_energy=-23.573495864868164 stress="4.476129470276646e-05 -1.1178806325062851e-08 8.296112685712842e-10 -1.1178806325062851e-08 4.475398964132182e-05 6.379296646485955e-09 8.296112685712842e-10 6.379296646485955e-09 4.476386311580427e-05" pbc="T T T"
Ag       2.16250057       1.52911855       3.74556049       0.00000020      -0.00000060      -0.00000099
Ag       6.48750150       4.58735652      11.23668246       0.00000041       0.00000032       0.00000038
Mn       0.00000088      -0.00000042      -0.00000335      -0.00000620       0.00000516       0.00003462
I        2.12496238       1.50257548       7.49112163       0.00059210       0.00041842       0.00000100
I        6.52503905       4.61389966       7.49112145      -0.00059016      -0.00041667       0.00000098
I        5.42501922       1.50257648       5.58583378      -0.00028886       0.00040714       0.00050074
I        3.22498103       4.61390030       9.39641205       0.00030203      -0.00042701      -0.00052179
I        3.22498219       4.61389908       5.58583317       0.00029115      -0.00041102       0.00050424
I        5.42502026       1.50257482       9.39641145      -0.00030050       0.00042431      -0.00051935
