9
Lattice="5.796370970753581 -1.1667019112733432e-09 3.34653649711995 1.9321236838797695 5.464871210433972 3.3465364485153364 4.2659805644399446e-08 -2.9363235428979232e-08 6.693072920350947" Properties=species:S:1:pos:R:3:forces:R:3 energy=-22.906169891357422 free_energy=-22.906169891357422 stress="6.523346382891759e-05 -1.0923153936914787e-08 -1.2946289373871878e-08 -1.0923153936914787e-08 6.532230327138677e-05 3.0339624146336064e-08 -1.2946289373871878e-08 3.0339624146336064e-08 6.530219980049878e-05" pbc="T T T"
Ag       1.93212363       1.36621780       3.34653641      -0.00000019       0.00000020      -0.00000001
Ag       5.79637092       4.09865339      10.03960925      -0.00000009      -0.00000021      -0.00000062
Mg      -0.00000031       0.00000003      -0.00000013       0.00000329      -0.00000076       0.00000177
Cl       1.96778245       1.39143281       6.69307268       0.00089249       0.00063080       0.00000074
Cl       5.76071228       4.07343845       6.69307279      -0.00089481      -0.00063145       0.00000042
Cl       4.81247961       1.39143266       5.05068638      -0.00044485       0.00063057       0.00077340
Cl       2.91601525       4.07343829       8.33545983       0.00044708      -0.00062945      -0.00077395
Cl       2.91601535       4.07343856       5.05068650       0.00044386      -0.00062981       0.00077364
Cl       4.81247961       1.39143274       8.33545983      -0.00044684       0.00062999      -0.00077535
