9
Lattice="4.878178025051329 9.206606942026021e-09 2.8164173884861348 1.626059383181398 4.599190171928743 2.816417331644477 5.986015062723908e-08 -2.7289033465536767e-08 5.632834673291433" Properties=species:S:1:pos:R:3:forces:R:3 energy=-39.262237548828125 free_energy=-39.262237548828125 stress="0.0006057331920601428 -1.550702677377558e-08 -1.3178943492064832e-09 -1.550702677377558e-08 0.0006056272541172802 -4.0472340145925045e-08 -1.3178943492064832e-09 -4.0472340145925045e-08 0.000605741748586297" pbc="T T T"
Ag       1.62605939       1.14979717       2.81641717      -0.00000002       0.00000038       0.00000014
Ag       4.87817815       3.44939292       8.44925222       0.00000002      -0.00000008      -0.00000005
Mn       0.00000013       0.00000007      -0.00000003      -0.00000417      -0.00000475      -0.00000425
F        1.51019896       1.06787161       5.63283489      -0.00472485      -0.00333893      -0.00000046
F        4.99403851       3.53131869       5.63283491       0.00472707       0.00334007      -0.00000165
F        4.12307856       1.06787139       4.12428783       0.00236215      -0.00333630      -0.00408913
F        2.38115899       3.53131844       7.14138122      -0.00236408       0.00334220       0.00409463
F        2.38115877       3.53131885       4.12428806      -0.00236150       0.00333959      -0.00409305
F        4.12307849       1.06787168       7.14138142       0.00236531      -0.00334211       0.00409332
