9
Lattice="6.737045677980993 -2.221602214936767e-08 3.889635071943391 2.2456818426621683 6.351747524628017 3.8896351222640706 7.75858925482601e-09 6.711614842071932e-08 7.779270130448562" Properties=species:S:1:pos:R:3:forces:R:3 energy=-16.969924926757812 free_energy=-16.969924926757812 stress="8.094218355836347e-05 -3.5040301216149317e-10 5.645356182526484e-09 -3.5040301216149317e-10 8.094288932625204e-05 -9.10481912086425e-09 5.645356182526484e-09 -9.10481912086425e-09 8.094819349935278e-05" pbc="T T T"
Ag       2.24568193       1.58793683       3.88963501      -0.00000021       0.00000032      -0.00000026
Ag       6.73704546       4.76381073      11.66890510      -0.00000051       0.00000003      -0.00000006
Mg      -0.00000025       0.00000035       0.00000071       0.00000249      -0.00000190      -0.00000443
I        2.34640471       1.65915855       7.77927018      -0.00187178      -0.00132383      -0.00000102
I        6.63632306       4.69258874       7.77927055       0.00187097       0.00132294       0.00000014
I        5.56384370       1.65915844       5.92168084       0.00093431      -0.00132038      -0.00161910
I        3.41888433       4.69258850       9.63685902      -0.00093741       0.00132532       0.00162330
I        3.41888406       4.69258935       5.92168089      -0.00093447       0.00132196      -0.00161991
I        5.56384312       1.65915880       9.63685900       0.00093658      -0.00132447       0.00162145
