9
Lattice="5.698953497263546 6.713487235120319e-08 3.290292391738519 1.8996512011903701 5.373025220861787 3.29029243999265 -1.9760959396930873e-08 4.512588330757455e-08 6.580584817704016" Properties=species:S:1:pos:R:3:forces:R:3 energy=-24.15867042541504 free_energy=-24.15867042541504 stress="0.00043460281449370086 6.510265215808886e-09 3.85014464754363e-09 6.510265215808886e-09 0.0004345958586782217 5.664665181370765e-09 3.85014464754363e-09 5.664665181370765e-09 0.0004345792403910309" pbc="T T T"
Ag       1.89965118       1.34325629       3.29029236      -0.00000052       0.00000000      -0.00000020
Ag       5.69895370       4.02976900       9.87087715       0.00000015       0.00000034      -0.00000019
Ni       0.00000023       0.00000014       0.00000035      -0.00000140      -0.00000092      -0.00000160
Cl       1.87172269       1.32350794       6.58058498      -0.00654843      -0.00463051      -0.00000106
Cl       5.72688188       4.04951736       6.58058492       0.00654882       0.00463116      -0.00000148
Cl       4.76309204       1.32350794       4.91125159       0.00327455      -0.00463107      -0.00566879
Cl       2.83551248       4.04951730       8.24991768      -0.00327493       0.00463116       0.00567058
Cl       2.83551251       4.04951738       4.91125176      -0.00327328       0.00463089      -0.00566870
Cl       4.76309197       1.32350792       8.24991779       0.00327532      -0.00463134       0.00567102
