9
Lattice="5.996923263844639 -1.0801427466188947e-07 3.462325349039662 1.9989744033857102 5.6539531828556235 3.4623252036496157 5.243681061207796e-08 -1.4098738664753283e-07 6.924650607256179" Properties=species:S:1:pos:R:3:forces:R:3 energy=-21.794612884521484 free_energy=-21.794612884521484 stress="-0.00011073245696024969 -4.293135624777733e-09 6.128426655038766e-09 -4.293135624777733e-09 -0.00011071108747273684 -2.929722464628526e-09 6.128426655038766e-09 -2.929722464628526e-09 -0.00011071319750044495" pbc="T T T"
Ag       1.99897431       1.41348811       3.46232536      -0.00000020      -0.00000001      -0.00000010
Ag       5.99692324       4.24046471      10.38697601       0.00000018      -0.00000033       0.00000028
Ni      -0.00000018      -0.00000010       0.00000014       0.00000164      -0.00000029      -0.00000046
Br       1.96428870       1.38896166       6.92465059       0.00596058       0.00421512      -0.00000013
Br       6.03160902       4.26499129       6.92465046      -0.00596118      -0.00421536      -0.00000049
Br       5.01477894       1.38896173       5.16344941      -0.00298050       0.00421509       0.00516266
Br       2.98111883       4.26499134       8.68585180       0.00297974      -0.00421447      -0.00516188
Br       2.98111891       4.26499142       5.16344933       0.00298005      -0.00421423       0.00516212
Br       5.01477911       1.38896166       8.68585163      -0.00298031       0.00421435      -0.00516215
