9
Lattice="6.419611584788041 1.1347894633617134e-08 3.7063645063832085 2.1398705237136193 6.0524679535973895 3.706364532793401 -3.8838884230340516e-08 4.882527744580849e-09 7.412729080037261" Properties=species:S:1:pos:R:3:forces:R:3 energy=-19.115280151367188 free_energy=-19.115280151367188 stress="-5.4658034059684724e-05 -3.064032361166369e-09 7.431494974952102e-09 -3.064032361166369e-09 -5.465399954118766e-05 -7.389603373653131e-10 7.431494974952102e-09 -7.389603373653131e-10 -5.465626236400567e-05" pbc="T T T"
Ag       2.13987061       1.51311702       3.70636471       0.00000022      -0.00000012      -0.00000013
Ag       6.41961153       4.53935102      11.11909325      -0.00000018       0.00000009      -0.00000073
Ni      -0.00000021      -0.00000010      -0.00000027       0.00000018       0.00000013       0.00000049
I        2.17485670       1.53785576       7.41272917      -0.00115481      -0.00081657      -0.00000045
I        6.38462555       4.51461226       7.41272912       0.00115433       0.00081600       0.00000028
I        5.33218320       1.53785584       5.58984565       0.00057712      -0.00081646      -0.00099963
I        3.22729875       4.51461223       9.23561259      -0.00057687       0.00081639       0.00099975
I        3.22729885       4.51461200       5.58984571      -0.00057751       0.00081635      -0.00099985
I        5.33218327       1.53785586       9.23561255       0.00057749      -0.00081579       0.00100026
