9
Lattice="5.998725588625534 -2.7900548887442445e-08 3.4633657791140657 1.9995751868498532 5.655652555839096 3.4633657497622954 2.057463578492775e-08 -2.1399934693775956e-08 6.9267315225918304" Properties=species:S:1:pos:R:3:forces:R:3 energy=-21.794601440429688 free_energy=-21.794601440429688 stress="0.0002708631509449333 -9.213168006283468e-09 1.4428064298854792e-09 -9.213168006283468e-09 0.0002708554675336927 -7.863548701081413e-10 1.4428064298854792e-09 -7.863548701081413e-10 0.000270873453700915" pbc="T T T"
Ag       1.99957511       1.41391315       3.46336572       0.00000003      -0.00000029      -0.00000026
Ag       5.99872561       4.24173942      10.39009725       0.00000007      -0.00000043      -0.00000020
Ni       0.00000017      -0.00000024       0.00000015      -0.00000081       0.00000152      -0.00000214
Br       1.96547678       1.38980184       6.92673144      -0.00382635      -0.00270376      -0.00000083
Br       6.03282401       4.26585080       6.92673140       0.00382441       0.00270313       0.00000004
Br       5.01598708       1.38980172       5.16551844       0.00191292      -0.00270402      -0.00331226
Br       2.98231368       4.26585095       8.68794467      -0.00191228       0.00270456       0.00331342
Br       2.98231366       4.26585079       5.16551826      -0.00191143       0.00270352      -0.00331166
Br       5.01598716       1.38980163       8.68794477       0.00191340      -0.00270426       0.00331345
