9
Lattice="4.7762330053993365 -4.567539440449465e-08 2.7575594436727435 1.592077664645537 4.503075615260635 2.7575593757031664 9.201936011402909e-08 -1.8177871351950257e-08 5.515118727963235" Properties=species:S:1:pos:R:3:forces:R:3 energy=-31.06800079345703 free_energy=-31.06800079345703 stress="0.0005505744484253228 -2.461216297433566e-08 1.0765089930586669e-09 -2.461216297433566e-08 0.0005506399320438504 -3.678271909279829e-08 1.0765089930586669e-09 -3.678271909279829e-08 0.0005505908047780395" pbc="T T T"
Ag       1.59207786       1.12576898       2.75755957       0.00000034       0.00000013       0.00000038
Ag       4.77623298       3.37730662       8.27267816       0.00000047       0.00000008       0.00000064
Ni       0.00000003      -0.00000009       0.00000019      -0.00000691      -0.00000137      -0.00000831
F        1.48975126       1.05341323       5.51511882       0.00125515       0.00088687       0.00000002
F        4.87855935       3.44966227       5.51511891      -0.00124916      -0.00088342      -0.00000075
F        4.03135740       1.05341349       4.04772182      -0.00062594       0.00088598       0.00108516
F        2.33695346       3.44966203       6.98251534       0.00062349      -0.00088342      -0.00108209
F        2.33695336       3.44966210       4.04772181       0.00062647      -0.00088601       0.00108582
F        4.03135742       1.05341360       6.98251552      -0.00062391       0.00088125      -0.00108093
