9
Lattice="5.167615541943811 8.637702724710345e-08 2.983524127565268 1.7225385287448267 4.872074511270077 2.983524243047074 1.0386087305196184e-07 2.1487654060756257e-07 5.96704807523826" Properties=species:S:1:pos:R:3:forces:R:3 energy=-45.56034469604492 free_energy=-45.56034469604492 stress="0.00027549060177989304 -2.2584716319329345e-08 -3.963308969900936e-08 -2.2584716319329345e-08 0.00027561973547562957 9.949231838390915e-08 -3.963308969900936e-08 9.949231838390915e-08 0.00027554124244488776" pbc="T T T"
Ag       1.72253812       1.21801852       2.98352434       0.00000063      -0.00000001      -0.00000022
Ag       5.16761558       3.65405615       8.95057176       0.00000008      -0.00000018       0.00000065
Nb       0.00000020       0.00000001      -0.00000001       0.00000508      -0.00000048      -0.00001810
F        1.61606897       1.14273362       5.96704824      -0.00200063      -0.00141463       0.00000022
F        5.27408552       3.72934156       5.96704870       0.00199693       0.00141260      -0.00000067
F        4.35958127       1.14273252       4.38308084       0.00099820      -0.00141177      -0.00173008
F        2.53057303       3.72934141       7.55101558      -0.00100523       0.00142130       0.00174052
F        2.53057263       3.72934177       4.38308053      -0.00099549       0.00140879      -0.00172633
F        4.35958129       1.14273397       7.55101549       0.00100034      -0.00141558       0.00173426
