9
Lattice="4.773174025556466 2.8593499119575698e-08 2.7557933573031357 1.5910580261659613 4.500191686141422 2.7557933734303144 2.7438513365012932e-08 3.9153696951817345e-08 5.511586667081241" Properties=species:S:1:pos:R:3:forces:R:3 energy=-31.068077087402344 free_energy=-31.068077087402344 stress="3.636754263425246e-05 -9.01306052014661e-09 2.3455609010625267e-08 -9.01306052014661e-09 3.636421388364397e-05 2.159065637385993e-08 2.3455609010625267e-08 2.159065637385993e-08 3.6393292248249054e-05" pbc="T T T"
Ag       1.59105794       1.12504778       2.75579329      -0.00000073      -0.00000013       0.00000030
Ag       4.77317401       3.37514372       8.26738013       0.00000012      -0.00000029      -0.00000018
Ni      -0.00000013      -0.00000015       0.00000024       0.00000009       0.00000178      -0.00000991
F        1.48965568       1.05334588       5.51158674       0.00127825       0.00090361       0.00000082
F        4.87457560       3.44684569       5.51158662      -0.00127396      -0.00090170       0.00000057
F        4.02834622       1.05334603       4.04587356      -0.00063996       0.00090276       0.00110617
F        2.33588637       3.44684599       6.97729967       0.00063594      -0.00090127      -0.00110221
F        2.33588625       3.44684598       4.04587365       0.00063798      -0.00090453       0.00110611
F        4.02834622       1.05334613       6.97729974      -0.00063775       0.00089991      -0.00110182
