9
Lattice="5.695962834435805 2.2417062566604315e-07 3.288565960526253 1.8986544169777173 5.370205693750651 3.2885660861304844 -2.4142100415623674e-09 1.5212607968146193e-07 6.577131925234056" Properties=species:S:1:pos:R:3:forces:R:3 energy=-24.158742904663086 free_energy=-24.158742904663086 stress="-4.652058123610914e-05 3.9498345927313494e-08 9.181218452170015e-09 3.9498345927313494e-08 -4.6513843699358404e-05 6.257458551317541e-09 9.181218452170015e-09 6.257458551317541e-09 -4.649102993425913e-05" pbc="T T T"
Ag       1.89865408       1.34255128       3.28856593      -0.00000038      -0.00000050      -0.00000040
Ag       5.69596278       4.02765471       9.86569799       0.00000007       0.00000000       0.00000007
Ni      -0.00000026      -0.00000023       0.00000107       0.00000393       0.00000285      -0.00001046
Cl       1.87036181       1.32254637       6.57713233       0.00093260       0.00066102      -0.00000152
Cl       5.72425590       4.04766021       6.57713195      -0.00093982      -0.00066519      -0.00000166
Cl       4.76078232       1.32254506       4.90834726      -0.00047019       0.00066516       0.00081369
Cl       2.83383578       4.04766082       8.24591623       0.00046857      -0.00066003      -0.00080743
Cl       2.83383527       4.04766016       4.90834649       0.00047195      -0.00066429       0.00081423
Cl       4.76078137       1.32254599       8.24591677      -0.00046682       0.00066084      -0.00080633
