9
Lattice="6.274224982925155 1.685981034654784e-08 3.6224255919555484 2.091408285922136 5.915396274193431 3.62242569174793 4.8269658597020345e-08 1.5635204024662252e-07 7.244851100305587" Properties=species:S:1:pos:R:3:forces:R:3 energy=-29.389692306518555 free_energy=-29.389692306518555 stress="9.466323535889387e-05 -3.8467479868131704e-08 -5.976196426615843e-09 -3.8467479868131704e-08 9.469902579439804e-05 2.285150912939571e-08 -5.976196426615843e-09 2.285150912939571e-08 9.473600948695093e-05" pbc="T T T"
Ag       2.09140799       1.47884960       3.62242531      -0.00000061       0.00000054      -0.00000081
Ag       6.27422467       4.43654615      10.86727698      -0.00000036      -0.00000146       0.00000062
Nb       0.00000018      -0.00000010       0.00000017       0.00000044       0.00000386      -0.00000674
Br       2.07379992       1.46639831       7.24485133      -0.00122324      -0.00086370      -0.00000146
Br       6.29183338       4.44899838       7.24485126       0.00122242       0.00086347      -0.00000061
Br       5.23732506       1.46639819       5.41838929       0.00061217      -0.00086562      -0.00106227
Br       3.12830889       4.44899812       9.07131307      -0.00061461       0.00086886       0.00106563
Br       3.12830833       4.44899877       5.41838940      -0.00061114       0.00086328      -0.00105876
Br       5.23732487       1.46639835       9.07131266       0.00061496      -0.00086920       0.00106438
