9
Lattice="5.894295243415847 -5.726527039939379e-08 3.4030731990650205 1.964764967829177 5.557195095078879 3.403073301808932 4.134310954160542e-08 1.5506915673383833e-07 6.806146326521736" Properties=species:S:1:pos:R:3:forces:R:3 energy=-33.40803527832031 free_energy=-33.40803527832031 stress="-0.00023794849403202534 -5.7577643985951e-08 -2.43184725690071e-08 -5.7577643985951e-08 -0.00023789156693965197 3.035257378769529e-08 -2.43184725690071e-08 3.035257378769529e-08 -0.00023783744836691767" pbc="T T T"
Ag       1.96476523       1.38929862       3.40307325       0.00000018       0.00000037       0.00000031
Ag       5.89429524       4.16789655      10.20921950       0.00000187       0.00000053      -0.00000044
Nb       0.00000006      -0.00000014       0.00000075      -0.00000046      -0.00000103      -0.00001011
Cl       1.94527411       1.37551659       6.80614644       0.00631240       0.00446378      -0.00000100
Cl       5.91378598       4.18167824       6.80614618      -0.00631158      -0.00446300      -0.00000025
Cl       4.92165759       1.37551774       5.08773140      -0.00315385       0.00445715       0.00546035
Cl       2.93740279       4.18167765       8.52456132       0.00314939      -0.00445229      -0.00545296
Cl       2.93740255       4.18167807       5.08773103       0.00315467      -0.00446300       0.00546408
Cl       4.92165750       1.37551751       8.52456158      -0.00315259       0.00445743      -0.00545980
