9
Lattice="5.161265868690133 2.6898425806822404e-08 2.979858464138879 1.720421849320265 4.866088877880241 2.9798586932368596 -2.5495840941448e-07 1.003037710973386e-07 5.959717369878712" Properties=species:S:1:pos:R:3:forces:R:3 energy=-45.5603141784668 free_energy=-45.5603141784668 stress="-0.0004999018274247646 -1.9163854503290167e-08 -1.0339852529739346e-08 -1.9163854503290167e-08 -0.0004999182419851422 1.2716312447480504e-08 -1.0339852529739346e-08 1.2716312447480504e-08 -0.0004999095690436661" pbc="T T T"
Ag       1.72042150       1.21652214       2.97985857      -0.00000024       0.00000056       0.00000008
Ag       5.16126549       3.64956684       8.93957606       0.00000044      -0.00000049      -0.00000050
Nb       0.00000013      -0.00000009       0.00000008       0.00000394      -0.00000483       0.00000682
F        1.61588893       1.14260603       5.95971742       0.00557077       0.00393939      -0.00000019
F        5.26579842       3.72348278       5.95971691      -0.00557154      -0.00393951       0.00000056
F        4.35332139       1.14260635       4.37925960      -0.00278461       0.00393704       0.00482231
F        2.52836608       3.72348268       7.54017479       0.00278416      -0.00393739      -0.00482291
F        2.52836650       3.72348264       4.37925999       0.00278288      -0.00393569       0.00482017
F        4.35332095       1.14260634       7.54017455      -0.00278628       0.00394049      -0.00482625
