9
Lattice="5.897809652020213 -3.6013013643240295e-08 3.4051019764598065 1.965936499241161 5.5605080001306755 3.4051020067340376 -2.382860523721472e-08 2.0228876478076565e-08 6.8102039941919195" Properties=species:S:1:pos:R:3:forces:R:3 energy=-33.40803909301758 free_energy=-33.40803909301758 stress="0.00016172509640455246 -3.420434424583618e-08 -3.478539412071768e-08 -3.420434424583618e-08 0.00016176023927982897 3.315263441550087e-08 -3.478539412071768e-08 3.315263441550087e-08 0.00016177428187802434" pbc="T T T"
Ag       1.96593651       1.39012729       3.40510177       0.00000106      -0.00000041       0.00000002
Ag       5.89780962       4.17038068      10.21530595      -0.00000002      -0.00000058       0.00000031
Nb       0.00000016      -0.00000004       0.00000062       0.00000118      -0.00000197      -0.00001508
Cl       1.94599220       1.37602451       6.81020425      -0.00197619      -0.00139812      -0.00000050
Cl       5.91775350       4.18448377       6.81020395       0.00197731       0.00139602      -0.00000044
Cl       4.92481336       1.37602421       5.09038046       0.00098797      -0.00139585      -0.00171095
Cl       2.93893325       4.18448316       8.53002653      -0.00099456       0.00140622       0.00172329
Cl       2.93893274       4.18448392       5.09038106      -0.00098702       0.00139514      -0.00171164
Cl       4.92481324       1.37602434       8.53002740       0.00099026      -0.00140052       0.00171506
