9
Lattice="5.824255337102181 1.9250621635537276e-07 3.3626355794514575 1.941418556830855 5.4911609412225175 3.3626357013298986 -2.0381250118606585e-08 1.3485830371691666e-07 6.725271194204356" Properties=species:S:1:pos:R:3:forces:R:3 energy=-30.24303436279297 free_energy=-30.24303436279297 stress="-4.706908657681197e-05 -9.579729010056326e-09 -8.667092821212918e-09 -9.579729010056326e-09 -4.705346145783551e-05 -3.646105417587364e-09 -8.667092821212918e-09 -3.646105417587364e-09 -4.7024761443026364e-05" pbc="T T T"
Ag       1.94141847       1.37279045       3.36263570       0.00000081       0.00000026       0.00000002
Ag       5.82425516       4.11837076      10.08790659      -0.00000147      -0.00000073       0.00000017
Os      -0.00000009      -0.00000038      -0.00000006       0.00000099       0.00000908      -0.00000054
Cl       1.90095085       1.34417559       6.72527116      -0.00113505      -0.00080290       0.00000004
Cl       5.86472308       4.14698590       6.72527124       0.00113112       0.00079957      -0.00000014
Cl       4.87377958       1.34417594       5.00890750       0.00056878      -0.00080347      -0.00098157
Cl       2.89189435       4.14698571       8.44163544      -0.00056687       0.00080079       0.00097972
Cl       2.89189442       4.14698535       5.00890727      -0.00056683       0.00080070      -0.00097936
Cl       4.87377979       1.34417586       8.44163510       0.00056870      -0.00080341       0.00098166
