9
Lattice="6.543936806323583 -6.220460950121206e-09 3.7781437367109474 2.181312272449192 6.169682886668263 3.778143720188401 -3.6326990136632575e-09 -2.2804689838435138e-08 7.556287479713986" Properties=species:S:1:pos:R:3:forces:R:3 energy=-23.77347755432129 free_energy=-23.77347755432129 stress="6.437511910917237e-05 -9.408794854337543e-10 9.315239246632245e-09 -9.408794854337543e-10 6.436664989450946e-05 -7.2045578392021525e-09 9.315239246632245e-09 -7.2045578392021525e-09 6.437686533899978e-05" pbc="T T T"
Ag       2.18131222       1.54242037       3.77814386       0.00000031      -0.00000040      -0.00000012
Ag       6.54393716       4.62726216      11.33443161       0.00000047      -0.00000017       0.00000105
Os      -0.00000020       0.00000023      -0.00000023       0.00000129      -0.00000200       0.00000268
I        2.19565097       1.55255988       7.55628753      -0.00065756      -0.00046440      -0.00000020
I        6.52959808       4.61712334       7.55628732       0.00065666       0.00046453       0.00000010
I        5.44611121       1.55255984       5.67963331       0.00032799      -0.00046458      -0.00056866
I        3.27913746       4.61712320       9.43294130      -0.00032810       0.00046408       0.00056820
I        3.27913798       4.61712292       5.67963366      -0.00032938       0.00046601      -0.00057018
I        5.44611144       1.55255957       9.43294140       0.00032827      -0.00046302       0.00056720
