9
Lattice="5.092135820811971 1.0738526251827045e-07 2.9399458884379253 1.6973786464145943 4.80091189428635 2.939945995420649 1.5932085033680916e-08 1.4229210519409792e-07 5.879891749280883" Properties=species:S:1:pos:R:3:forces:R:3 energy=-39.92795944213867 free_energy=-39.92795944213867 stress="0.0005464479327201843 8.259355155360026e-08 1.565001639391994e-08 8.259355155360026e-08 0.00054641516180709 -2.2592516302211152e-08 1.565001639391994e-08 -2.2592516302211152e-08 0.0005463302950374782" pbc="T T T"
Ag       1.69737855       1.20022804       2.93994581       0.00000014       0.00000011       0.00000000
Ag       5.09213571       3.60068418       8.81983768      -0.00000012      -0.00000009       0.00000003
Os       0.00000027       0.00000011      -0.00000041      -0.00000595      -0.00000368       0.00001375
F        1.59766525       1.12972019       5.87989220      -0.00559594      -0.00395737      -0.00000133
F        5.19184905       3.67119204       5.87989219       0.00560104       0.00396018      -0.00000161
F        4.29330350       1.12971967       4.32356403       0.00279688      -0.00395491      -0.00484465
F        2.49621100       3.67119236       7.43621924      -0.00279416       0.00395191       0.00484015
F        2.49621111       3.67119221       4.32356442      -0.00279732       0.00395688      -0.00484735
F        4.29330350       1.12971980       7.43621928       0.00279547      -0.00395306       0.00484105
