9
Lattice="6.177735628756488 2.0591218045892588e-08 3.5667174027259767 2.059245317852772 5.824424890435313 3.566717248826801 1.1546936930296736e-07 -1.068380590432788e-07 7.133434605453213" Properties=species:S:1:pos:R:3:forces:R:3 energy=-26.766674041748047 free_energy=-26.766674041748047 stress="-2.7676123863784596e-05 2.9104921139833095e-08 3.517973823363718e-08 2.9104921139833095e-08 -2.7702291845344007e-05 -4.7699177940785376e-08 3.517973823363718e-08 -4.7699177940785376e-08 -2.7723612220142968e-05" pbc="T T T"
Ag       2.05924492       1.45610610       3.56671729      -0.00000030       0.00000008      -0.00000013
Ag       6.17773568       4.36831877      10.70015216      -0.00000002      -0.00000009       0.00000080
Os       0.00000007       0.00000055      -0.00000115       0.00000035      -0.00000781       0.00001497
Br       2.02757238       1.43370986       7.13343469      -0.00455692      -0.00322266      -0.00000002
Br       6.20940840       4.39071496       7.13343450       0.00456223       0.00322460       0.00000054
Br       5.16395004       1.43370989       5.32264570       0.00227843      -0.00322112      -0.00394394
Br       3.07303088       4.39071524       8.94422347      -0.00227568       0.00321740       0.00394084
Br       3.07303210       4.39071413       5.32264668      -0.00228450       0.00322865      -0.00395477
Br       5.16394981       1.43370966       8.94422361       0.00227642      -0.00321895       0.00394161
