9
Lattice="6.09642270776525 -2.9524829396192137e-08 3.5197712193084563 2.0321408353933172 5.747762356240782 3.519771287479837 -3.663496668831915e-08 5.75877458867419e-08 7.03954250207045" Properties=species:S:1:pos:R:3:forces:R:3 energy=-22.846391677856445 free_energy=-22.846391677856445 stress="-0.0001416902814526111 -1.2440656504963954e-08 -1.211904443465528e-08 -1.2440656504963954e-08 -0.0001416795130353421 9.16070597156704e-09 -1.211904443465528e-08 9.16070597156704e-09 -0.00014168107009027153" pbc="T T T"
Ag       2.03214095       1.43694058       3.51977124       0.00000034      -0.00000019       0.00000032
Ag       6.09642255       4.31082176      10.55931366      -0.00000019      -0.00000018      -0.00000031
Pt       0.00000070       0.00000024       0.00000085      -0.00000934      -0.00000525      -0.00001589
Br       2.02155828       1.42945751       7.03954240      -0.00770887      -0.00545046       0.00000042
Br       6.10700456       4.31830444       7.03954257       0.00771724       0.00545712       0.00000020
Br       5.08564323       1.42945776       5.27049229       0.00385573      -0.00545196      -0.00667676
Br       3.04292045       4.31830438       8.80859242      -0.00385949       0.00545759       0.00668420
Br       3.04292016       4.31830484       5.27049215      -0.00385464       0.00545119      -0.00667591
Br       5.08564314       1.42945802       8.80859245       0.00385921      -0.00545782       0.00668389
