9
Lattice="5.784622952908997 -1.4539590422707868e-08 3.3397536825980962 1.9282077027278461 5.453794528717621 3.3397535692072404 -1.3449520422669464e-07 -2.339772703965789e-07 6.679507598148615" Properties=species:S:1:pos:R:3:forces:R:3 energy=-24.515283584594727 free_energy=-24.515283584594727 stress="-4.414779323269613e-05 1.4944823156781695e-09 -1.1616966055782996e-08 1.4944823156781695e-09 -4.421039193402976e-05 -3.0849534482513263e-08 -1.1616966055782996e-08 -3.0849534482513263e-08 -4.4100517698097974e-05" pbc="T T T"
Ag       1.92820731       1.36344839       3.33975273      -0.00000029      -0.00000027      -0.00000232
Ag       5.78462286       4.09034546      10.01925996      -0.00000072       0.00000070      -0.00000172
P        0.00000044       0.00000018       0.00000133      -0.00000701      -0.00000037      -0.00001595
Cl       1.85404126       1.31100502       6.67950775       0.00049322       0.00034870       0.00000399
Cl       5.85878856       4.14278867       6.67950788      -0.00048646      -0.00034610       0.00000085
Cl       4.85760232       1.31100505       4.94540135      -0.00024605       0.00034922       0.00042644
Cl       2.85522864       4.14278926       8.41361348       0.00024461      -0.00034836      -0.00041966
Cl       2.85522836       4.14278953       4.94540121       0.00024627      -0.00034885       0.00042521
Cl       4.85760218       1.31100565       8.41361364      -0.00024364       0.00034521      -0.00041674
