9
Lattice="6.48543632103757 -5.377639903988424e-08 3.744368434764511 2.161812071980725 6.114527915302996 3.7443684076248296 -3.055032850262752e-08 -5.4841529839732265e-08 7.488736922443764" Properties=species:S:1:pos:R:3:forces:R:3 energy=-19.265005111694336 free_energy=-19.265005111694336 stress="1.5558942322968505e-05 -2.613637972714855e-09 6.263452423382887e-09 -2.613637972714855e-09 1.5564080968033522e-05 -9.036732251388457e-09 6.263452423382887e-09 -9.036732251388457e-09 1.5558192899334244e-05" pbc="T T T"
Ag       2.16181161       1.52863187       3.74436883      -0.00000036      -0.00000033       0.00000065
Ag       6.48543595       4.58589594      11.23310569      -0.00000072       0.00000008       0.00000087
Pd       0.00000027      -0.00000020       0.00000153      -0.00000333       0.00000227      -0.00001934
I        2.20879533       1.56185373       7.48873692      -0.00016350      -0.00011589      -0.00000071
I        6.43845327       4.55267383       7.48873683       0.00016527       0.00011691      -0.00000032
I        5.38103901       1.56185390       5.65724061       0.00007967      -0.00011247      -0.00013767
I        3.26620991       4.55267368       9.32023214      -0.00008456       0.00011945       0.00014573
I        3.26620956       4.55267429       5.65724046      -0.00007882       0.00011142      -0.00013679
I        5.38103854       1.56185418       9.32023205       0.00008641      -0.00012139       0.00014760
