9
Lattice="5.026390146760232 6.121018911845428e-08 2.9019876768062423 1.675463449587931 4.7389261948519135 2.901987660135299 1.4179988257354311e-08 -1.0390847221810962e-08 5.803975329052035" Properties=species:S:1:pos:R:3:forces:R:3 energy=-33.670597076416016 free_energy=-33.670597076416016 stress="0.0005123838200233877 6.261613805236266e-08 3.4055442910130296e-08 6.261613805236266e-08 0.0005123490118421614 -4.557722732556613e-08 3.4055442910130296e-08 -4.557722732556613e-08 0.0005123305600136518" pbc="T T T"
Ag       1.67546346       1.18473160       2.90198759      -0.00000008       0.00000012       0.00000023
Ag       5.02639020       3.55419485       8.70596306       0.00000008      -0.00000033      -0.00000003
Pt      -0.00000002      -0.00000018      -0.00000014       0.00000028      -0.00001120      -0.00001001
F        1.60280746       1.13335606       5.80397559      -0.00413968      -0.00292777      -0.00000124
F        5.09904568       3.60556976       5.80397556       0.00414684       0.00293273      -0.00000050
F        4.22498689       1.13335586       4.29005947       0.00206504      -0.00292210      -0.00357801
F        2.47686731       3.60557018       7.31789066      -0.00207215       0.00293073       0.00358982
F        2.47686718       3.60557046       4.29005996      -0.00207087       0.00292745      -0.00358704
F        4.22498635       1.13335636       7.31789098       0.00207055      -0.00292964       0.00358669
