9
Lattice="4.957844643375453 1.3299302687053223e-07 2.86241300167989 1.6526149588126628 4.674301211167292 2.862413084297835 7.564535489450255e-09 1.0653484064057719e-07 5.724825990257595" Properties=species:S:1:pos:R:3:forces:R:3 energy=-32.41388702392578 free_energy=-32.41388702392578 stress="0.000363619823474437 2.9361304498820573e-09 -3.3632964857588377e-08 2.9361304498820573e-09 0.0003636302426457405 5.508309541824019e-08 -3.3632964857588377e-08 5.508309541824019e-08 0.00036361668026074767" pbc="T T T"
Ag       1.65261483       1.16857543       2.86241288       0.00000003      -0.00000008      -0.00000003
Ag       4.95784460       3.50572610       8.58723907      -0.00000006      -0.00000022      -0.00000025
Pd       0.00000004       0.00000004       0.00000005       0.00000342      -0.00000156      -0.00000072
F        1.59936676       1.13092293       5.72482603      -0.00275741      -0.00194960      -0.00000030
F        5.01109294       3.54337830       5.72482592       0.00275594       0.00194886      -0.00000002
F        4.15816145       1.13092306       4.24750515       0.00137823      -0.00194943      -0.00238755
F        2.45229833       3.54337813       7.20214702      -0.00138064       0.00195244       0.00239037
F        2.45229818       3.54337830       4.24750531      -0.00137731       0.00194782      -0.00238628
F        4.15816135       1.13092348       7.20214689       0.00137778      -0.00194820       0.00238479
