9
Lattice="5.9733453355181885 -1.4054786637233436e-07 3.448712674322457 1.9911150203918369 5.631724093244487 3.448712603200637 8.541296586011422e-09 -8.106649879613433e-08 6.897425333850936" Properties=species:S:1:pos:R:3:forces:R:3 energy=-23.344371795654297 free_energy=-23.344371795654297 stress="-5.9417696320451796e-05 -1.555693174282169e-08 2.745976068752043e-08 -1.555693174282169e-08 -5.9350360970711336e-05 -2.8061524659506176e-08 2.745976068752043e-08 -2.8061524659506176e-08 -5.9253554354654625e-05" pbc="T T T"
Ag       1.99111492       1.40793073       3.44871270       0.00000017      -0.00000017      -0.00000065
Ag       5.97334536       4.22379301      10.34613786      -0.00000036       0.00000065       0.00000021
Pb      -0.00000109      -0.00000004       0.00000009       0.00001860       0.00000448      -0.00000192
Cl       2.07018383       1.46384103       6.89742546      -0.00161012      -0.00113999       0.00000105
Cl       5.89427706       4.16788319       6.89742549       0.00159491       0.00112912       0.00000057
Cl       4.93825326       1.46384113       5.24154451       0.00080319      -0.00113307      -0.00138941
Cl       3.02620746       4.16788250       8.55330585      -0.00080763       0.00114059       0.00139437
Cl       3.02620752       4.16788239       5.24154477      -0.00080425       0.00113766      -0.00139561
Cl       4.93825313       1.46384160       8.55330571       0.00080546      -0.00113927       0.00139139
