9
Lattice="6.092751704081938 8.646273314882212e-08 3.5176518300485853 2.030917280423154 5.744301559783001 3.517651892036459 9.213769247378943e-09 8.24343904989527e-08 7.035303644138505" Properties=species:S:1:pos:R:3:forces:R:3 energy=-21.758731842041016 free_energy=-21.758731842041016 stress="-1.3665546703123255e-06 -1.2329645748820894e-08 -1.1293685098223705e-08 -1.2329645748820894e-08 -1.3551356232710532e-06 7.41456007702368e-09 -1.1293685098223705e-08 7.41456007702368e-09 -1.3441818964565755e-06" pbc="T T T"
Ag       2.03091754       1.43607542       3.51765189       0.00000080       0.00000026       0.00000014
Ag       6.09275186       4.30822620      10.55295521       0.00000059      -0.00000061      -0.00000018
Pd      -0.00000020      -0.00000051      -0.00000019       0.00000599       0.00000761      -0.00000227
Br       2.03426281       1.43844134       7.03530366      -0.00039669      -0.00028144       0.00000033
Br       6.08940631       4.30586080       7.03530384       0.00038844       0.00027592      -0.00000057
Br       5.07562027       1.43844112       5.27937507       0.00019731      -0.00027870      -0.00034170
Br       3.04804849       4.30586072       8.79123253      -0.00019744       0.00027873       0.00034174
Br       3.04804835       4.30586069       5.27937512      -0.00019551       0.00027766      -0.00033916
Br       5.07562050       1.43844116       8.79123233       0.00019652      -0.00027937       0.00034171
