9
Lattice="5.781722782007634 -9.811097931042348e-08 3.3380793890076315 1.9272408527432838 5.451060644846148 3.3380793579913037 1.5159370178510356e-08 -2.7267798549635532e-08 6.676158751758389" Properties=species:S:1:pos:R:3:forces:R:3 energy=-24.28386688232422 free_energy=-24.28386688232422 stress="-0.00014685277710668743 -6.85787142629124e-08 1.379836955806013e-08 -6.85787142629124e-08 -0.0001468342379666865 -1.6256199941722116e-08 1.379836955806013e-08 -1.6256199941722116e-08 -0.00014677993021905422" pbc="T T T"
Ag       1.92724098       1.36276553       3.33807927      -0.00000008       0.00000005       0.00000002
Ag       5.78172261       4.08829470      10.01423812      -0.00000020      -0.00000110      -0.00000000
Pd      -0.00000080      -0.00000056       0.00000026       0.00002494       0.00001328      -0.00000642
Cl       1.90988448       1.35049215       6.67615853      -0.00034758      -0.00024532       0.00000207
Cl       5.79907987       4.10056901       6.67615906       0.00032800       0.00023136       0.00000010
Cl       4.82678042       1.35049236       4.99208798       0.00017020      -0.00024071      -0.00029397
Cl       2.88218337       4.10056854       8.36022934      -0.00017256       0.00024097       0.00029758
Cl       2.88218327       4.10056797       4.99208817      -0.00017235       0.00024411      -0.00029713
Cl       4.82678039       1.35049236       8.36022912       0.00016968      -0.00024256       0.00029755
