9
Lattice="6.319404065972958 7.169671789688362e-08 3.6485093542704203 2.1064679730007416 5.957991606670764 3.6485095562041705 -9.486823716993245e-08 1.8023541215873144e-07 7.297018872857455" Properties=species:S:1:pos:R:3:forces:R:3 energy=-20.08707046508789 free_energy=-20.08707046508789 stress="-5.277101445244625e-05 2.2403744637244927e-08 -3.2022921203633814e-08 2.2403744637244927e-08 -5.278611206449568e-05 3.460291964074713e-08 -3.2022921203633814e-08 3.460291964074713e-08 -5.278952812659554e-05" pbc="T T T"
Ag       2.10646815       1.48949843       3.64850932       0.00000127       0.00000123      -0.00000031
Ag       6.31940383       4.46849367      10.94552765      -0.00000041      -0.00000127      -0.00000066
Pb       0.00000051       0.00000082      -0.00000038      -0.00000678      -0.00001107       0.00000607
Br       2.21765822       1.56812169       7.29701890      -0.00111483      -0.00078774       0.00000030
Br       6.20821308       4.38986965       7.29701886       0.00112568       0.00079435       0.00000008
Br       5.21057430       1.56812170       5.56905815       0.00056033      -0.00079252      -0.00096986
Br       3.21529747       4.38987002       9.02497965      -0.00056055       0.00079209       0.00097112
Br       3.21529718       4.38987018       5.56905813      -0.00056016       0.00079203      -0.00096977
Br       5.21057508       1.56812127       9.02498084       0.00055539      -0.00078707       0.00096302
