9
Lattice="6.503639313428109 -1.7504811108071612e-07 3.75487799992576 2.1678796153233733 6.131689943605031 3.7548779839603776 8.785276359435577e-09 -1.3341355073595754e-08 7.509755984634917" Properties=species:S:1:pos:R:3:forces:R:3 energy=-20.206315994262695 free_energy=-20.206315994262695 stress="-3.564096914487891e-05 -1.92772535712038e-08 5.54232570948443e-09 -1.92772535712038e-08 -3.562370329746045e-05 -7.955762271194544e-09 5.54232570948443e-09 -7.955762271194544e-09 -3.560550612746738e-05" pbc="T T T"
Ag       2.16787975       1.53292256       3.75487806      -0.00000010      -0.00000008       0.00000003
Ag       6.50363918       4.59876722      11.26463390       0.00000010       0.00000005      -0.00000007
Pt      -0.00000019      -0.00000013      -0.00000002       0.00000035       0.00000150       0.00000080
I        2.19878464       1.55477547       7.50975595      -0.00410637      -0.00290309       0.00000035
I        6.47273431       4.57691425       7.50975603       0.00410516       0.00290348       0.00000027
I        5.40424670       1.55477577       5.65908176       0.00205371      -0.00290459      -0.00355860
I        3.26727225       4.57691412       9.36043029      -0.00205294       0.00290323       0.00355591
I        3.26727230       4.57691411       5.65908173      -0.00205396       0.00290473      -0.00355733
I        5.40424681       1.55477562       9.36043016       0.00205406      -0.00290526       0.00355871
