9
Lattice="5.187762899747557 1.053131141828608e-07 2.995156896072178 1.7292544404086294 4.891070753077623 2.9951568247072116 3.098153420436679e-08 -6.549661743124503e-08 5.990313738482704" Properties=species:S:1:pos:R:3:forces:R:3 energy=-38.98215103149414 free_energy=-38.98215103149414 stress="-3.307779843453318e-05 1.0165373254267251e-07 3.9757654946015464e-08 1.0165373254267251e-07 -3.2703934266464785e-05 -3.742492893366034e-08 3.9757654946015464e-08 -3.742492893366034e-08 -3.319340612506494e-05" pbc="T T T"
Ag       1.72925448       1.22276835       2.99515694      -0.00000046      -0.00000154       0.00000018
Ag       5.18776265       3.66830288       8.98547071       0.00000053       0.00000094      -0.00000023
P       -0.00000006      -0.00000013      -0.00000012       0.00000815       0.00001478       0.00001351
F        1.33136891       0.94142111       5.99031379       0.00206573       0.00144782      -0.00000282
F        5.58564864       3.94964992       5.99031382      -0.00207615      -0.00145610      -0.00000168
F        4.52207889       0.94142065       4.14815615      -0.00104115       0.00145670       0.00179751
F        2.39493891       3.94964981       7.83247181       0.00104050      -0.00146094      -0.00180849
F        2.39493870       3.94964978       4.14815587       0.00103936      -0.00145681       0.00179942
F        4.52207869       0.94142069       7.83247183      -0.00103626       0.00145499      -0.00179761
