9
Lattice="5.824168095370743 3.0790326250888913e-08 3.362584847708555 1.9413893944105567 5.491078528495698 3.362584847262464 -3.071355723182372e-08 -2.22640925808982e-08 6.725169748614591" Properties=species:S:1:pos:R:3:forces:R:3 energy=-25.637449264526367 free_energy=-25.637449264526367 stress="-2.931075869128108e-05 4.830747002415592e-08 5.828729943146982e-09 4.830747002415592e-08 -2.9364638976403512e-05 -2.990440250982829e-08 5.828729943146982e-09 -2.990440250982829e-08 -2.9414533855742775e-05" pbc="T T T"
Ag       1.94138938       1.37276955       3.36258492       0.00000041      -0.00000005      -0.00000005
Ag       5.82416809       4.11830891      10.08775434      -0.00000018       0.00000038      -0.00000003
Pt       0.00000016       0.00000034       0.00000017      -0.00000745      -0.00000459       0.00000329
Cl       1.90012256       1.34358932       6.72516977       0.00001711       0.00001480       0.00000046
Cl       5.86543545       4.14748833       6.72516980      -0.00001331      -0.00000875       0.00000034
Cl       4.87410640       1.34358945       5.00813874      -0.00000936       0.00001366       0.00001803
Cl       2.89145063       4.14748939       8.44220027       0.00001198      -0.00001539      -0.00002086
Cl       2.89145069       4.14748928       5.00813928       0.00000959      -0.00001229       0.00001648
Cl       4.87410637       1.34358951       8.44220044      -0.00000873       0.00001216      -0.00001737
