9
Lattice="5.0616510686891685 6.502169715011099e-08 2.9223455560974916 1.6872170907777704 4.7721704241745755 2.922345544703478 -3.800857701761581e-08 -4.08309318829232e-08 5.8446911780277935" Properties=species:S:1:pos:R:3:forces:R:3 energy=-33.75894546508789 free_energy=-33.75894546508789 stress="0.0002269862307002768 2.7616859910040148e-08 2.5978359019518393e-08 2.7616859910040148e-08 0.00022694090148434043 -2.36186465940591e-08 2.5978359019518393e-08 -2.36186465940591e-08 0.00022691026970278472" pbc="T T T"
Ag       1.68721722       1.19304263       2.92234552       0.00000007      -0.00000036      -0.00000015
Ag       5.06165119       3.57912776       8.76703689       0.00000020       0.00000010       0.00000007
Pb      -0.00000000      -0.00000003      -0.00000008      -0.00000537      -0.00000082       0.00000239
F        1.70819603       1.20787720       5.84469118      -0.00163473      -0.00115544       0.00000011
F        5.04067185       3.56429335       5.84469130       0.00163883       0.00115861       0.00000001
F        4.20755291       1.20787703       4.40168681       0.00081738      -0.00115585      -0.00141649
F        2.54131523       3.56429359       7.28769525      -0.00081597       0.00115389       0.00141421
F        2.54131492       3.56429332       4.40168718      -0.00081843       0.00115675      -0.00141741
F        4.20755312       1.20787695       7.28769511       0.00081806      -0.00115691       0.00141729
