9
Lattice="5.0258873852747525 -6.463046863390615e-08 2.901697686840392 1.6752957816729086 4.738452052687461 2.9016976045410865 -7.156706141377501e-09 -1.0585617268862883e-07 5.803395386076522" Properties=species:S:1:pos:R:3:forces:R:3 energy=-33.67060852050781 free_energy=-33.67060852050781 stress="0.0005028636078350246 -4.539885978260827e-08 2.250689945526574e-08 -4.539885978260827e-08 0.0005029055173508823 -3.98146440261371e-08 2.250689945526574e-08 -3.98146440261371e-08 0.0005029255407862365" pbc="T T T"
Ag       1.67529576       1.18461309       2.90169767       0.00000011      -0.00000016       0.00000000
Ag       5.02588739       3.55383889       8.70509307       0.00000005      -0.00000002      -0.00000031
Pt       0.00000005      -0.00000011       0.00000022       0.00000074       0.00000273      -0.00001598
F        1.60286563       1.13339719       5.80339550      -0.00547434      -0.00387084       0.00000004
F        5.09831747       3.60505481       5.80339544       0.00547273       0.00386871       0.00000014
F        4.22445457       1.13339696       4.28981991       0.00273541      -0.00386818      -0.00473745
F        2.47672880       3.60505467       7.31697029      -0.00273946       0.00387447       0.00474592
F        2.47672867       3.60505498       4.28982018      -0.00273647       0.00386979      -0.00473991
F        4.22445439       1.13339723       7.31697034       0.00274121      -0.00387655       0.00474745
