9
Lattice="6.09341588644732 -8.322901527905318e-08 3.51803537379116 2.0311385736524117 5.744927564606903 3.518035333424516 5.6283579497904414e-08 -9.64037267392807e-09 7.036070650096347" Properties=species:S:1:pos:R:3:forces:R:3 energy=-21.75872802734375 free_energy=-21.75872802734375 stress="6.893921818118542e-05 2.8900148940635972e-09 1.033794649885067e-08 2.8900148940635972e-09 6.892598321428522e-05 -1.4248195512323036e-08 1.033794649885067e-08 -1.4248195512323036e-08 6.893004319863394e-05" pbc="T T T"
Ag       2.03113858       1.43623196       3.51803526       0.00000007      -0.00000013      -0.00000015
Ag       6.09341569       4.30869568      10.55410600      -0.00000001       0.00000038      -0.00000046
Pd      -0.00000006      -0.00000000       0.00000011      -0.00000018      -0.00000234       0.00000201
Br       2.03430382       1.43847009       7.03607070       0.00010724       0.00007509       0.00000016
Br       6.09025072       4.30645741       7.03607072      -0.00010554      -0.00007498      -0.00000004
Br       5.07626400       1.43847001       5.27979430      -0.00005392       0.00007614       0.00009326
Br       3.04829072       4.30645734       8.79234683       0.00005362      -0.00007591      -0.00009175
Br       3.04829069       4.30645721       5.27979455       0.00005238      -0.00007416       0.00008950
Br       5.07626390       1.43847018       8.79234694      -0.00005370       0.00007591      -0.00009254
