9
Lattice="6.101404520815276 1.3600916323193612e-08 3.522647505977149 2.033801557387434 5.752459306390838 3.522647440807138 5.968532587710518e-08 -3.761277026379876e-08 7.045294908576323" Properties=species:S:1:pos:R:3:forces:R:3 energy=-22.846412658691406 free_energy=-22.846412658691406 stress="0.0003360358241479844 4.13858529668687e-08 3.095392742125114e-08 4.13858529668687e-08 0.0003360100381541997 -4.068860093298099e-08 3.095392742125114e-08 -4.068860093298099e-08 0.0003359635011292994" pbc="T T T"
Ag       2.03380143       1.43811483       3.52264747      -0.00000019       0.00000012      -0.00000060
Ag       6.10140457       4.31434444      10.56794253      -0.00000010      -0.00000021       0.00000024
Pt      -0.00000003       0.00000016      -0.00000023      -0.00000240      -0.00000495       0.00000254
Br       2.02186932       1.42967728       7.04529505      -0.00548511      -0.00387824      -0.00000069
Br       6.11333669       4.32278177       7.04529487       0.00548967       0.00388160       0.00000001
Br       5.09047026       1.42967715       5.27363713       0.00273947      -0.00387499      -0.00474564
Br       3.04473610       4.32278212       8.81695252      -0.00274028       0.00387590       0.00474573
Br       3.04473623       4.32278204       5.27363765      -0.00274356       0.00387853      -0.00475051
Br       5.09047000       1.42967735       8.81695242       0.00274250      -0.00387775       0.00474889
