9
Lattice="5.784616048024617 1.5577529688238838e-08 3.339749645460081 1.9282053681765714 5.4537883488344345 3.3397496382748186 7.600318430565597e-09 -3.425850297609653e-09 6.679499277756001" Properties=species:S:1:pos:R:3:forces:R:3 energy=-24.283857345581055 free_energy=-24.283857345581055 stress="0.00023034490004647523 1.343071698300946e-08 3.03230840437152e-09 1.343071698300946e-08 0.00023033928300719708 -1.8890844444285904e-08 3.03230840437152e-09 -1.8890844444285904e-08 0.00023026987037155777" pbc="T T T"
Ag       1.92820537       1.36344705       3.33974969      -0.00000001       0.00000005       0.00000001
Ag       5.78461605       4.09034122      10.01924891       0.00000018      -0.00000002       0.00000006
Pd       0.00000002       0.00000001       0.00000025      -0.00000080      -0.00000087      -0.00000538
Cl       1.91021952       1.35072923       6.67949934      -0.00137579      -0.00097296       0.00000027
Cl       5.80260185       4.10305902       6.67949934       0.00137746       0.00097416      -0.00000046
Cl       4.82950651       1.35072897       4.99404821       0.00068693      -0.00097184      -0.00118843
Cl       2.88331514       4.10305949       8.36495034      -0.00068806       0.00097264       0.00119066
Cl       2.88331505       4.10305923       4.99404805      -0.00068769       0.00097178      -0.00118938
Cl       4.82950621       1.35072920       8.36495015       0.00068790      -0.00097308       0.00119251
