9
Lattice="6.568482350209363 -6.651588922169558e-08 3.7923151807414777 2.189494064880386 6.192824371158184 3.7923151619389754 2.8079873211311414e-08 -3.1728253330425446e-09 7.584630312847121" Properties=species:S:1:pos:R:3:forces:R:3 energy=-18.341938018798828 free_energy=-18.341938018798828 stress="-3.551082772901282e-05 2.055919434695852e-09 7.003214008705072e-09 2.055919434695852e-09 -3.5504788684193045e-05 -1.0375464043477223e-08 7.003214008705072e-09 -1.0375464043477223e-08 -3.5512704926077276e-05" pbc="T T T"
Ag       2.18949430       1.54820605       3.79231520       0.00000019      -0.00000021       0.00000072
Ag       6.56848213       4.64461826      11.37694524      -0.00000006      -0.00000032      -0.00000023
P       -0.00000005       0.00000000      -0.00000018      -0.00000000      -0.00000014      -0.00000038
I        2.24340123       1.58632408       7.58463020      -0.00041097      -0.00029041       0.00000028
I        6.51457534       4.60650011       7.58463050       0.00041108       0.00029010       0.00000016
I        5.44678176       1.58632404       5.73515761       0.00020534      -0.00028980      -0.00035587
I        3.31119462       4.60650050       9.43410312      -0.00020489       0.00029005       0.00035602
I        3.31119469       4.60650021       5.73515783      -0.00020584       0.00029109      -0.00035663
I        5.44678179       1.58632392       9.43410309       0.00020533      -0.00029044       0.00035611
