9
Lattice="6.083633410291407 2.0114152524049705e-07 3.512387227284731 2.027877938919725 5.735704627851174 3.5123873210731937 -3.9404962283801435e-08 8.700336990447163e-08 7.024774522820915" Properties=species:S:1:pos:R:3:forces:R:3 energy=-21.05167007446289 free_energy=-21.05167007446289 stress="-0.00013752543600276113 -4.178962065282121e-09 9.009827550698901e-09 -4.178962065282121e-09 -0.0001375254214508459 1.0832231112090085e-08 9.009827550698901e-09 1.0832231112090085e-08 -0.00013751554070040584" pbc="T T T"
Ag       2.02787813       1.43392633       3.51238681       0.00000011       0.00000002      -0.00000102
Ag       6.08363323       4.30177852      10.53716239      -0.00000035      -0.00000048       0.00000147
P        0.00000100       0.00000003      -0.00000026       0.00000016      -0.00000041       0.00000122
Br       2.03077920       1.43597741       7.02477440      -0.00179498      -0.00126998      -0.00000145
Br       6.08073157       4.29972722       7.02477446       0.00179635       0.00127052       0.00000002
Br       5.06824422       1.43597790       5.27109356       0.00089809      -0.00126933      -0.00155483
Br       3.04326671       4.29972711       8.77845589      -0.00089908       0.00126977       0.00155570
Br       3.04326715       4.29972722       5.27109307      -0.00089823       0.00126900      -0.00155562
Br       5.06824404       1.43597787       8.77845601       0.00089797      -0.00126924       0.00155455
