9
Lattice="6.484828925490234 6.637604030285863e-08 3.744017725850598 2.1616096805401175 6.11395546323797 3.7440177671944594 -1.1518955940889026e-08 4.249054694079779e-08 7.48803547165256" Properties=species:S:1:pos:R:3:forces:R:3 energy=-19.26500129699707 free_energy=-19.26500129699707 stress="-3.875235779560171e-05 -4.100326744804761e-10 1.087305800950844e-09 -4.100326744804761e-10 -3.875589754898101e-05 -3.189086106303307e-09 1.087305800950844e-09 -3.189086106303307e-09 -3.8762645999668166e-05" pbc="T T T"
Ag       2.16160965       1.52848899       3.74401759      -0.00000007       0.00000049      -0.00000007
Ag       6.48482889       4.58546677      11.23205310      -0.00000005       0.00000049      -0.00000101
Pd       0.00000016      -0.00000001       0.00000022      -0.00000091       0.00000031      -0.00000274
I        2.20874456       1.56181825       7.48803556      -0.00075155      -0.00053086      -0.00000028
I        6.43769390       4.55213706       7.48803549       0.00075275       0.00053114       0.00000020
I        5.38045675       1.56181824       5.65684666       0.00037498      -0.00053144      -0.00064985
I        3.26598208       4.55213715       9.31922431      -0.00037612       0.00053219       0.00065132
I        3.26598183       4.55213745       5.65684656      -0.00037516       0.00053044      -0.00064985
I        5.38045655       1.56181838       9.31922437       0.00037611      -0.00053272       0.00065226
