9
Lattice="5.797442185339234 -1.5241420368113665e-07 3.3471551151971566 1.9324806149857578 5.465881236226096 3.347155062825418 5.6989711125502135e-09 -6.011222261155989e-08 6.694310220523312" Properties=species:S:1:pos:R:3:forces:R:3 energy=-27.183242797851562 free_energy=-27.183242797851562 stress="-3.5642926377477124e-05 -1.1535389887740166e-07 3.161616035640691e-08 -1.1535389887740166e-07 -3.553269925760105e-05 -4.570434342099361e-08 3.161616035640691e-08 -4.570434342099361e-08 -3.5446395486360416e-05" pbc="T T T"
Ag       1.93248080       1.36646991       3.34715525       0.00000013      -0.00000033       0.00000019
Ag       5.79744212       4.09941061      10.04146488       0.00000004      -0.00000016      -0.00000086
Rh      -0.00000003       0.00000025       0.00000165       0.00000390      -0.00000201      -0.00002698
Cl       1.90090690       1.34414359       6.69431056      -0.00013763      -0.00009921       0.00000116
Cl       5.82901738       4.12173645       6.69431003       0.00013348       0.00009649      -0.00000097
Cl       4.84698830       1.34414392       4.99338852       0.00006697      -0.00009590      -0.00011653
Cl       2.88293393       4.12173687       8.39523040      -0.00007574       0.00010997       0.00013235
Cl       2.88293352       4.12173661       4.99338940      -0.00006916       0.00010052      -0.00012353
Cl       4.84698821       1.34414590       8.39523092       0.00007793      -0.00010937       0.00013533
