9
Lattice="5.7888816635491525 1.492267520640736e-07 3.3422125978034387 1.929627253458814 5.457809813172978 3.3422127855864154 5.8720439265793906e-08 2.715079383278152e-07 6.684425093900064" Properties=species:S:1:pos:R:3:forces:R:3 energy=-28.833614349365234 free_energy=-28.833614349365234 stress="-1.9198192603653297e-05 1.0904877001394198e-08 -3.479897259239806e-08 1.0904877001394198e-08 -1.919277747219894e-05 4.303099743196981e-08 -3.479897259239806e-08 4.303099743196981e-08 -1.919977876241319e-05" pbc="T T T"
Ag       1.92962708       1.36445235       3.34221267      -0.00000024      -0.00000025       0.00000039
Ag       5.78888181       4.09335758      10.02663731      -0.00000005      -0.00000044      -0.00000067
Ru       0.00000004       0.00000006       0.00000158      -0.00000094      -0.00000091      -0.00002416
Cl       1.90122348       1.34436747       6.68442503       0.00013715       0.00009501      -0.00000149
Cl       5.81728540       4.11344306       6.68442492      -0.00013599      -0.00009513      -0.00000125
Cl       4.83827110       1.34436742       4.98872037      -0.00007048       0.00010160       0.00012410
Cl       2.88023894       4.11344181       8.38013011       0.00006224      -0.00008836      -0.00011063
Cl       2.88023765       4.11344244       4.98871959       0.00007282      -0.00010556       0.00012702
Cl       4.83827040       1.34436875       8.38013047      -0.00006452       0.00009394      -0.00011367
