9
Lattice="6.1263287056065705 -1.5781063180961175e-08 3.5370375347369594 2.042109573440635 5.775958081451236 3.5370375004706394 1.5032895527641548e-08 -3.133757261112002e-08 7.074075043436155" Properties=species:S:1:pos:R:3:forces:R:3 energy=-25.772247314453125 free_energy=-25.772247314453125 stress="-3.279994416516274e-05 1.9450148158739466e-08 6.8371543981982086e-09 1.9450148158739466e-08 -3.2806357921799645e-05 -4.848721424366431e-09 6.8371543981982086e-09 -4.848721424366431e-09 -3.28242385876365e-05" pbc="T T T"
Ag       2.04210970       1.44398957       3.53703755       0.00000009      -0.00000003       0.00000019
Ag       6.12632866       4.33196849      10.61111260      -0.00000015      -0.00000014      -0.00000013
Ru       0.00000011      -0.00000026       0.00000036       0.00000241       0.00000308      -0.00000514
Br       2.02696511       1.43328059       7.07407510      -0.00437221      -0.00309144      -0.00000069
Br       6.14147316       4.34267749       7.07407501       0.00436947       0.00308947      -0.00000059
Br       5.11284634       1.43328034       5.29244057       0.00218343      -0.00308714      -0.00378252
Br       3.05559208       4.34267742       8.85570944      -0.00218594       0.00309084       0.00378504
Br       3.05559203       4.34267766       5.29244050      -0.00218362       0.00308717      -0.00378332
Br       5.11284599       1.43328084       8.85570920       0.00218648      -0.00309180       0.00378730
