9
Lattice="6.199382430977985 4.2897163294477806e-08 3.579215170603363 2.0664607759476903 5.8448339230171795 3.5792153001989937 -1.8903421084003324e-08 1.4535487075744441e-07 7.158430373948419" Properties=species:S:1:pos:R:3:forces:R:3 energy=-28.83930015563965 free_energy=-28.83930015563965 stress="-2.8133054001955315e-05 -1.4922219904178746e-08 -7.549654235106118e-09 -1.4922219904178746e-08 -2.8102962460252456e-05 2.261228004840632e-08 -7.549654235106118e-09 2.261228004840632e-08 -2.8103855584049597e-05" pbc="T T T"
Ag       2.06646079       1.46120868       3.57921498       0.00000013       0.00000069      -0.00000021
Ag       6.19938241       4.38362579      10.73764581      -0.00000014       0.00000014       0.00000084
Re      -0.00000044      -0.00000088       0.00000041       0.00000557       0.00001035      -0.00000314
Br       2.03633086       1.43990368       7.15843042       0.00196784       0.00139045       0.00000027
Br       6.22951298       4.40493085       7.15843028      -0.00197829      -0.00139790       0.00000061
Br       5.18121694       1.43990404       5.34272953      -0.00098394       0.00139125       0.00170481
Br       3.08462614       4.40493026       8.97413140       0.00098607      -0.00139291      -0.00170691
Br       3.08462614       4.40493043       5.34272917       0.00098712      -0.00139491       0.00171030
Br       5.18121699       1.43990360       8.97413142      -0.00098436       0.00139279      -0.00170653
