9
Lattice="5.084012183969694 2.9030535752023466e-08 2.935255570428785 1.6946707757328112 4.79325240429553 2.9352555351423613 -2.8546280059540807e-08 -6.340217767557157e-08 5.8705111903011495" Properties=species:S:1:pos:R:3:forces:R:3 energy=-38.316951751708984 free_energy=-38.316951751708984 stress="0.0004440363554749638 8.276521157313255e-08 -3.194281106289054e-08 8.276521157313255e-08 0.00044397995225153863 3.9404959295552544e-08 -3.194281106289054e-08 3.9404959295552544e-08 0.00044391225674189627" pbc="T T T"
Ag       1.69467093       1.19831314       2.93525547      -0.00000023      -0.00000015      -0.00000002
Ag       5.08401221       3.59493942       8.80576719       0.00000014      -0.00000009      -0.00000018
Ru       0.00000003      -0.00000020      -0.00000034       0.00000150       0.00000126       0.00000908
F        1.58480937       1.12062940       5.87051104      -0.00449780      -0.00318064      -0.00000010
F        5.19387309       3.67262285       5.87051098       0.00449858       0.00318037      -0.00000028
F        4.29160752       1.12062935       4.30774022       0.00224768      -0.00317940      -0.00389291
F        2.48707545       3.67262317       7.43328210      -0.00224641       0.00317581       0.00388968
F        2.48707553       3.67262328       4.30774010      -0.00224683       0.00317648      -0.00389059
F        4.29160767       1.12062904       7.43328226       0.00224340      -0.00317362       0.00388541
