9
Lattice="6.615823140840762 -5.149311679386972e-09 3.8196473974725627 2.2052744597381597 6.2374577660822075 3.8196472514385675 1.9570291998200914e-07 -4.047143963948361e-08 7.639294455977705" Properties=species:S:1:pos:R:3:forces:R:3 energy=-25.541481018066406 free_energy=-25.541481018066406 stress="-1.5386751329060644e-05 -7.111848887575434e-09 -5.720489859584177e-09 -7.111848887575434e-09 -1.5387520761578344e-05 1.5928744545590234e-08 -5.720489859584177e-09 1.5928744545590234e-08 -1.537242133053951e-05" pbc="T T T"
Ag       2.20527439       1.55936429       3.81964705       0.00000015      -0.00000059      -0.00000068
Ag       6.61582372       4.67809359      11.45894175       0.00000025       0.00000018      -0.00000019
Re       0.00000004      -0.00000019      -0.00000008      -0.00000109       0.00000112       0.00000187
I        2.20521435       1.55932216       7.63929453      -0.00045905      -0.00032406       0.00000037
I        6.61588309       4.67813566       7.63929456       0.00045973       0.00032436       0.00000107
I        5.51321578       1.55932226       5.72941909       0.00023110      -0.00032713      -0.00039980
I        3.30788165       4.67813588       9.54917025      -0.00022946       0.00032420       0.00039801
I        3.30788204       4.67813566       5.72941911      -0.00023043       0.00032542      -0.00039761
I        5.51321614       1.55932168       9.54917024       0.00022875      -0.00032354       0.00039680
