9
Lattice="4.9782027432111375 -1.0382718146577335e-08 2.874166749087767 1.6594008995513585 4.693494679953098 2.874166757857795 4.9420424414779426e-08 4.568657154775354e-08 5.748333412576862" Properties=species:S:1:pos:R:3:forces:R:3 energy=-35.603431701660156 free_energy=-35.603431701660156 stress="0.0002902871055994183 -5.431038729852844e-08 3.3112222297404514e-08 -5.431038729852844e-08 0.00029034537146799266 -6.847542266541495e-08 3.3112222297404514e-08 -6.847542266541495e-08 0.00029040282242931426" pbc="T T T"
Ag       1.65940098       1.17337347       2.87416671       0.00000005       0.00000014      -0.00000007
Ag       4.97820266       3.52012117       8.62250009       0.00000001      -0.00000033      -0.00000015
Rh       0.00000003      -0.00000021       0.00000006       0.00000228       0.00001201      -0.00000862
F        1.59173559       1.12552697       5.74833358      -0.00197034      -0.00139345      -0.00000014
F        5.04586846       3.56796794       5.74833352       0.00196338       0.00138772      -0.00000007
F        4.18233509       1.12552672       4.25265021       0.00098357      -0.00139048      -0.00170476
F        2.45526870       3.56796766       7.24401647      -0.00098377       0.00139176       0.00170615
F        2.45526847       3.56796803       4.25265052      -0.00098361       0.00139107      -0.00170543
F        4.18233478       1.12552712       7.24401640       0.00098865      -0.00139848       0.00171312
