9
Lattice="5.87182936270526 9.519025344568355e-08 3.3901025619701053 1.9572765625528359 5.536013986263836 3.3901025298033214 1.6234441596317015e-07 7.539863700740989e-08 6.7802048427514965" Properties=species:S:1:pos:R:3:forces:R:3 energy=-32.358699798583984 free_energy=-32.358699798583984 stress="-1.514413088443689e-05 -3.523658875792535e-08 -2.3595150722144353e-08 -3.523658875792535e-08 -1.5102928045962472e-05 1.979317865163921e-08 -2.3595150722144353e-08 1.979317865163921e-08 -1.5120787793421187e-05" pbc="T T T"
Ag       1.95727654       1.38400389       3.39010225       0.00000048       0.00000039      -0.00000043
Ag       5.87182936       4.15201049      10.17030737      -0.00000007      -0.00000041       0.00000001
Re       0.00000003      -0.00000004       0.00000074       0.00000067      -0.00000186      -0.00001412
Cl       1.91884165       1.35682596       6.78020482      -0.00029203      -0.00020522      -0.00000053
Cl       5.91026488       4.17918801       6.78020516       0.00029176       0.00020504      -0.00000039
Cl       4.91240833       1.35682591       5.05186826       0.00014518      -0.00020593      -0.00025055
Cl       2.91669799       4.17918780       8.50854094      -0.00015076       0.00021353       0.00025967
Cl       2.91669763       4.17918838       5.05186860      -0.00014403       0.00020516      -0.00025094
Cl       4.91240796       1.35682642       8.50854170       0.00014876      -0.00021064       0.00025707
