9
Lattice="6.094537117909941 -2.865108324341481e-08 3.518682637316339 2.0315123347167634 5.745984635798943 3.518682656208437 -1.679575695451721e-08 1.1261608949890743e-08 7.037365303723749" Properties=species:S:1:pos:R:3:forces:R:3 energy=-24.424236297607422 free_energy=-24.424236297607422 stress="-4.971002272213809e-05 -3.984681029578496e-08 -3.0870819234252167e-09 -3.984681029578496e-08 -4.969066139892675e-05 3.844777385353382e-09 -3.0870819234252167e-09 3.844777385353382e-09 -4.9645874241832644e-05" pbc="T T T"
Ag       2.03151225       1.43649618       3.51868255      -0.00000027      -0.00000002      -0.00000020
Ag       6.09453708       4.30948825      10.55604785       0.00000035      -0.00000012      -0.00000063
Rh      -0.00000002       0.00000019      -0.00000041       0.00000043       0.00000134       0.00000352
Br       2.01823476       1.42710745       7.03736521       0.00119537       0.00084613       0.00000008
Br       6.10781481       4.31887721       7.03736536      -0.00119587      -0.00084594       0.00000090
Br       5.08541944       1.42710772       5.26652575      -0.00059507       0.00084151       0.00103049
Br       3.04062983       4.31887716       8.80820517       0.00059669      -0.00084464      -0.00103314
Br       3.04062984       4.31887709       5.26652553       0.00059507      -0.00084266       0.00103185
Br       5.08541984       1.42710724       8.80820542      -0.00059666       0.00084435      -0.00103295
