9
Lattice="5.106677959156555 -7.062280372331549e-09 2.9483419639029105 1.7022259687697796 4.81462242226685 2.948341982881702 -4.912027501295844e-08 -1.1489164906307526e-08 5.896684012884606" Properties=species:S:1:pos:R:3:forces:R:3 energy=-42.87138748168945 free_energy=-42.87138748168945 stress="0.00018858768453355879 -1.0897401381271266e-07 2.3434768015029306e-10 -1.0897401381271266e-07 0.00018868267943616956 2.864146697589831e-09 2.3434768015029306e-10 2.864146697589831e-09 0.0001887603139039129" pbc="T T T"
Ag       1.70222612       1.20365540       2.94834194      -0.00000032       0.00000000      -0.00000014
Ag       5.10667801       3.61096695       8.84502592       0.00000010       0.00000002      -0.00000014
Re       0.00000015       0.00000007       0.00000005      -0.00000098       0.00000289       0.00000096
F        1.60414019       1.13429834       5.89668383      -0.00133026      -0.00094008       0.00000027
F        5.20476374       3.68032416       5.89668389       0.00132810       0.00093894       0.00000056
F        4.30460757       1.13429878       4.33756843       0.00067050      -0.00094719      -0.00115982
F        2.50429598       3.68032365       7.45579972      -0.00066791       0.00094520       0.00115729
F        2.50429619       3.68032364       4.33756844      -0.00066891       0.00094614      -0.00115801
F        4.30460760       1.13429861       7.45579958       0.00066962      -0.00094592       0.00115927
