9
Lattice="6.482247932957065 5.6529025349445885e-08 3.742527442553784 2.160749319788482 6.111521923710708 3.7425275196183927 -4.740201173887906e-08 6.086620614425865e-08 7.485054967210221" Properties=species:S:1:pos:R:3:forces:R:3 energy=-21.871103286743164 free_energy=-21.871103286743164 stress="-0.0001462635991629213 8.282458274777582e-09 -5.8029958616145905e-09 8.282458274777582e-09 -0.000146276579471305 3.2593565624239318e-09 -5.8029958616145905e-09 3.2593565624239318e-09 -0.00014626988559029996" pbc="T T T"
Ag       2.16074895       1.52788029       3.74252732      -0.00000026      -0.00000015      -0.00000032
Ag       6.48224788       4.58364163      11.22758264       0.00000007      -0.00000024       0.00000046
Rh       0.00000026      -0.00000044       0.00000021      -0.00000427       0.00000579      -0.00000318
I        2.17524592       1.53813115       7.48505497       0.00782255       0.00553107       0.00000017
I        6.46775140       4.57339111       7.48505498      -0.00782237      -0.00553119      -0.00000028
I        5.39462515       1.53813122       5.62634571      -0.00391059       0.00553088       0.00677355
I        3.24837214       4.57339083       9.34376463       0.00391158      -0.00553254      -0.00677573
I        3.24837209       4.57339112       5.62634527       0.00391398      -0.00553384       0.00677795
I        5.39462505       1.53813126       9.34376399      -0.00391070       0.00553029      -0.00677267
