9
Lattice="4.866593614798607 -2.1450832164233763e-08 2.809729064848323 1.622197895095596 4.588268334177458 2.8097289891228936 1.5317190443128924e-08 -8.191343006300032e-08 5.6194581031665205" Properties=species:S:1:pos:R:3:forces:R:3 energy=-31.932966232299805 free_energy=-31.932966232299805 stress="0.0001432934368494898 1.0654692239597807e-08 -9.772495701554362e-09 1.0654692239597807e-08 0.0001432879944331944 1.9063925993378916e-09 -9.772495701554362e-09 1.9063925993378916e-09 0.00014328320685308427" pbc="T T T"
Ag       1.62219797       1.14706691       2.80972896      -0.00000008       0.00000018       0.00000051
Ag       4.86659338       3.44120124       8.42918770       0.00000043      -0.00000012      -0.00000108
S        0.00000014      -0.00000014      -0.00000011      -0.00000429       0.00000584      -0.00000843
F        1.50203903       1.06210181       5.61945803       0.00218093       0.00154057       0.00000100
F        4.98675225       3.52616641       5.61945781      -0.00217819      -0.00154211       0.00000161
F        4.11557416       1.06210195       4.11053280      -0.00108968       0.00154018       0.00188981
F        2.37321730       3.52616671       7.12838330       0.00109091      -0.00154372      -0.00188695
F        2.37321767       3.52616644       4.11053269       0.00108989      -0.00154267       0.00189017
F        4.11557424       1.06210165       7.12838333      -0.00108995       0.00154196      -0.00188649
