9
Lattice="6.800358755641175 3.964109693620893e-09 3.9261890067741425 2.2667862308579942 6.4114397885688135 3.926189049659408 -1.1427116859357344e-08 4.4443290569140306e-08 7.852378033340643" Properties=species:S:1:pos:R:3:forces:R:3 energy=-18.368785858154297 free_energy=-18.368785858154297 stress="0.00011107266618637368 -1.3157034489674757e-11 -3.0577154142008567e-09 -1.3157034489674757e-11 0.00011106988677056506 4.690864141565498e-09 -3.0577154142008567e-09 4.690864141565498e-09 0.00011107400496257469" pbc="T T T"
Ag       2.26678632       1.60285990       3.92618900      -0.00000012       0.00000024       0.00000008
Ag       6.80035873       4.80857978      11.77856702      -0.00000004      -0.00000021       0.00000027
Sn       0.00000011       0.00000022       0.00000022      -0.00000061      -0.00000119       0.00000153
I        2.36954099       1.67551873       7.85237802      -0.00027141      -0.00019175       0.00000027
I        6.69760356       4.73592100       7.85237804       0.00027357       0.00019318       0.00000008
I        5.61558800       1.67551880       5.97827201       0.00013590      -0.00019322      -0.00023606
I        3.45155697       4.73592117       9.72648394      -0.00013593       0.00019164       0.00023536
I        3.45155709       4.73592119       5.97827200      -0.00013638       0.00019290      -0.00023624
I        5.61558816       1.67551857       9.72648409       0.00013502      -0.00019157       0.00023460
