9
Lattice="5.065221739553503 -4.140191701528265e-08 2.9244071172302943 1.6884072096082454 4.775536826020074 2.9244071135506826 4.689338550436693e-08 2.865184363641968e-08 5.84881415323905" Properties=species:S:1:pos:R:3:forces:R:3 energy=-32.325748443603516 free_energy=-32.325748443603516 stress="0.0004978884244337678 -6.111084616122753e-08 7.67028485171295e-09 -6.111084616122753e-08 0.0004978786455467343 -2.608404514603535e-08 7.67028485171295e-09 -2.608404514603535e-08 0.0004979754448868334" pbc="T T T"
Ag       1.68840715       1.19388410       2.92440704       0.00000005       0.00000015       0.00000021
Ag       5.06522190       3.58165250       8.77322105      -0.00000010       0.00000037      -0.00000014
Se       0.00000005       0.00000012      -0.00000009       0.00000327      -0.00000506       0.00000875
F        1.58027172       1.11742095       5.84881412      -0.00682312      -0.00482425      -0.00000025
F        5.17335731       3.65811589       5.84881427       0.00682202       0.00482476      -0.00000101
F        4.27508571       1.11742084       4.29296284       0.00341314      -0.00482616      -0.00591341
F        2.47854322       3.65811589       7.40466576      -0.00341320       0.00482717       0.00591016
F        2.47854312       3.65811581       4.29296291      -0.00341475       0.00482979      -0.00591555
F        4.27508574       1.11742120       7.40466568       0.00341265      -0.00482681       0.00591126
