9
Lattice="5.004831045449359 5.481222161218389e-08 2.889540692070827 1.6682770900618984 4.718599944289691 2.889540651827174 6.085211492332449e-08 -6.259230920907648e-09 5.779081278742675" Properties=species:S:1:pos:R:3:forces:R:3 energy=-36.77457046508789 free_energy=-36.77457046508789 stress="0.00025155273033306 -8.51357828679511e-09 1.2573639018853555e-08 -8.51357828679511e-09 0.0002515161468181759 -2.178974334299255e-08 1.2573639018853555e-08 -2.178974334299255e-08 0.00025158809148706496" pbc="T T T"
Ag       1.66827694       1.17964962       2.88954037      -0.00000056      -0.00000005       0.00000025
Ag       5.00483082       3.53894987       8.66862201       0.00000021      -0.00000018      -0.00000010
Sn       0.00000007       0.00000000      -0.00000013       0.00000371      -0.00000029      -0.00000216
F        1.63317442       1.15482848       5.77908136      -0.00237864      -0.00168246      -0.00000000
F        5.03993372       3.56377163       5.77908159       0.00237799       0.00168157      -0.00000050
F        4.18824415       1.15482864       4.30391116       0.00118855      -0.00168070      -0.00205940
F        2.48486428       3.56377145       7.25425146      -0.00119066       0.00168240       0.00206202
F        2.48486422       3.56377144       4.30391123      -0.00119007       0.00168267      -0.00206202
F        4.18824416       1.15482877       7.25425149       0.00118953      -0.00168324       0.00206202
