9
Lattice="6.250234292441089 6.764026176664866e-08 3.6085745241180747 2.0834115145452543 5.892777442782251 3.608574489546807 4.808440081850063e-08 -8.340174607249116e-09 7.217148964951503" Properties=species:S:1:pos:R:3:forces:R:3 energy=-18.608911514282227 free_energy=-18.608911514282227 stress="5.4416421335190535e-05 4.5437201223741397e-10 -5.486294085699228e-09 4.5437201223741397e-10 5.4430569434771314e-05 -2.6742805747659304e-09 -5.486294085699228e-09 -2.6742805747659304e-09 5.4414194892160594e-05" pbc="T T T"
Ag       2.08341108       1.47319387       3.60857456      -0.00000076      -0.00000074       0.00000029
Ag       6.25023435       4.41958344      10.82572322      -0.00000047       0.00000000       0.00000001
Se       0.00000019       0.00000006       0.00000041       0.00000026      -0.00000005      -0.00000179
Br       2.11289262       1.49404035       7.21714914      -0.00029682      -0.00021032       0.00000040
Br       6.22075328       4.39873690       7.21714921       0.00029698       0.00021045      -0.00000049
Br       5.19378824       1.49404043       5.43839266       0.00014818      -0.00020895      -0.00025589
Br       3.13985780       4.39873683       8.99590517      -0.00014897       0.00021062       0.00025658
Br       3.13985751       4.39873711       5.43839268      -0.00014796       0.00020903      -0.00025572
Br       5.19378834       1.49404105       8.99590488       0.00014960      -0.00021004       0.00025662
