9
Lattice="6.586229799650073 1.145849161806308e-08 3.8025616705999252 2.1954099220827303 6.209557196681086 3.802561708596177 -1.508906479541265e-08 3.5866229665982886e-08 7.605123367334807" Properties=species:S:1:pos:R:3:forces:R:3 energy=-19.456439971923828 free_energy=-19.456439971923828 stress="-4.1943825635826215e-05 4.527534347431583e-09 2.7802220525785515e-09 4.527534347431583e-09 -4.1958173824241385e-05 -3.2981717357216667e-09 2.7802220525785515e-09 -3.2981717357216667e-09 -4.1962390241678804e-05" pbc="T T T"
Ag       2.19541008       1.55238952       3.80256179       0.00000013       0.00000050      -0.00000001
Ag       6.58622964       4.65716784      11.40768487       0.00000003      -0.00000002       0.00000006
Si      -0.00000002      -0.00000003       0.00000006      -0.00000020      -0.00000012      -0.00000008
I        2.18628151       1.54593468       7.60512341       0.00808149       0.00571435      -0.00000004
I        6.59535820       4.66362269       7.60512347      -0.00808176      -0.00571394      -0.00000007
I        5.49308916       1.54593453       5.69593706      -0.00404025       0.00571402       0.00699857
I        3.28855050       4.66362250       9.51430957       0.00404045      -0.00571440      -0.00699844
I        3.28855064       4.66362256       5.69593721       0.00404028      -0.00571431       0.00699853
I        5.49308912       1.54593467       9.51430957      -0.00404021       0.00571397      -0.00699850
