9
Lattice="4.848843729219545 -3.843062982856381e-08 2.799481310727522 1.6162812073829438 4.571533527417396 2.7994813097879514 3.825453240685213e-09 1.5542370456291275e-09 5.598962614829209" Properties=species:S:1:pos:R:3:forces:R:3 energy=-42.01841354370117 free_energy=-42.01841354370117 stress="5.3158753871684894e-05 -2.8995534862019667e-08 2.9429576997586082e-08 -2.8995534862019667e-08 5.2918192523065954e-05 4.2267691569009e-09 2.9429576997586082e-08 4.2267691569009e-09 5.326149766915478e-05" pbc="T T T"
Ag       1.61628131       1.14288341       2.79948144      -0.00000001       0.00000006      -0.00000029
Ag       4.84884366       3.42865007       8.39844358      -0.00000014      -0.00000004       0.00000107
Si       0.00000005      -0.00000008       0.00000017       0.00000601      -0.00000069      -0.00000561
F        1.40171100       0.99115874       5.59896283       0.00587636       0.00415975       0.00000080
F        5.06341417       3.58037483       5.59896294      -0.00587887      -0.00415987      -0.00000032
F        4.14798808       0.99115884       4.01339842      -0.00293905       0.00415903       0.00508714
F        2.31713668       3.58037491       7.18452659       0.00293657      -0.00415879      -0.00508469
F        2.31713667       3.58037446       4.01339888       0.00293711      -0.00415844       0.00508642
F        4.14798818       0.99115886       7.18452644      -0.00293863       0.00415891      -0.00508553
