9
Lattice="6.082297774409439 2.479369376654627e-08 3.5116162641246897 2.027432604827748 5.734445229279949 3.5116162814759235 1.1803531827262998e-08 2.959717613020908e-08 7.023232507805138" Properties=species:S:1:pos:R:3:forces:R:3 energy=-18.457073211669922 free_energy=-18.457073211669922 stress="-0.00013248229515738785 -7.3890356055983375e-09 1.0008019302176763e-08 -7.3890356055983375e-09 -0.00013246912567410618 -6.765665361285755e-09 1.0008019302176763e-08 -6.765665361285755e-09 -0.00013246989692561328" pbc="T T T"
Ag       2.02743262       1.43361134       3.51161626       0.00000007      -0.00000022      -0.00000030
Ag       6.08229771       4.30083395      10.53484842      -0.00000015       0.00000075      -0.00000070
S       -0.00000000       0.00000013       0.00000004       0.00000105       0.00000066      -0.00000086
Br       2.06800093       1.46229759       7.02323244       0.00068774       0.00048507       0.00000022
Br       6.04172939       4.27214773       7.02323266      -0.00068679      -0.00048585       0.00000083
Br       5.04829750       1.46229768       5.30255773      -0.00034321       0.00048516       0.00059526
Br       3.06143311       4.27214763       8.74390737       0.00034307      -0.00048623      -0.00059400
Br       3.06143297       4.27214752       5.30255777       0.00034280      -0.00048596       0.00059433
Br       5.04829734       1.46229757       8.74390751      -0.00034462       0.00048661      -0.00059483
