9
Lattice="5.7311348856619215 -2.806850375069199e-07 3.308872377444126 1.9103780646343642 5.403365186438394 3.308872318474461 1.671642621561335e-08 -6.040255406804619e-08 6.617744725934666" Properties=species:S:1:pos:R:3:forces:R:3 energy=-27.693666458129883 free_energy=-27.693666458129883 stress="3.564908911357634e-05 -4.4600128035199305e-08 -3.6603515773947493e-09 -4.4600128035199305e-08 3.556739829946309e-05 -1.2180076502943393e-08 -3.6603515773947493e-09 -1.2180076502943393e-08 3.5709384974325076e-05" pbc="T T T"
Ag       1.91037840       1.35084137       3.30887241       0.00000030       0.00000008       0.00000014
Ag       5.73113472       4.05252372       9.92661739       0.00000027       0.00000011       0.00000016
Si       0.00000007      -0.00000061      -0.00000119       0.00000155       0.00001078       0.00001660
Cl       1.80461867       1.27605804       6.61774482      -0.00756249      -0.00534639       0.00000035
Cl       5.83689452       4.12730720       6.61774482       0.00755161       0.00533691      -0.00000081
Cl       4.82882501       1.27605791       4.87171842       0.00378613      -0.00534783      -0.00655271
Cl       2.81268748       4.12730699       8.36377143      -0.00377629       0.00534056       0.00654167
Cl       2.81268748       4.12730729       4.87171832      -0.00378030       0.00534654      -0.00655006
Cl       4.82882537       1.27605735       8.36377145       0.00377913      -0.00534071       0.00654447
