9
Lattice="5.855415874588212 2.397323359392682e-07 3.3806258678808128 1.9518054661001496 5.52053919346175 3.3806259569966466 -3.058058117421477e-08 8.752047445449218e-08 6.761251788728715" Properties=species:S:1:pos:R:3:forces:R:3 energy=-21.993389129638672 free_energy=-21.993389129638672 stress="-4.502388401306234e-05 4.70006469299733e-08 3.3871938587282102e-09 4.70006469299733e-08 -4.505904871621169e-05 -8.424577480070639e-09 3.3871938587282102e-09 -8.424577480070639e-09 -4.5097785914549604e-05" pbc="T T T"
Ag       1.95180531       1.38013510       3.38062613       0.00000049       0.00000064       0.00000041
Ag       5.85541585       4.14040483      10.14187768      -0.00000074      -0.00000028       0.00000018
Se      -0.00000002       0.00000023      -0.00000102       0.00000142      -0.00000382       0.00001044
Cl       1.95838899       1.38479041       6.76125185      -0.00354314      -0.00250646      -0.00000092
Cl       5.84883211       4.13574917       6.76125177       0.00354410       0.00250599      -0.00000077
Cl       4.87622208       1.38478952       5.07663934       0.00176802      -0.00250061      -0.00306217
Cl       2.93099924       4.13574977       8.44586474      -0.00176726       0.00249960       0.00306043
Cl       2.93099967       4.13574947       5.07663960      -0.00176961       0.00250361      -0.00306619
Cl       4.87622199       1.38478959       8.44586440       0.00176672      -0.00249861       0.00305856
