9
Lattice="5.7987436831966 3.740709516405651e-09 3.347906194381273 1.9329145865178539 5.46710808737931 3.3479061564051027 4.569323055531697e-08 -1.4201128803279036e-08 6.695812309619523" Properties=species:S:1:pos:R:3:forces:R:3 energy=-21.566038131713867 free_energy=-21.566038131713867 stress="-0.00013279676204547286 -9.955444468801034e-09 1.0513873327511192e-08 -9.955444468801034e-09 -0.00013277732068672776 -1.155798479146597e-08 1.0513873327511192e-08 -1.155798479146597e-08 -0.00013281177962198853" pbc="T T T"
Ag       1.93291465       1.36677686       3.34790597       0.00000019      -0.00000027      -0.00000078
Ag       5.79874352       4.10033122      10.04371862       0.00000001       0.00000008      -0.00000009
S        0.00000000       0.00000022       0.00000015      -0.00000014      -0.00000076       0.00000164
Cl       1.91053963       1.35095563       6.69581220       0.00719969       0.00509031       0.00000053
Cl       5.82111867       4.11615240       6.69581240      -0.00719957      -0.00508973       0.00000076
Cl       4.84347391       1.35095570       5.00248191      -0.00359950       0.00508966       0.00623538
Cl       2.88818435       4.11615251       8.38914252       0.00360059      -0.00509068      -0.00623596
Cl       2.88818463       4.11615225       5.00248228       0.00359900      -0.00508936       0.00623439
Cl       4.84347394       1.35095555       8.38914257      -0.00360025       0.00509062      -0.00623575
