9
Lattice="4.895432606061258 4.879602976153436e-08 2.826379266336699 1.6318108927993562 4.61545846673123 2.826379304256647 -8.52645449707069e-08 -1.3848895427947546e-08 5.652758680355895" Properties=species:S:1:pos:R:3:forces:R:3 energy=-42.448360443115234 free_energy=-42.448360443115234 stress="0.0001766160858096555 -1.0462703592395428e-08 -1.8388089273457808e-08 -1.0462703592395428e-08 0.0001767798385117203 1.639406299602797e-08 -1.8388089273457808e-08 1.639406299602797e-08 0.00017669251246843487" pbc="T T T"
Ag       1.63181097       1.15386455       2.82637926       0.00000016       0.00000023      -0.00000024
Ag       4.89543257       3.46159382       8.47913754      -0.00000016      -0.00000032       0.00000009
Sc      -0.00000013       0.00000009       0.00000005      -0.00000094      -0.00000117       0.00000050
F        1.64299848       1.16177541       5.65275873      -0.00115448      -0.00081685       0.00000022
F        4.88424465       3.45368307       5.65275884       0.00115663       0.00081801      -0.00000071
F        4.07393334       1.16177570       4.24925792       0.00057763      -0.00081712      -0.00100172
F        2.45331014       3.45368260       7.05625937      -0.00057912       0.00081775       0.00100178
F        2.45331012       3.45368285       4.24925793      -0.00057709       0.00081673      -0.00100103
F        4.07393325       1.16177576       7.05625926       0.00057715      -0.00081715       0.00100055
