9
Lattice="6.547871727474393 4.317677189254531e-08 3.7804152336115564 2.1826239693484375 6.173392104815198 3.780415199866216 -1.5219981541135175e-08 -5.209155175326582e-08 7.560830493584849" Properties=species:S:1:pos:R:3:forces:R:3 energy=-15.951969146728516 free_energy=-15.951969146728516 stress="-2.6953090127790347e-05 -5.388890667035184e-09 -1.3620491401411527e-09 -5.388890667035184e-09 -2.7014200895791873e-05 1.4855641161659605e-08 -1.3620491401411527e-09 1.4855641161659605e-08 -2.6971301849698648e-05" pbc="T T T"
Ag       2.18262396       1.54334800       3.78041529      -0.00000031      -0.00000016       0.00000008
Ag       6.54787175       4.63004396      11.34124548       0.00000013      -0.00000056      -0.00000052
S       -0.00000001      -0.00000005      -0.00000014       0.00000090       0.00000065       0.00000041
I        2.32544859       1.64434053       7.56083036       0.00416729       0.00294431      -0.00000004
I        6.40504704       4.52905157       7.56083043      -0.00416717      -0.00294486      -0.00000009
I        5.38514777       1.64434065       5.79431277      -0.00208367       0.00294548       0.00360784
I        3.34534827       4.52905154       9.32734821       0.00208221      -0.00294471      -0.00360668
I        3.34534795       4.52905165       5.79431303       0.00208378      -0.00294541       0.00360754
I        5.38514742       1.64434055       9.32734826      -0.00208299       0.00294526      -0.00360861
