9
Lattice="6.24831570067908 -3.1231820829960045e-08 3.6074668180019844 2.0827718608489874 5.8909686702522945 3.607466835204229 -2.5611032034908528e-08 2.958655868376506e-09 7.214933680363642" Properties=species:S:1:pos:R:3:forces:R:3 energy=-18.608898162841797 free_energy=-18.608898162841797 stress="-1.4454852134804241e-05 -5.754847265393437e-09 3.995815678337067e-09 -5.754847265393437e-09 -1.4443167856370565e-05 -2.0268215994434513e-09 3.995815678337067e-09 -2.0268215994434513e-09 -1.4441596249525901e-05" pbc="T T T"
Ag       2.08277198       1.47274205       3.60746692       0.00000039      -0.00000019       0.00000009
Ag       6.24831556       4.41822658      10.82240059      -0.00000064       0.00000036       0.00000045
Se      -0.00000012       0.00000015      -0.00000023       0.00000064      -0.00000025      -0.00000009
Br       2.11314446       1.49421864       7.21493372      -0.00410992      -0.00290636       0.00000000
Br       6.21794311       4.39674992       7.21493368       0.00411019       0.00290638      -0.00000008
Br       5.19174324       1.49421879       5.43750362       0.00205538      -0.00290671      -0.00355989
Br       3.13934419       4.39674996       8.99236376      -0.00205571       0.00290688       0.00355995
Br       3.13934428       4.39674984       5.43750362      -0.00205537       0.00290666      -0.00356002
Br       5.19174344       1.49421865       8.99236368       0.00205508      -0.00290680       0.00355959
