9
Lattice="6.226546940825017 -4.190945657292576e-08 3.5948986305081676 2.0755156185108037 5.870444741076513 3.5948986113140657 1.53611478879894e-08 -1.2645941760061995e-08 7.189797234410064" Properties=species:S:1:pos:R:3:forces:R:3 energy=-22.056377410888672 free_energy=-22.056377410888672 stress="0.00017181478324346244 -1.1259183807510453e-08 1.4749990562279436e-08 -1.1259183807510453e-08 0.00017182131705339998 -1.4883188015346605e-08 1.4749990562279436e-08 -1.4883188015346605e-08 0.00017184427997563034" pbc="T T T"
Ag       2.07551565       1.46761112       3.59489862      -0.00000002       0.00000008       0.00000004
Ag       6.22654702       4.40283365      10.78469540       0.00000028      -0.00000005       0.00000013
Sn       0.00000023      -0.00000033       0.00000032      -0.00000275       0.00000520      -0.00000676
Br       2.12401994       1.50190870       7.18979735      -0.00143798      -0.00101605       0.00000037
Br       6.17804259       4.36853585       7.18979716       0.00143616       0.00101634       0.00000043
Br       5.16453688       1.50190875       5.43435367       0.00071859      -0.00101681      -0.00124531
Br       3.13752541       4.36853609       8.94524131      -0.00071783       0.00101615       0.00124410
Br       3.13752573       4.36853561       5.43435377      -0.00071835       0.00101491      -0.00124315
Br       5.16453685       1.50190931       8.94524028       0.00072201      -0.00101976       0.00125007
