9
Lattice="6.222218896472775 -1.530963424870248e-08 3.592399852848995 2.07407299669681 5.866364296791939 3.592399773798293 8.574690828875433e-08 -3.618475716145577e-08 7.184799557179996" Properties=species:S:1:pos:R:3:forces:R:3 energy=-22.05636215209961 free_energy=-22.05636215209961 stress="-0.0001328675280092284 8.91052032159223e-09 1.4450677987554172e-08 8.91052032159223e-09 -0.00013287233014125377 -1.4520754376690093e-08 1.4450677987554172e-08 -1.4520754376690093e-08 -0.00013287723413668573" pbc="T T T"
Ag       2.07407304       1.46659121       3.59239967      -0.00000024       0.00000103      -0.00000039
Ag       6.22221901       4.39977312      10.77719999       0.00000014      -0.00000005       0.00000050
Sn       0.00000019      -0.00000039       0.00000040      -0.00000526       0.00000592      -0.00000786
Br       2.12367793       1.50166706       7.18479958      -0.00378471      -0.00267567      -0.00000082
Br       6.17261400       4.36469678       7.18479925       0.00378453       0.00267757      -0.00000052
Br       5.16038028       1.50166702       5.43155918       0.00189101      -0.00267548      -0.00327781
Br       3.13591182       4.36469717       8.93804028      -0.00189122       0.00267545       0.00327558
Br       3.13591196       4.36469741       5.43155874      -0.00188986       0.00267227      -0.00327275
Br       5.16037965       1.50166757       8.93803963       0.00189570      -0.00268105       0.00328414
