9
Lattice="5.929805246933854 1.6533105295255506e-08 3.4235746964599354 1.9766017559304423 5.590674277042256 3.4235747114162893 1.2677785603110315e-08 2.7282285620475474e-08 6.847149370961289" Properties=species:S:1:pos:R:3:forces:R:3 energy=-25.75874137878418 free_energy=-25.75874137878418 stress="0.00013094666064716876 1.935123616902956e-09 5.2612056933298845e-09 1.935123616902956e-09 0.0001309176004724577 -3.369706458311583e-10 5.2612056933298845e-09 -3.369706458311583e-10 0.0001310016232309863" pbc="T T T"
Ag       1.97660172       1.39766860       3.42357470      -0.00000032      -0.00000020      -0.00000043
Ag       5.92980529       4.19300586      10.27072403       0.00000038       0.00000078       0.00000077
Sn      -0.00000012       0.00000006       0.00000016       0.00000099      -0.00000144      -0.00000233
Cl       1.99291850       1.40920642       6.84714934      -0.00043619      -0.00030799      -0.00000014
Cl       5.91348854       4.18146794       6.84714938       0.00043649       0.00030786       0.00000048
Cl       4.93334587       1.40920626       5.14949299       0.00021803      -0.00030965      -0.00037696
Cl       2.97306117       4.18146798       8.54480564      -0.00021910       0.00031059       0.00037939
Cl       2.97306128       4.18146788       5.14949311      -0.00021821       0.00031033      -0.00037900
Cl       4.93334583       1.40920628       8.54480577       0.00021798      -0.00031028       0.00037819
