9
Lattice="6.262843979533533 1.9570517233293357e-08 3.615854649257913 2.087614677573205 5.904666020470798 3.615854650509497 -2.2651935848925168e-08 -1.4484437574032042e-08 7.231709337750054" Properties=species:S:1:pos:R:3:forces:R:3 energy=-27.90444564819336 free_energy=-27.90444564819336 stress="0.0001552384055685252 3.2087119072876646e-10 -3.364480249956614e-09 3.2087119072876646e-10 0.00015524400805588812 9.595912509041682e-09 -3.364480249956614e-09 9.595912509041682e-09 0.0001552533940412104" pbc="T T T"
Ag       2.08761437       1.47616671       3.61585467      -0.00000050      -0.00000005       0.00000012
Ag       6.26284381       4.42849959      10.84756393      -0.00000053       0.00000041      -0.00000017
Sc      -0.00000021      -0.00000008      -0.00000026       0.00000101      -0.00000099       0.00000029
Br       2.12571846       1.50310984       7.23170935      -0.00156301      -0.00110765      -0.00000025
Br       6.22474044       4.40155642       7.23170928       0.00156309       0.00110482       0.00000088
Br       5.19998494       1.50310975       5.45678090       0.00078320      -0.00110659      -0.00135387
Br       3.15047379       4.40155618       9.00663781      -0.00078239       0.00110773       0.00135696
Br       3.15047410       4.40155608       5.45678081      -0.00078241       0.00110648      -0.00135656
Br       5.19998488       1.50310960       9.00663805       0.00078152      -0.00110414       0.00135265
