9
Lattice="4.865832075306617 -1.1405537723701728e-07 2.80928953252464 1.621943959918121 4.587550208971676 2.8092894591751087 6.400759919187538e-09 -8.530840826457661e-08 5.6185790539628115" Properties=species:S:1:pos:R:3:forces:R:3 energy=-31.932971954345703 free_energy=-31.932971954345703 stress="4.180731775704771e-05 -3.1413577517014346e-08 -1.9948753759990723e-08 -3.1413577517014346e-08 4.182406701147556e-05 -4.947863008197828e-09 -1.9948753759990723e-08 -4.947863008197828e-09 4.186170917819254e-05" pbc="T T T"
Ag       1.62194393       1.14688751       2.80928954       0.00000025       0.00000004       0.00000010
Ag       4.86583226       3.44066227       8.42786854      -0.00000067       0.00000031      -0.00000071
S       -0.00000002       0.00000010       0.00000008       0.00000133      -0.00000063       0.00000594
F        1.50200664       1.06207879       5.61857908       0.00254399       0.00179932      -0.00000042
F        4.98576918       3.52547110       5.61857903      -0.00254431      -0.00179866      -0.00000031
F        4.11482863       1.06207914       4.11006555      -0.00127128       0.00179788       0.00220048
F        2.37294750       3.52547104       7.12709248       0.00127101      -0.00179780      -0.00220294
F        2.37294741       3.52547112       4.11006557       0.00127117      -0.00179833       0.00220127
F        4.11482854       1.06207907       7.12709238      -0.00127143       0.00179802      -0.00220315
