9
Lattice="5.927361585124661 -1.8490946871260286e-08 3.4221637008316406 1.9757871522378088 5.58836986138627 3.422163744774289 -3.9623410300788085e-08 2.580051432698152e-08 6.844327470293076" Properties=species:S:1:pos:R:3:forces:R:3 energy=-25.758737564086914 free_energy=-25.758737564086914 stress="-3.7816691474290565e-05 8.992969924292993e-09 8.321161537594435e-10 8.992969924292993e-09 -3.786003799177706e-05 5.712353257081304e-09 8.321161537594435e-10 5.712353257081304e-09 -3.786819434026256e-05" pbc="T T T"
Ag       1.97578715       1.39709257       3.42216381       0.00000051       0.00000013       0.00000012
Ag       5.92736167       4.19127746      10.26649145      -0.00000059       0.00000024       0.00000059
Sn       0.00000001       0.00000002      -0.00000024       0.00000017      -0.00000086       0.00000860
Cl       1.99290424       1.40919593       6.84432730      -0.00385413      -0.00272365       0.00000061
Cl       5.91024424       4.17917387       6.84432730       0.00385377       0.00272454       0.00000011
Cl       4.93090928       1.40919593       5.14806878       0.00192765      -0.00272549      -0.00333845
Cl       2.97223919       4.17917411       8.54058622      -0.00192411       0.00272140       0.00333421
Cl       2.97223944       4.17917404       5.14806867      -0.00192766       0.00272619      -0.00333820
Cl       4.93090958       1.40919558       8.54058639       0.00192428      -0.00272251       0.00333210
