9
Lattice="5.877766637681973 1.816949647108318e-09 3.393530138855128 1.9592555171773538 5.541611359549824 3.393530191560855 3.6602719945852867e-08 9.043311378363564e-08 6.787060214312441" Properties=species:S:1:pos:R:3:forces:R:3 energy=-31.431320190429688 free_energy=-31.431320190429688 stress="0.0003968037781305611 3.4549152871932165e-08 1.9044920307464963e-08 3.4549152871932165e-08 0.00039672013372182846 2.165044854507414e-08 1.9044920307464963e-08 2.165044854507414e-08 0.00039678317261859775" pbc="T T T"
Ag       1.95925557       1.38540293       3.39353006       0.00000038      -0.00000067      -0.00000007
Ag       5.87776683       4.15620851      10.18059049       0.00000015      -0.00000009      -0.00000038
Sc      -0.00000012      -0.00000018       0.00000039       0.00000226       0.00000343      -0.00000847
Cl       1.99675597       1.41191992       6.78706013      -0.00467724      -0.00330903       0.00000276
Cl       5.84026634       4.12969179       6.78706016       0.00467469       0.00330731       0.00000167
Cl       4.87938816       1.41191947       5.12277173       0.00234011      -0.00330226      -0.00405222
Cl       2.95763399       4.12969146       8.45134868      -0.00234253       0.00331008       0.00405394
Cl       2.95763378       4.12969171       5.12277194      -0.00234020       0.00330575      -0.00405101
Cl       4.87938826       1.41192024       8.45134860       0.00234216      -0.00331470       0.00405373
