9
Lattice="6.836807095377298 3.427341945571233e-08 3.9472323596633467 2.278935791382347 6.445803500304512 3.9472322546839047 2.869015844949812e-08 -1.0828599530930941e-07 7.894464669633823" Properties=species:S:1:pos:R:3:forces:R:3 energy=-24.36387062072754 free_energy=-24.36387062072754 stress="6.558783206855878e-05 1.9901497338992158e-08 7.293917914097392e-09 1.9901497338992158e-08 6.555771687999368e-05 -1.7075217684237032e-08 7.293917914097392e-09 -1.7075217684237032e-08 6.554917490575463e-05" pbc="T T T"
Ag       2.27893555       1.61145076       3.94723240      -0.00000022      -0.00000030       0.00000023
Ag       6.83680719       4.83435261      11.84169698      -0.00000025      -0.00000042       0.00000005
Sc       0.00000024      -0.00000001      -0.00000027      -0.00000465      -0.00000084       0.00000461
I        2.32286852       1.64251597       7.89446450      -0.00240665      -0.00169966       0.00000025
I        6.79287397       4.80328730       7.89446468       0.00241085       0.00170349      -0.00000022
I        5.67537285       1.64251605       5.95889548       0.00120376      -0.00170191      -0.00208491
I        3.44037010       4.80328776       9.83003401      -0.00120215       0.00169885       0.00208109
I        3.44037032       4.80328724       5.95889556      -0.00120443       0.00170266      -0.00208585
I        5.67537293       1.64251607       9.83003375       0.00120381      -0.00170180       0.00208472
