9
Lattice="5.00449926194035 2.3992609655365928e-08 2.889349028952979 1.6681664576554494 4.71828727800257 2.8893490040318635 2.4768597542234152e-08 -1.3007987005659357e-08 5.778698015005489" Properties=species:S:1:pos:R:3:forces:R:3 energy=-36.774574279785156 free_energy=-36.774574279785156 stress="0.00012630356650333852 -9.349681562298429e-08 2.7357800469474114e-09 -9.349681562298429e-08 0.0001263563899556175 -1.5192586744205983e-08 2.7357800469474114e-09 -1.5192586744205983e-08 0.00012641485955100507" pbc="T T T"
Ag       1.66816658       1.17957183       2.88934909      -0.00000010      -0.00000012       0.00000006
Ag       5.00449917       3.53871545       8.66804719       0.00000025       0.00000005      -0.00000009
Sn      -0.00000000       0.00000001      -0.00000005       0.00000396      -0.00000147      -0.00000379
F        1.63303220       1.15472828       5.77869807       0.00028098       0.00019854      -0.00000017
F        5.03963356       3.56355905       5.77869808      -0.00028402      -0.00020042      -0.00000058
F        4.18798304       1.15472814       4.30359655      -0.00013879       0.00019711       0.00024074
F        2.48468278       3.56355893       7.25379916       0.00013641      -0.00019279      -0.00023669
F        2.48468278       3.56355892       4.30359665       0.00013855      -0.00019482       0.00023872
F        4.18798294       1.15472855       7.25379907      -0.00013727       0.00019395      -0.00023776
