9
Lattice="6.547980218667336 -8.06215779603943e-08 3.780478098573209 2.1826600048553066 6.1734948132951635 3.7804780847566892 -2.01811501181252e-08 -3.119196450102013e-08 7.560956232101166" Properties=species:S:1:pos:R:3:forces:R:3 energy=-15.951977729797363 free_energy=-15.951977729797363 stress="9.345651960757095e-06 1.738520971628077e-08 -3.5107906165565694e-11 1.738520971628077e-08 9.346275874122512e-06 6.894795290257605e-10 -3.5107906165565694e-11 6.894795290257605e-10 9.32675084186485e-06" pbc="T T T"
Ag       2.18266009       1.54337360       3.78047811       0.00000050       0.00000005      -0.00000107
Ag       6.54798022       4.63012122      11.34143448       0.00000001       0.00000013       0.00000053
S        0.00000028       0.00000013       0.00000007      -0.00000127      -0.00000080       0.00000014
I        2.32601610       1.64474177       7.56095629      -0.00007397      -0.00005263       0.00000018
I        6.40462395       4.52875272       7.56095598       0.00007415       0.00005236      -0.00000038
I        5.38497197       1.64474188       5.79486731       0.00003701      -0.00005227      -0.00006372
I        3.34566810       4.52875291       9.32704504      -0.00003684       0.00005208       0.00006390
I        3.34566813       4.52875279       5.79486736      -0.00003631       0.00005227      -0.00006327
I        5.38497199       1.64474180       9.32704499       0.00003685      -0.00005110       0.00006369
