9
Lattice="5.798872159127502 -5.458581298912339e-08 3.3479804235380706 1.9329573516813177 5.467229283536098 3.347980394492465 1.6768442762826894e-08 -2.3716371269418782e-08 6.695960818032264" Properties=species:S:1:pos:R:3:forces:R:3 energy=-21.566055297851562 free_energy=-21.566055297851562 stress="3.3103471650974825e-05 1.3383693264756857e-08 -4.128715147544426e-09 1.3383693264756857e-08 3.317022492410615e-05 -6.722452372542875e-09 -4.128715147544426e-09 -6.722452372542875e-09 3.3159973099827766e-05" pbc="T T T"
Ag       1.93295734       1.36680733       3.34798061      -0.00000064      -0.00000001       0.00000024
Ag       5.79887264       4.10042186      10.04394121       0.00000041       0.00000001       0.00000040
S        0.00000015       0.00000002       0.00000016      -0.00000099      -0.00000065      -0.00000456
Cl       1.91119523       1.35141918       6.69596070      -0.00041886      -0.00029483       0.00000083
Cl       5.82063411       4.11581000       6.69596059       0.00041871       0.00029470       0.00000051
Cl       4.84327423       1.35141911       5.00312442       0.00020959      -0.00029464      -0.00036289
Cl       2.88855499       4.11581017       8.38879723      -0.00020895       0.00029440       0.00036424
Cl       2.88855511       4.11580998       5.00312446      -0.00020940       0.00029574      -0.00036342
Cl       4.84327429       1.35141917       8.38879719       0.00021011      -0.00029469       0.00036477
