9
Lattice="5.061792452683168 3.0712114067373574e-09 2.922427144350957 1.6872641398824768 4.77230394566379 2.922427168439381 6.369996723123262e-08 7.454491858021491e-08 5.844854178370228" Properties=species:S:1:pos:R:3:forces:R:3 energy=-32.32577896118164 free_energy=-32.32577896118164 stress="0.00018132738478016108 -4.2306425029892125e-08 -1.1696689172779884e-09 -4.2306425029892125e-08 0.00018141047621611506 1.1785397102670458e-09 -1.1696689172779884e-09 1.1785397102670458e-09 0.0001813782873796299" pbc="T T T"
Ag       1.68726424       1.19307615       2.92242694      -0.00000004       0.00000004      -0.00000006
Ag       5.06179273       3.57922796       8.76728134      -0.00000027      -0.00000012      -0.00000016
Se      -0.00000006      -0.00000010       0.00000013       0.00000027       0.00000192      -0.00000577
F        1.58033814       1.11746780       5.84485435      -0.00660929      -0.00467360       0.00000031
F        5.16871857       3.65483632       5.84485431       0.00660852       0.00467241       0.00000031
F        4.27162324       1.11746789       4.29103981       0.00330602      -0.00467500      -0.00572488
F        2.47743306       3.65483603       7.39866837      -0.00330612       0.00467589       0.00572726
F        2.47743329       3.65483602       4.29103987      -0.00330561       0.00467452      -0.00572437
F        4.27162324       1.11746791       7.39866839       0.00330646      -0.00467610       0.00572747
