9
Lattice="6.084260798302338 6.633862567980016e-08 3.512749591022518 2.028086948844555 5.736296285139409 3.5127496715066537 -1.2961262244471026e-07 6.922538832542295e-09 7.025499406540705" Properties=species:S:1:pos:R:3:forces:R:3 energy=-18.457080841064453 free_energy=-18.457080841064453 stress="6.215232133399695e-05 -6.4863878712628775e-09 2.5674318226975856e-09 -6.4863878712628775e-09 6.213802407728508e-05 -9.191979621903101e-09 2.5674318226975856e-09 -9.191979621903101e-09 6.215392932062969e-05" pbc="T T T"
Ag       2.02808710       1.43407372       3.51274963       0.00000039      -0.00000071      -0.00000026
Ag       6.08426064       4.30222250      10.53824854      -0.00000051       0.00000076      -0.00000131
S        0.00000027       0.00000017       0.00000012      -0.00000044       0.00000041      -0.00000024
Br       2.06836698       1.46255646       7.02549959       0.00024857       0.00017530       0.00000040
Br       6.04398056       4.27373976       7.02549931      -0.00024801      -0.00017630       0.00000019
Br       5.05007698       1.46255647       5.30400826      -0.00012481       0.00017476       0.00021598
Br       3.06227052       4.27374006       8.74699031       0.00012537      -0.00017466      -0.00021532
Br       3.06227052       4.27373992       5.30400811       0.00012376      -0.00017579       0.00021540
Br       5.05007693       1.46255637       8.74699083      -0.00012429       0.00017614      -0.00021488
