9
Lattice="6.047462050130923 6.248629349193746e-08 3.4915040297232283 2.0158207599766516 5.701601924494881 3.4915039990883265 8.002734676414248e-08 1.9067937434882364e-08 6.983007920835139" Properties=species:S:1:pos:R:3:forces:R:3 energy=-23.2779541015625 free_energy=-23.2779541015625 stress="-0.00018308022117707878 1.4433777506539514e-09 -5.308314551810689e-11 1.4433777506539514e-09 -0.00018309996812604368 -1.0395180716216146e-08 -5.308314551810689e-11 -1.0395180716216146e-08 -0.00018306919082533568" pbc="T T T"
Ag       2.01582083       1.42540039       3.49150398      -0.00000088      -0.00000021      -0.00000025
Ag       6.04746191       4.27620136      10.47451182      -0.00000040      -0.00000066       0.00000020
Si       0.00000028       0.00000023      -0.00000004      -0.00000255      -0.00000143      -0.00000133
Br       1.96767550       1.39135668       6.98300799       0.00510046       0.00360651      -0.00000095
Br       6.09560676       4.31024483       6.98300808      -0.00509374      -0.00360218       0.00000039
Br       5.06362453       1.39135685       5.19556143      -0.00254986       0.00360476       0.00441364
Br       2.99965869       4.31024509       8.77045469       0.00254775      -0.00360476      -0.00441251
Br       2.99965875       4.31024544       5.19556128       0.00254865      -0.00360600       0.00441366
Br       5.06362425       1.39135706       8.77045458      -0.00254939       0.00360402      -0.00441287
