9
Lattice="6.675767737392441 -8.502619952688177e-08 3.8542563465776634 2.225255908445228 6.293974202205073 3.854256214691318 3.902063001919524e-08 -1.3393529898158247e-07 7.7085126255695675" Properties=species:S:1:pos:R:3:forces:R:3 energy=-16.14090919494629 free_energy=-16.14090919494629 stress="5.8785553846973926e-05 8.828006770045249e-09 1.1642625752372737e-09 8.828006770045249e-09 5.87818976782728e-05 5.516862966459257e-09 1.1642625752372737e-09 5.516862966459257e-09 5.876953946426511e-05" pbc="T T T"
Ag       2.22525598       1.57349350       3.85425622      -0.00000003      -0.00000008      -0.00000010
Ag       6.67576772       4.72048057      11.56276912      -0.00000005      -0.00000018       0.00000011
Se      -0.00000000      -0.00000001       0.00000017       0.00000007       0.00000002      -0.00000044
I        2.35026999       1.66189162       7.70851258      -0.00309463      -0.00218785       0.00000005
I        6.55075362       4.63208230       7.70851248       0.00309458       0.00218795      -0.00000015
I        5.50063271       1.66189169       5.88964953       0.00154705      -0.00218768      -0.00267968
I        3.40039105       4.63208241       9.52737554      -0.00154725       0.00218816       0.00267996
I        3.40039094       4.63208247       5.88964958      -0.00154714       0.00218773      -0.00267968
I        5.50063271       1.66189140       9.52737550       0.00154740      -0.00218810       0.00268000
