9
Lattice="5.782491645027213 1.921300114499557e-10 3.338522943127837 1.9274972071026408 5.451785427817538 3.338522957135958 9.507784279153702e-09 2.3879357025346733e-08 6.677045869787726" Properties=species:S:1:pos:R:3:forces:R:3 energy=-32.29951858520508 free_energy=-32.29951858520508 stress="0.00039109858334995806 -1.5327987767932427e-08 6.651407424840272e-09 -1.5327987767932427e-08 0.00039105219184421003 -7.2459789279832876e-09 6.651407424840272e-09 -7.2459789279832876e-09 0.00039108749479055405" pbc="T T T"
Ag       1.92749710       1.36294634       3.33852289       0.00000028       0.00000009       0.00000000
Ag       5.78249178       4.08883898      10.01556890      -0.00000019       0.00000012       0.00000015
Ti       0.00000008      -0.00000012      -0.00000021       0.00000063      -0.00000072       0.00000030
Cl       1.90833585       1.34939734       6.67704581      -0.00551739      -0.00389986       0.00000068
Cl       5.80165300       4.10238824       6.67704583       0.00551738       0.00389990       0.00000036
Cl       4.82832335       1.34939721       4.99119012       0.00275911      -0.00390223      -0.00477642
Cl       2.88166525       4.10238840       8.36290187      -0.00275818       0.00390120       0.00477643
Cl       2.88166553       4.10238812       4.99118994      -0.00275991       0.00390248      -0.00477864
Cl       4.82832353       1.34939730       8.36290190       0.00275825      -0.00390100       0.00477694
