9
Lattice="6.876026680659194 9.593468244480379e-08 3.969875724345124 2.292008896613374 6.482780034477437 3.969875875705126 -8.94841209956335e-08 1.221025843931087e-07 7.93975160368116" Properties=species:S:1:pos:R:3:forces:R:3 energy=-16.55356788635254 free_energy=-16.55356788635254 stress="-3.681014641188085e-05 1.1740917127411876e-09 -3.3591942560917687e-09 1.1740917127411876e-09 -3.680112786241807e-05 1.0296377972451864e-08 -3.3591942560917687e-09 1.0296377972451864e-08 -3.681091038743034e-05" pbc="T T T"
Ag       2.29200874       1.62069481       3.96987575      -0.00000022      -0.00000068      -0.00000007
Ag       6.87602638       4.86208521      11.90962707      -0.00000082      -0.00000005      -0.00000063
Te       0.00000024       0.00000045      -0.00000093      -0.00000147      -0.00000285       0.00000495
I        2.41051428       1.70449120       7.93975167       0.00011093       0.00007783       0.00000022
I        6.75752093       4.77828891       7.93975194      -0.00010898      -0.00007681      -0.00000030
I        5.67076935       1.70449135       6.05744268      -0.00005396       0.00007682       0.00009439
I        3.49726606       4.77828915       9.82206083       0.00005580      -0.00007763      -0.00009589
I        3.49726626       4.77828897       6.05744259       0.00005448      -0.00007570       0.00009409
I        5.67076972       1.70449094       9.82206123      -0.00005579       0.00007909      -0.00009675
