9
Lattice="6.37773169573747 1.209595465155272e-07 3.6821849497065693 2.1259106822501344 6.012982917473336 3.682184944575407 -3.1336009447638466e-08 -2.8442321939905836e-08 7.36436995368878" Properties=species:S:1:pos:R:3:forces:R:3 energy=-19.464866638183594 free_energy=-19.464866638183594 stress="3.817324250121601e-05 2.2009047029314388e-08 -5.70004310418426e-09 2.2009047029314388e-08 3.8155583752086386e-05 7.383515132630691e-09 -5.70004310418426e-09 7.383515132630691e-09 3.8137084629852325e-05" pbc="T T T"
Ag       2.12591060       1.50324596       3.68218490      -0.00000001      -0.00000010      -0.00000001
Ag       6.37773180       4.50973719      11.04655503       0.00000027       0.00000038      -0.00000073
Te      -0.00000006      -0.00000035       0.00000382      -0.00000020       0.00000434      -0.00003195
Br       2.19722261       1.55367086       7.36437005      -0.00353293      -0.00249732      -0.00000001
Br       6.30642026       4.45931222       7.36436979       0.00353013       0.00249515       0.00000040
Br       5.27912114       1.55366959       5.58503426       0.00176010      -0.00248901      -0.00304936
Br       3.22452189       4.45931183       9.14370377      -0.00176841       0.00250138       0.00306354
Br       3.22452118       4.45931361       5.58503405      -0.00175876       0.00248694      -0.00304700
Br       5.27911995       1.55367112       9.14370375       0.00176979      -0.00250176       0.00306511
