9
Lattice="6.735214607391179 2.813339048305066e-09 3.8885780394265788 2.245071536047688 6.3500212568734264 3.888578043586671 -9.8166671902647e-09 -1.846431184847693e-09 7.777156095856132" Properties=species:S:1:pos:R:3:forces:R:3 energy=-24.523216247558594 free_energy=-24.523216247558594 stress="8.803298987913877e-05 6.327678825357452e-09 -1.4119322377936783e-09 6.327678825357452e-09 8.801564399618655e-05 -7.812139379836935e-09 -1.4119322377936783e-09 -7.812139379836935e-09 8.801594231044874e-05" pbc="T T T"
Ag       2.24507144       1.58750540       3.88857774      -0.00000043       0.00000033      -0.00000150
Ag       6.73521442       4.76251609      11.66573452      -0.00000047      -0.00000008       0.00000069
Ti       0.00000008      -0.00000028      -0.00000022      -0.00000034       0.00000085       0.00000198
I        2.21968155       1.56955170       7.77715615      -0.00104082      -0.00073666       0.00000044
I        6.76060464       4.78046949       7.77715564       0.00104122       0.00073597       0.00000026
I        5.62537408       1.56955168       5.81087893       0.00052033      -0.00073560      -0.00090093
I        3.35491203       4.78046937       9.74343363      -0.00051934       0.00073423       0.00089981
I        3.35491238       4.78046982       5.81087880      -0.00051988       0.00073534      -0.00090078
I        5.62537392       1.56955175       9.74343359       0.00051975      -0.00073438       0.00090028
