9
Lattice="6.731425179149719 6.2431639673431e-08 3.886390166631149 2.243808574881265 6.346448356890834 3.8863899536406437 1.7363370340537426e-07 -1.3808171901416995e-07 7.772780032519939" Properties=species:S:1:pos:R:3:forces:R:3 energy=-24.52320671081543 free_energy=-24.52320671081543 stress="7.652413842151873e-06 1.051094855597512e-08 1.3362106976444466e-08 1.051094855597512e-08 7.630593245266937e-06 -1.8005103186169436e-08 1.3362106976444466e-08 -1.8005103186169436e-08 7.62184845370939e-06" pbc="T T T"
Ag       2.24380885       1.58661164       3.88639050      -0.00000009      -0.00000100       0.00000110
Ag       6.73142542       4.75983644      11.65916987      -0.00000049       0.00000022      -0.00000036
Ti       0.00000122      -0.00000033       0.00000005      -0.00000850       0.00000128      -0.00000059
I        2.21994057       1.56973471       7.77278005      -0.00440830      -0.00311656       0.00000086
I        6.75529217       4.77671268       7.77278037       0.00441521       0.00312334      -0.00000017
I        5.62145515       1.56973510       5.80891487       0.00220507      -0.00311851      -0.00381833
I        3.35377862       4.77671411       9.73664562      -0.00220354       0.00311477       0.00381438
I        3.35377880       4.77671309       5.80891461      -0.00220563       0.00311752      -0.00381877
I        5.62145502       1.56973577       9.73664461       0.00220631      -0.00312107       0.00382179
