9
Lattice="5.779293549136463 -1.0425927526192032e-07 3.336676568644695 1.926431141588004 5.44876984838895 3.336676470196495 -1.044617527039645e-07 -1.9443951180581562e-07 6.673353318222411" Properties=species:S:1:pos:R:3:forces:R:3 energy=-32.2995719909668 free_energy=-32.2995719909668 stress="-2.5336517865071073e-05 -1.962511930742039e-08 -6.210187919464261e-09 -1.962511930742039e-08 -2.526317985029891e-05 1.0288167651140157e-08 -6.210187919464261e-09 1.0288167651140157e-08 -2.5290140911238268e-05" pbc="T T T"
Ag       1.92643124       1.36219228       3.33667655       0.00000025       0.00000074       0.00000025
Ag       5.77929358       4.08657700      10.01002933       0.00000032      -0.00000089       0.00000005
Ti      -0.00000031       0.00000019      -0.00000009       0.00000581      -0.00000471       0.00000256
Cl       1.90768024       1.34893345       6.67335213       0.00034368       0.00024082       0.00000000
Cl       5.79804482       4.09983551       6.67335330      -0.00034434      -0.00024295       0.00000086
Cl       4.82545282       1.34893444       4.98877602      -0.00017130       0.00024047       0.00029588
Cl       2.88027110       4.09983510       8.35793034       0.00016977      -0.00023977      -0.00029171
Cl       2.88027136       4.09983641       4.98877761       0.00016913      -0.00023566       0.00029291
Cl       4.82545341       1.34893374       8.35793010      -0.00017343       0.00024204      -0.00030078
