9
Lattice="6.176698370284383 8.620659018044017e-08 3.5661183660207505 2.058899562705611 5.823447001733079 3.5661183232950195 4.714145724406563e-10 -5.1994947902914487e-08 7.1322367312249755" Properties=species:S:1:pos:R:3:forces:R:3 energy=-28.173320770263672 free_energy=-28.173320770263672 stress="0.00020184312597848475 5.42506839451562e-09 -6.014239772866858e-09 5.42506839451562e-09 0.00020184088498353958 -2.0625909868954295e-08 -6.014239772866858e-09 -2.0625909868954295e-08 0.00020182356820441782" pbc="T T T"
Ag       2.05889937       1.45586177       3.56611821       0.00000034       0.00000034       0.00000016
Ag       6.17669855       4.36758538      10.69835491       0.00000017      -0.00000002      -0.00000110
Ti      -0.00000019      -0.00000035      -0.00000207       0.00000155       0.00000352       0.00001604
Br       2.04112272       1.44329108       7.13223668       0.00486178       0.00343932       0.00000217
Br       6.19447621       4.38015602       7.13223674      -0.00486856      -0.00344256       0.00000110
Br       5.15613670       1.44329147       5.33378212      -0.00242796       0.00343650       0.00421080
Br       3.07946028       4.38015663       8.93069279       0.00243737      -0.00344688      -0.00422233
Br       3.07946063       4.38015558       5.33378178       0.00243094      -0.00343584       0.00421268
Br       5.15613739       1.44329053       8.93069254      -0.00243571       0.00344567      -0.00421977
