9
Lattice="5.202170783526466 1.6041963007241318e-07 3.0034750417940104 1.7340570113509934 4.904654171460712 3.0034751591165767 -1.0280026090221964e-07 7.099947596352924e-08 6.006950261643256" Properties=species:S:1:pos:R:3:forces:R:3 energy=-48.61066436767578 free_energy=-48.61066436767578 stress="-0.000430468178819865 4.409265397242734e-09 -2.0931814503910573e-08 4.409265397242734e-09 -0.00043047231156378984 1.850255770818876e-08 -2.0931814503910573e-08 1.850255770818876e-08 -0.00043048395309597254" pbc="T T T"
Ag       1.73405637       1.22616370       3.00347498       0.00000011       0.00000012       0.00000016
Ag       5.20217096       3.67849063       9.01042566       0.00000019      -0.00000031      -0.00000000
Ta       0.00000008       0.00000009      -0.00000020       0.00000260       0.00000522       0.00000444
F        1.58860639       1.12331455       6.00695056       0.00593841       0.00419933       0.00000033
F        5.34762132       3.78134031       6.00695016      -0.00594258      -0.00420272       0.00000001
F        4.40786800       1.12331451       4.37924849      -0.00296950       0.00419950       0.00514364
F        2.52835985       3.78134017       7.63465228       0.00297183      -0.00420284      -0.00514698
F        2.52836004       3.78133987       4.37924843       0.00297064      -0.00420094       0.00514507
F        4.40786788       1.12331430       7.63465231      -0.00297183       0.00420278      -0.00514710
