9
Lattice="6.007033482760024 -2.3237724662319784e-11 3.468162452184064 2.0023444457052917 5.6634855610367 3.468162536233706 -3.9206842651163637e-08 7.521608899997642e-08 6.936324972276245" Properties=species:S:1:pos:R:3:forces:R:3 energy=-22.849956512451172 free_energy=-22.849956512451172 stress="-1.2749397683364805e-05 -1.4536129633313521e-08 -2.7107693867378657e-08 -1.4536129633313521e-08 -1.2723987310891971e-05 3.423841477001588e-08 -2.7107693867378657e-08 3.423841477001588e-08 -1.2733305084111635e-05" pbc="T T T"
Ag       2.00234467       1.41587178       3.46816257      -0.00000024       0.00000060       0.00000023
Ag       6.00703329       4.24761464      10.40448738      -0.00000001       0.00000109       0.00000012
Te      -0.00000087      -0.00000028      -0.00000051       0.00001085       0.00000102       0.00000638
Cl       2.02906793       1.43476774       6.93632495      -0.00081342      -0.00057572      -0.00000020
Cl       5.98031032       4.22871785       6.93632497       0.00080785       0.00057078       0.00000001
Cl       4.99249928       1.43476801       5.22538715       0.00040647      -0.00057639      -0.00070542
Cl       3.01687871       4.22871769       8.64726297      -0.00040741       0.00057567       0.00070477
Cl       3.01687855       4.22871767       5.22538712      -0.00040677       0.00057427      -0.00070427
Cl       4.99249970       1.43476742       8.64726324       0.00040271      -0.00057132       0.00069841
