9
Lattice="4.937783247411338 -5.316197870330952e-08 2.850830440410221 1.6459276843694297 4.655386848755389 2.850830465777916 3.650503915724307e-08 5.688191545971839e-08 5.701660817591855" Properties=species:S:1:pos:R:3:forces:R:3 energy=-45.2323112487793 free_energy=-45.2323112487793 stress="0.0002535701496526599 -4.05255562441198e-08 -1.974640539970096e-08 -4.05255562441198e-08 0.0002535916573833674 2.8163828602600915e-08 -1.974640539970096e-08 2.8163828602600915e-08 0.00025353371165692806" pbc="T T T"
Ag       1.64592796       1.16384678       2.85083034      -0.00000011       0.00000018      -0.00000005
Ag       4.93778325       3.49154037       8.55249166       0.00000002      -0.00000061       0.00000034
Ti      -0.00000008      -0.00000003      -0.00000005      -0.00000045       0.00000024      -0.00000181
F        1.54586844       1.09309402       5.70166080       0.00168076       0.00118963      -0.00000047
F        5.03784245       3.56229275       5.70166073      -0.00168052      -0.00118817       0.00000027
F        4.16484883       1.09309419       4.18959194      -0.00083862       0.00118612       0.00145444
F        2.41886204       3.56229256       7.21372995       0.00083859      -0.00118661      -0.00145510
F        2.41886206       3.56229262       4.18959151       0.00083929      -0.00118813       0.00145757
F        4.16484881       1.09309412       7.21372994      -0.00083894       0.00118732      -0.00145510
