9
Lattice="6.805609578323831 -4.1160558255167783e-07 3.9292208287010566 2.268536241031783 6.416390320079992 3.92922065031837 -5.931944016217126e-10 -2.1889274758993725e-07 7.85844165842953" Properties=species:S:1:pos:R:3:forces:R:3 energy=-27.395444869995117 free_energy=-27.395444869995117 stress="1.2785292710759677e-05 -3.8594219375909233e-08 4.679648668570735e-09 -3.8594219375909233e-08 1.2806974154955242e-05 -1.1436566360600864e-08 4.679648668570735e-09 -1.1436566360600864e-08 1.283883011637954e-05" pbc="T T T"
Ag       2.26853642       1.60409721       3.92922081      -0.00000005       0.00000012       0.00000038
Ag       6.80560951       4.81229254      11.78766230       0.00000050      -0.00000020      -0.00000015
Ta      -0.00000087       0.00000022       0.00000027       0.00000944      -0.00000578      -0.00000335
I        2.25244155       1.59271661       7.85844145       0.00018340       0.00012849       0.00000045
I        6.82170455       4.82367380       7.85844175      -0.00018646      -0.00013279      -0.00000084
I        5.67938832       1.59271645       5.87989275      -0.00009224       0.00013161       0.00016129
I        3.39475779       4.82367251       9.83698964       0.00008740      -0.00012416      -0.00015208
I        3.39475758       4.82367232       5.87989360       0.00008852      -0.00012498       0.00015214
I        5.67938844       1.59271714       9.83699005      -0.00009048       0.00012770      -0.00015791
