9
Lattice="5.901025120995656 1.5105014440000838e-07 3.40695828851212 1.9670083324567698 5.563539923340435 3.406958606551162 -2.9617367945324245e-07 1.8009019443201283e-07 6.813917090012099" Properties=species:S:1:pos:R:3:forces:R:3 energy=-35.86022186279297 free_energy=-35.86022186279297 stress="2.9081669708830304e-05 4.798578601139525e-08 -7.649468614090438e-08 4.798578601139525e-08 2.904441862483509e-05 8.659193895255157e-08 -7.649468614090438e-08 8.659193895255157e-08 2.9030079531366937e-05" pbc="T T T"
Ag       1.96700832       1.39088590       3.40695815      -0.00000051       0.00000057      -0.00000103
Ag       5.90102493       4.17265542      10.22087548      -0.00000055      -0.00000012       0.00000027
Ta       0.00000018       0.00000072      -0.00000062      -0.00000894      -0.00002849       0.00001701
Cl       1.93550341       1.36860829       6.81391681      -0.00386381      -0.00273490       0.00000216
Cl       5.93252771       4.19493112       6.81391685       0.00389209       0.00274986       0.00000106
Cl       4.93327271       1.36860904       5.08315465       0.00193943      -0.00274485      -0.00335822
Cl       2.93476074       4.19493131       8.54467875      -0.00194120       0.00274161       0.00336343
Cl       2.93476049       4.19493174       5.08315512      -0.00194243       0.00274459      -0.00336337
Cl       4.93327403       1.36860735       8.54468088       0.00192612      -0.00272799       0.00333878
