9
Lattice="5.1952582308232795 6.64381890235166e-08 2.9994834053088453 1.7317527821742376 4.898135918196898 2.999483447002857 2.9116501929877695e-08 7.165295511896553e-08 5.998966760186448" Properties=species:S:1:pos:R:3:forces:R:3 energy=-33.37329864501953 free_energy=-33.37329864501953 stress="6.513983680633828e-05 7.770992738187488e-08 -7.212618413632299e-08 7.770992738187488e-08 6.508519436465576e-05 8.319388911104397e-08 -7.212618413632299e-08 8.319388911104397e-08 6.49269059067592e-05" pbc="T T T"
Ag       1.73175300       1.22453414       2.99948345      -0.00000003      -0.00000006      -0.00000008
Ag       5.19525854       3.67360206       8.99845028      -0.00000026       0.00000017      -0.00000003
Te      -0.00000027       0.00000028      -0.00000006       0.00000745      -0.00000721      -0.00000319
F        1.68504006       1.19150348       5.99896677      -0.00083062      -0.00058655       0.00000073
F        5.24197082       3.70663242       5.99896699       0.00082877       0.00058733       0.00000032
F        4.35273819       1.19150314       4.45877059       0.00041251      -0.00058389      -0.00071484
F        2.57427302       3.70663282       7.53916257      -0.00041537       0.00058722       0.00071868
F        2.57427232       3.70663312       4.45877048      -0.00041056       0.00058135      -0.00071031
F        4.35273851       1.19150275       7.53916336       0.00040802      -0.00057818       0.00070870
