9
Lattice="6.57790311327328 5.771774373975908e-08 3.797754121195417 2.192634409462544 6.201706494660123 3.7977541489867277 -4.51896941281668e-08 2.083355493926976e-09 7.595508320661602" Properties=species:S:1:pos:R:3:forces:R:3 energy=-24.05115509033203 free_energy=-24.05115509033203 stress="5.867631989531219e-05 4.865234326523193e-10 -1.581789632609798e-08 4.865234326523193e-10 5.868190783075988e-05 3.962845163130169e-09 -1.581789632609798e-08 3.962845163130169e-09 5.868886364623904e-05" pbc="T T T"
Ag       2.19263432       1.55042651       3.79775420      -0.00000017      -0.00000087      -0.00000046
Ag       6.57790297       4.65127975      11.39326263      -0.00000037       0.00000018       0.00000094
V        0.00000002       0.00000021      -0.00000010       0.00000041      -0.00000145       0.00000108
I        2.17727257       1.53956433       7.59550837      -0.00079423      -0.00056209       0.00000034
I        6.59326451       4.66214221       7.59550836       0.00079624       0.00056240      -0.00000089
I        5.48926699       1.53956435       5.68332734       0.00039684      -0.00056137      -0.00068700
I        3.28127097       4.66214223       9.50768879      -0.00039835       0.00056246       0.00068966
I        3.28127076       4.66214241       5.68332771      -0.00039666       0.00056200      -0.00068946
I        5.48926677       1.53956416       9.50768904       0.00039640      -0.00056122       0.00068605
