9
Lattice="4.921351556536166 -1.0792817034635694e-07 2.841343757131348 1.6404504116552172 4.639894570368827 2.8413437665441634 -4.6438637647886975e-08 -2.130876513442576e-08 5.68268759469675" Properties=species:S:1:pos:R:3:forces:R:3 energy=-41.249847412109375 free_energy=-41.249847412109375 stress="0.00024908396881073713 -3.118323022022196e-08 -4.74390571270078e-09 -3.118323022022196e-08 0.00024909203057177365 3.825356476028219e-09 -4.74390571270078e-09 3.825356476028219e-09 0.0002492111816536635" pbc="T T T"
Ag       1.64045051       1.15997369       2.84134389      -0.00000008       0.00000002       0.00000013
Ag       4.92135115       3.47992082       8.52403096       0.00000017       0.00000008       0.00000045
V       -0.00000009      -0.00000005       0.00000024      -0.00000296       0.00000231      -0.00000443
F        1.53507060       1.08545828       5.68268757      -0.00522640      -0.00369439       0.00000049
F        5.02673134       3.55443572       5.68268752       0.00522766       0.00369681       0.00000006
F        4.15381592       1.08545930       4.17075487       0.00261636      -0.00370017      -0.00453204
F        2.40798593       3.55443543       7.19462041      -0.00261573       0.00369785       0.00453065
F        2.40798630       3.55443537       4.17075449      -0.00261467       0.00369690      -0.00452802
F        4.15381624       1.08545913       7.19462059       0.00261565      -0.00369941       0.00453268
