9
Lattice="6.100720427526599 7.35927973939648e-08 3.5222526437779718 2.0335735595070514 5.751814560541161 3.5222526190427983 2.885321354104291e-08 -9.892027123205227e-09 7.044505237580726" Properties=species:S:1:pos:R:3:forces:R:3 energy=-27.496780395507812 free_energy=-27.496780395507812 stress="0.0001516435295343399 1.506538005457969e-08 -1.8368253584810645e-09 1.506538005457969e-08 0.0001516239281045273 -1.539373428727231e-08 -1.8368253584810645e-09 -1.539373428727231e-08 0.00015161109331529588" pbc="T T T"
Ag       2.03357298       1.43795348       3.52225271      -0.00000005      -0.00000024      -0.00000002
Ag       6.10072083       4.31386075      10.56675786       0.00000043       0.00000004       0.00000034
V        0.00000037       0.00000016      -0.00000051      -0.00000322       0.00000070       0.00000882
Br       2.00670033       1.41895134       7.04450511      -0.00128993      -0.00091137       0.00000063
Br       6.12759391       4.33286338       7.04450529       0.00128934       0.00091220       0.00000088
Br       5.09737010       1.41895152       5.26010606       0.00064687      -0.00091386      -0.00111677
Br       3.03692326       4.33286344       8.82890479      -0.00064097       0.00090757       0.00110891
Br       3.03692384       4.33286296       5.26010578      -0.00064540       0.00091353      -0.00111581
Br       5.09737038       1.41895146       8.82890480       0.00064319      -0.00090839       0.00111307
