9
Lattice="5.738150307477663 -4.383725716250539e-08 3.3129221562475806 1.9127168197083748 5.409979066049669 3.312921997107889 -5.609558275692204e-09 -1.9887201989213724e-07 6.6258443222112255" Properties=species:S:1:pos:R:3:forces:R:3 energy=-31.529653549194336 free_energy=-31.529653549194336 stress="-8.397030796913896e-06 2.5915268153653415e-08 5.4837961727116635e-08 2.5915268153653415e-08 -8.451745088677853e-06 -8.913430882273587e-09 5.4837961727116635e-08 -8.913430882273587e-09 -8.438152690359857e-06" pbc="T T T"
Ag       1.91271661       1.35249458       3.31292243      -0.00000008      -0.00000002       0.00000026
Ag       5.73815051       4.05748407       9.93876625      -0.00000009       0.00000059       0.00000034
V        0.00000053      -0.00000028      -0.00000085      -0.00000972       0.00000632       0.00001203
Cl       1.87465396       1.32557965       6.62584452       0.00151277       0.00107419      -0.00000312
Cl       5.77621253       4.08439896       6.62584446      -0.00150827      -0.00106674       0.00000279
Cl       4.80082332       1.32558020       4.93641995      -0.00075436       0.00106579       0.00130606
Cl       2.85004268       4.08439906       8.31526965       0.00076088      -0.00107944      -0.00132126
Cl       2.85004519       4.08439930       4.93641899       0.00075492      -0.00107259       0.00131175
Cl       4.80082329       1.32557983       8.31526843      -0.00075610       0.00107187      -0.00130898
