9
Lattice="4.921209316452835 9.635429673712643e-08 2.841261411983628 1.6404031539230841 4.639760653686701 2.8412614854310485 -9.817843766485324e-09 8.301196843874702e-08 5.682522840972283" Properties=species:S:1:pos:R:3:forces:R:3 energy=-41.249847412109375 free_energy=-41.249847412109375 stress="-0.0001636164670344442 -1.2070902499772274e-08 -2.3457859654740787e-08 -1.2070902499772274e-08 -0.00016360155132133514 1.101199753605897e-08 -2.3457859654740787e-08 1.101199753605897e-08 -0.00016365347255486995" pbc="T T T"
Ag       1.64040310       1.15994035       2.84126145       0.00000018      -0.00000007      -0.00000007
Ag       4.92120946       3.47982055       8.52378451       0.00000027       0.00000016      -0.00000016
V        0.00000040       0.00000012       0.00000012      -0.00001365      -0.00000250      -0.00000670
F        1.53448383       1.08504361       5.68252286       0.00535446       0.00378716      -0.00000041
F        5.02712837       3.55471676       5.68252286      -0.00534360      -0.00377875      -0.00000041
F        4.15396753       1.08504397       4.17016337      -0.00267421       0.00378255       0.00463279
F        2.40764509       3.55471654       7.19488257       0.00267269      -0.00378133      -0.00463215
F        2.40764488       3.55471705       4.17016281       0.00267604      -0.00378631       0.00463722
F        4.15396726       1.08504439       7.19488252      -0.00267215       0.00377908      -0.00462981
