9
Lattice="6.098795794754072 -1.7919034868722806e-07 3.5211415972685454 2.032931799783574 5.749999880606161 3.5211415329381435 -5.1441356379375156e-08 -1.1516282027497104e-07 7.042283283636086" Properties=species:S:1:pos:R:3:forces:R:3 energy=-27.496788024902344 free_energy=-27.496788024902344 stress="-7.509711576858535e-05 -4.507522888275162e-08 3.4600926568373325e-09 -4.507522888275162e-08 -7.50672843423672e-05 4.4848053049051373e-10 3.4600926568373325e-09 4.4848053049051373e-10 -7.50156759750098e-05" pbc="T T T"
Ag       2.03293199       1.43750001       3.52114155      -0.00000007       0.00000015       0.00000028
Ag       6.09879572       4.31249989      10.56342489       0.00000020       0.00000014       0.00000034
V       -0.00000027       0.00000020       0.00000062       0.00000242      -0.00000248      -0.00000842
Br       2.00623147       1.41861977       7.04228302       0.00235841       0.00166678      -0.00000088
Br       6.12549581       4.33137979       7.04228302      -0.00235873      -0.00166775      -0.00000084
Br       5.09568029       1.41861985       5.25858962      -0.00117886       0.00166768       0.00204076
Br       3.03604786       4.33137905       8.82597646       0.00117370      -0.00166050      -0.00203364
Br       3.03604766       4.33137945       5.25858974       0.00117797      -0.00166579       0.00203808
Br       5.09567956       1.41862038       8.82597662      -0.00117505       0.00166181      -0.00203583
