9
Lattice="6.576240797801606 -2.0401068460310758e-07 3.7967943304294933 2.19208022596377 6.2001389385593955 3.7967940665117097 1.8291802046304837e-07 -1.9388944359407295e-07 7.5935883440357275" Properties=species:S:1:pos:R:3:forces:R:3 energy=-24.051156997680664 free_energy=-24.051156997680664 stress="-3.366515375091694e-05 -6.239740280022943e-09 -2.2698702639711854e-10 -6.239740280022943e-09 -3.3646076190052554e-05 4.4555283906788645e-09 -2.2698702639711854e-10 4.4555283906788645e-09 -3.364348958712071e-05" pbc="T T T"
Ag       2.19208024       1.55003483       3.79679388       0.00000001       0.00000058      -0.00000047
Ag       6.57624064       4.65010365      11.39038278      -0.00000070      -0.00000036       0.00000008
V        0.00000024       0.00000010       0.00000021      -0.00000059      -0.00000048      -0.00000303
I        2.17707938       1.53942713       7.59358864      -0.00022338      -0.00015783      -0.00000089
I        6.59124184       4.66071117       7.59358841       0.00022346       0.00015867      -0.00000030
I        5.48770155       1.53942704       5.68220034       0.00011158      -0.00015789      -0.00019360
I        3.28062023       4.66071093       9.50497627      -0.00011266       0.00016005       0.00019556
I        3.28061990       4.66071138       5.68220009      -0.00011135       0.00015706      -0.00019348
I        5.48770098       1.53942782       9.50497619       0.00011367      -0.00015980       0.00019611
