9
Lattice="5.739725744938718 -4.550637026389387e-08 3.3138322892390346 1.9132418573984058 5.411465298737654 3.313832314660979 -3.5657128843166084e-08 5.921991104440151e-09 6.627664640238031" Properties=species:S:1:pos:R:3:forces:R:3 energy=-31.529630661010742 free_energy=-31.529630661010742 stress="0.0002869899617508054 -1.5297599631480807e-08 -1.2001594384969394e-08 -1.5297599631480807e-08 0.00028700404800474644 4.104666384563416e-09 -1.2001594384969394e-08 4.104666384563416e-09 0.00028703431598842144" pbc="T T T"
Ag       1.91324190       1.35286641       3.31383243       0.00000012      -0.00000032       0.00000044
Ag       5.73972572       4.05859909       9.94149703      -0.00000007       0.00000052      -0.00000002
V       -0.00000034      -0.00000020       0.00000035       0.00000480       0.00000123      -0.00000501
Cl       1.87515403       1.32593419       6.62766467      -0.00436839      -0.00308830       0.00000049
Cl       5.77781354       4.08553120       6.62766456       0.00436470       0.00308535      -0.00000018
Cl       4.80214854       1.32593425       4.93776373       0.00218400      -0.00308773      -0.00378251
Cl       2.85081936       4.08553075       8.31756533      -0.00218570       0.00309047       0.00378630
Cl       2.85081911       4.08553091       4.93776393      -0.00218418       0.00308847      -0.00378391
Cl       4.80214835       1.32593442       8.31756522       0.00218466      -0.00308996       0.00378445
