9
Lattice="6.226025325065634 -3.423452807927247e-07 3.5945972957757855 2.0753415232492873 5.869952712035374 3.5945971728111683 8.086777657658191e-09 -1.4488198733921935e-07 7.189194577544681" Properties=species:S:1:pos:R:3:forces:R:3 energy=-29.929889678955078 free_energy=-29.929889678955078 stress="1.6271678759949282e-05 -6.795752227617413e-08 4.5539533033434054e-08 -6.795752227617413e-08 1.6273241271846928e-05 -6.152480835908136e-08 4.5539533033434054e-08 -6.152480835908136e-08 1.6314746972057037e-05" pbc="T T T"
Ag       2.07534169       1.46748809       3.59459737       0.00000079      -0.00000003       0.00000033
Ag       6.22602521       4.40246406      10.78379181      -0.00000083      -0.00000019      -0.00000005
W       -0.00000150      -0.00000182      -0.00000101       0.00001766       0.00002755       0.00001353
Br       2.05355502       1.45208169       7.18919440       0.00059678       0.00042405       0.00000117
Br       6.24781344       4.41787161       7.18919441      -0.00062517      -0.00044316       0.00000070
Br       5.19924731       1.45208244       5.37302745      -0.00029705       0.00042471       0.00052134
Br       3.10211899       4.41787084       9.00536260       0.00030865      -0.00043723      -0.00053707
Br       3.10211973       4.41786969       5.37302748       0.00029888      -0.00042312       0.00052154
Br       5.19924757       1.45208234       9.00536166      -0.00029980       0.00042746      -0.00052152
