9
Lattice="6.690964226236485 -7.279956063371002e-08 3.863030068679616 2.230321260529975 6.3083020945423325 3.8630302065152953 -1.067538606196409e-07 9.332707658666439e-08 7.72606032226237" Properties=species:S:1:pos:R:3:forces:R:3 energy=-26.228591918945312 free_energy=-26.228591918945312 stress="0.00010929560085060075 -5.5069403259722094e-08 3.902437040181894e-09 -5.5069403259722094e-08 0.00010933773592114449 -5.145843751108714e-09 3.902437040181894e-09 -5.145843751108714e-09 0.00010937132174149156" pbc="T T T"
Ag       2.23032104       1.57707527       3.86303044      -0.00000136      -0.00000003       0.00000069
Ag       6.69096413       4.73122669      11.58909019      -0.00000031      -0.00000046      -0.00000027
W       -0.00000454      -0.00000131       0.00000050       0.00006074       0.00001754      -0.00000499
I        2.22441142       1.57289717       7.72606014      -0.00288546      -0.00204282      -0.00000026
I        6.69687805       4.73540796       7.72606030       0.00283051       0.00200090       0.00000001
I        5.57875913       1.57289585       5.78942552       0.00143080      -0.00201923      -0.00247245
I        3.34252667       4.73540549       9.66269378      -0.00143407       0.00203335       0.00248875
I        3.34252656       4.73540544       5.78942661      -0.00143311       0.00203237      -0.00248685
I        5.57875918       1.57289597       9.66269480       0.00143220      -0.00202172       0.00247543
