9
Lattice="5.886641858189634 9.5315015548293e-08 3.3986541607788103 1.9622140382718427 5.549979217794689 3.3986541682645743 -3.1201197947472714e-08 -1.2894523523617273e-08 6.797308375599804" Properties=species:S:1:pos:R:3:forces:R:3 energy=-33.86994171142578 free_energy=-33.86994171142578 stress="-1.1904524399142247e-05 4.1542691064933024e-08 2.0134924838544066e-08 4.1542691064933024e-08 -1.1946558515774086e-05 -2.588847536344474e-08 2.0134924838544066e-08 -2.588847536344474e-08 -1.1982947398792021e-05" pbc="T T T"
Ag       1.96221410       1.38749469       3.39865436      -0.00000101       0.00000007      -0.00000033
Ag       5.88664262       4.16248456      10.19596244       0.00000009       0.00000027      -0.00000049
W        0.00000276       0.00000135       0.00000140      -0.00006466      -0.00002900      -0.00003193
Cl       1.93232586       1.36636090       6.79730899       0.00145559       0.00103099      -0.00000177
Cl       5.91652569       4.18361510       6.79730896      -0.00138704      -0.00097983      -0.00000093
Cl       4.92047831       1.36636191       5.07209875      -0.00072061       0.00101198       0.00123897
Cl       2.92837838       4.18361739       8.52251709       0.00070643      -0.00100536      -0.00123163
Cl       2.92837775       4.18361823       5.07209842       0.00071752      -0.00102071       0.00124637
Cl       4.92047793       1.36636303       8.52251644      -0.00070627       0.00099164      -0.00121824
