9
Lattice="5.128536750487776 2.503710169438931e-08 2.960962211065784 1.7095122915397267 4.8352309926165855 2.9609621802838757 9.857315498416857e-08 3.200172753710015e-08 5.921924251397876" Properties=species:S:1:pos:R:3:forces:R:3 energy=-41.13679122924805 free_energy=-41.13679122924805 stress="0.0002880663669202477 2.1088457202722566e-08 -2.671595211722888e-08 2.1088457202722566e-08 0.00028804707108065486 2.8496227599816848e-08 -2.671595211722888e-08 2.8496227599816848e-08 0.000288047973299399" pbc="T T T"
Ag       1.70951218       1.20880783       2.96096211      -0.00000004       0.00000007       0.00000043
Ag       5.12853682       3.62642323       8.88288668       0.00000014       0.00000000       0.00000007
W        0.00000015      -0.00000009       0.00000031      -0.00000005       0.00000094      -0.00001496
F        1.63094212       1.15325050       5.92192406      -0.00330076      -0.00233436       0.00000024
F        5.20710678       3.68198084       5.92192418       0.00330099       0.00233379       0.00000031
F        4.31306583       1.15325020       4.37339971       0.00164854      -0.00233167      -0.00285541
F        2.52498340       3.68198076       7.47044901      -0.00165262       0.00233685       0.00286242
F        2.52498342       3.68198093       4.37339920      -0.00164707       0.00232886      -0.00285277
F        4.31306594       1.15325004       7.47044936       0.00165084      -0.00233441       0.00285958
