9
Lattice="6.89172563516404 -3.753781492123814e-07 3.9789399536133585 2.297241554353837 6.497581335953669 3.9789399018671916 9.25700460956025e-08 2.080929667396969e-09 7.957879746890875" Properties=species:S:1:pos:R:3:forces:R:3 energy=-26.259395599365234 free_energy=-26.259395599365234 stress="-1.010879350360483e-05 -8.263695150390049e-08 4.1257610661205035e-09 -8.263695150390049e-08 -1.0052824109152425e-05 -6.477506864221994e-10 4.1257610661205035e-09 -6.477506864221994e-10 -9.993469575420022e-06" pbc="T T T"
Ag       2.29724166       1.62439531       3.97893975      -0.00000040       0.00000025      -0.00000045
Ag       6.89172569       4.87318567      11.93681941       0.00000025      -0.00000064      -0.00000094
Zr      -0.00000021       0.00000016       0.00000090       0.00000193      -0.00000159      -0.00000850
I        2.32480846       1.64388770       7.95788002      -0.00041367      -0.00029258      -0.00000032
I        6.86415881       4.85369313       7.95787994       0.00041354       0.00029268       0.00000013
I        5.72932103       1.64388880       5.99228446       0.00020992      -0.00029715      -0.00036443
I        3.45964709       4.85369178       9.92347469      -0.00021382       0.00030313       0.00037067
I        3.45964615       4.85369230       5.99228463      -0.00021132       0.00029773      -0.00036561
I        5.72932044       1.64388901       9.92347464       0.00021354      -0.00030183       0.00036943
