9
Lattice="4.859202383321654 1.6095421228189933e-08 2.8054617991416504 1.6197341696364154 4.581299979516404 2.8054617529173806 1.0235418503139413e-07 1.576235571268576e-08 5.610923421000684" Properties=species:S:1:pos:R:3:forces:R:3 energy=-28.753631591796875 free_energy=-28.753631591796875 stress="0.00032404897501692176 -3.619981825409013e-08 -2.0799452826736342e-08 -3.619981825409013e-08 0.000324091175571084 -5.774346334419533e-09 -2.0799452826736342e-08 -5.774346334419533e-09 0.0003240147780161351" pbc="T T T"
Ag       1.61973434       1.14532530       2.80546193       0.00000037       0.00000056       0.00000073
Ag       4.85920275       3.43597521       8.41638537       0.00000088       0.00000097       0.00000071
Zn       0.00000015      -0.00000037      -0.00000082      -0.00000163       0.00000799       0.00001190
F        1.61213156       1.13994905       5.61092348       0.00016242       0.00011593       0.00000105
F        4.86680533       3.44135070       5.61092336      -0.00016671      -0.00011808       0.00000022
F        4.05313644       1.13994926       4.20160913      -0.00007823       0.00011051       0.00013685
F        2.42579964       3.44135150       7.02023855       0.00008592      -0.00012183      -0.00014967
F        2.42579994       3.44135050       4.20160829       0.00008097      -0.00011492       0.00014120
F        4.05313663       1.13994889       7.02023866      -0.00008422       0.00011897      -0.00014323
