9
Lattice="5.9218000827572705 1.0715958651378478e-07 3.4189527720217083 1.9739334142587508 5.5831266494054175 3.418952854625514 -4.9805924013414333e-08 6.595052500044264e-08 6.837905630309899" Properties=species:S:1:pos:R:3:forces:R:3 energy=-34.072509765625 free_energy=-34.072509765625 stress="2.213545712947962e-06 3.0965043862352104e-08 -1.952006201122458e-08 3.0965043862352104e-08 2.1516707420232706e-06 1.3025474032701823e-08 -1.952006201122458e-08 1.3025474032701823e-08 2.163287717849016e-06" pbc="T T T"
Ag       1.97393353       1.39578177       3.41895273       0.00000023      -0.00000032      -0.00000007
Ag       5.92180014       4.18734540      10.25685877       0.00000008       0.00000040       0.00000044
Zr      -0.00000057       0.00000004      -0.00000015       0.00000581       0.00000056       0.00000063
Cl       2.00645760       1.41877975       6.83790561      -0.00812782      -0.00574819      -0.00000008
Cl       5.88927652       4.16434699       6.83790573       0.00812265       0.00574274      -0.00000035
Cl       4.91857158       1.41877921       5.15659581       0.00406118      -0.00574376      -0.00703619
Cl       2.97716190       4.16434704       8.51921531      -0.00406259       0.00574631       0.00703636
Cl       2.97716176       4.16434754       5.15659570      -0.00405949       0.00574370      -0.00703351
Cl       4.91857135       1.41877962       8.51921547       0.00405992      -0.00574130       0.00703286
