9
Lattice="6.572951067975864 4.657560476698966e-08 3.794894956919714 2.190983761559179 6.197037487928328 3.794894907864649 7.642837956266556e-08 -6.036976974462866e-09 7.589789781461699" Properties=species:S:1:pos:R:3:forces:R:3 energy=-15.307101249694824 free_energy=-15.307101249694824 stress="0.00010295625543221831 4.5585677455051155e-09 3.140237403442825e-09 4.5585677455051155e-09 0.00010294598178006709 8.286911712396261e-10 3.140237403442825e-09 8.286911712396261e-10 0.00010293414379702881" pbc="T T T"
Ag       2.19098374       1.54925933       3.79489487       0.00000010       0.00000016      -0.00000027
Ag       6.57295135       4.64777834      11.38468426       0.00000003       0.00000043      -0.00000054
Zn       0.00000042       0.00000019      -0.00000037      -0.00000344      -0.00000259       0.00000189
I        2.24996631       1.59096663       7.58978982      -0.00610246      -0.00431541      -0.00000025
I        6.51396821       4.60607065       7.58978994       0.00610735       0.00431828      -0.00000001
I        5.44796781       1.59096632       5.74342324       0.00305194      -0.00431788      -0.00528714
I        3.31596698       4.60607115       9.43615684      -0.00305205       0.00431623       0.00528599
I        3.31596723       4.60607096       5.74342300      -0.00305287       0.00431755      -0.00528677
I        5.44796764       1.59096650       9.43615700       0.00305130      -0.00431679       0.00528690
