9
Lattice="6.09194337240542 3.048273668365487e-08 3.517185184812062 2.030647775858927 5.743539297850353 3.5171852604719644 -5.8508764965014845e-08 5.129217428680782e-08 7.034370470964297" Properties=species:S:1:pos:R:3:forces:R:3 energy=-17.98457908630371 free_energy=-17.98457908630371 stress="0.00010315286635886878 3.5891343230787243e-09 -2.444136004697839e-09 3.5891343230787243e-09 0.00010315042163711041 -1.3787292418854236e-09 -2.444136004697839e-09 -1.3787292418854236e-09 0.00010315114195691422" pbc="T T T"
Ag       2.03064765       1.43588477       3.51718531      -0.00000028      -0.00000014      -0.00000002
Ag       6.09194332       4.30765460      10.55155562       0.00000034      -0.00000025      -0.00000008
Zn       0.00000018      -0.00000013      -0.00000029      -0.00000080       0.00000109       0.00000164
Br       2.06313000       1.45885314       7.03437069      -0.00012532      -0.00008905       0.00000006
Br       6.05946106       4.28468617       7.03437057       0.00012532       0.00008970      -0.00000017
Br       5.06037851       1.45885331       5.30390835       0.00006288      -0.00008948      -0.00011048
Br       3.06221249       4.28468636       8.76483280      -0.00006229       0.00008871       0.00010809
Br       3.06221253       4.28468607       5.30390781      -0.00006303       0.00008793      -0.00010884
Br       5.06037853       1.45885323       8.76483284       0.00006300      -0.00008857       0.00010991
