9
Lattice="6.348603005550995 -2.1785101892218856e-07 3.6653677888634224 2.116200822176699 5.98551999563591 3.665367744318019 -7.645207483858686e-08 -1.0861653015373562e-07 7.330735710145526" Properties=species:S:1:pos:R:3:forces:R:3 energy=-29.909465789794922 free_energy=-29.909465789794922 stress="-9.750489880389068e-06 -5.974533756614164e-09 -8.437252674298179e-09 -5.974533756614164e-09 -9.751008292369079e-06 4.188021041073853e-09 -8.437252674298179e-09 4.188021041073853e-09 -9.773730198503472e-06" pbc="T T T"
Ag       2.11620099       1.49637966       3.66536785       0.00000011       0.00000019       0.00000069
Ag       6.34860279       4.48913984      10.99610377      -0.00000019      -0.00000021       0.00000130
Zr       0.00000010       0.00000032       0.00000191       0.00000027      -0.00000298      -0.00001352
Br       2.14271046       1.51512551       7.33073515      -0.00082064      -0.00058015      -0.00000005
Br       6.32209319       4.47039416       7.33073548       0.00082219       0.00058196      -0.00000097
Br       5.27724718       1.51512545       5.52100922       0.00040843      -0.00057884      -0.00070824
Br       3.18755635       4.47039427       9.14046131      -0.00041340       0.00058577       0.00071559
Br       3.18755651       4.47039434       5.52100891      -0.00040832       0.00057841      -0.00070782
Br       5.27724743       1.51512518       9.14046144       0.00041160      -0.00058408       0.00071309
