9
Lattice="5.036803374978352 -2.2453063966321603e-08 2.9079997779088296 1.678934462198384 4.748743720974796 2.9079997345362307 4.345211965573222e-08 -2.2395125820607266e-08 5.815999480556413" Properties=species:S:1:pos:R:3:forces:R:3 energy=-46.89218521118164 free_energy=-46.89218521118164 stress="0.00018273646128363907 5.085577114982698e-08 3.7199867630732797e-09 5.085577114982698e-08 0.00018270016880705953 3.1744686879164874e-08 3.7199867630732797e-09 3.1744686879164874e-08 0.00018267791892867535" pbc="T T T"
Ag       1.67893450       1.18718595       2.90799980      -0.00000012       0.00000003      -0.00000018
Ag       5.03680334       3.56155777       8.72399921      -0.00000005      -0.00000041      -0.00000015
Zr       0.00000014       0.00000002       0.00000013       0.00000130       0.00000291       0.00000176
F        1.65954121       1.17347284       5.81599942       0.00005883       0.00004099      -0.00000017
F        5.05619681       3.57527093       5.81599956      -0.00006177      -0.00004347      -0.00000020
F        4.20703288       1.17347280       4.34520452      -0.00003091       0.00004417       0.00005376
F        2.50870495       3.57527089       7.28679440       0.00003196      -0.00004464      -0.00005424
F        2.50870496       3.57527079       4.34520449       0.00003234      -0.00004485       0.00005463
F        4.20703277       1.17347269       7.28679447      -0.00003171       0.00004523      -0.00005532
