9
Lattice="6.470421779267983 -8.231025475998952e-08 3.7356997359247504 2.1568071794548938 6.1003721322512705 3.735699740598202 4.09468179179152e-08 3.467757890250853e-08 7.471399400927498" Properties=species:S:1:pos:R:3:forces:R:3 energy=-16.766088485717773 free_energy=-16.766088485717773 stress="-1.2894051906187087e-05 8.935974626922416e-09 4.70774808025709e-10 8.935974626922416e-09 -1.2912020793010015e-05 -5.354282350822359e-09 4.70774808025709e-10 -5.354282350822359e-09 -1.2893127859570086e-05" pbc="T T T"
Au       2.15680719       1.52509300       3.73569965      -0.00000041      -0.00000036      -0.00000019
Au       6.47042188       4.57527934      11.20709862       0.00000015       0.00000056      -0.00000025
Be      -0.00000004       0.00000005       0.00000006      -0.00000027      -0.00000042       0.00000166
I        2.10707188       1.48992448       7.47139940       0.00015100       0.00010635       0.00000055
I        6.52015696       4.61044741       7.47139937      -0.00015038      -0.00010660       0.00000028
I        5.41688602       1.48992460       5.56047768      -0.00007475       0.00010541       0.00013003
I        3.21034312       4.61044771       9.38232155       0.00007566      -0.00010704      -0.00013076
I        3.21034286       4.61044740       5.56047764       0.00007444      -0.00010560       0.00012981
I        5.41688609       1.48992432       9.38232156      -0.00007541       0.00010757      -0.00013106
