9
Lattice="4.405685278381488 1.1983240713425263e-09 2.543623587776394 1.4685617374454274 4.153720074441146 2.5436236278644695 -4.6046539841399024e-08 1.6537832602259598e-08 5.08724725530774" Properties=species:S:1:pos:R:3:forces:R:3 energy=-32.60850524902344 free_energy=-32.60850524902344 stress="0.00035723907058127224 -5.888378851182097e-08 -6.071496638782037e-10 -5.888378851182097e-08 0.0003572772548068315 -3.1132358913055214e-08 -6.071496638782037e-10 -3.1132358913055214e-08 0.00035719326115213335" pbc="T T T"
Au       1.46856191       1.03842971       2.54362383       0.00000190      -0.00000188       0.00000195
Au       4.40568524       3.11529037       7.63087053       0.00000056       0.00000225      -0.00000212
Be      -0.00000003      -0.00000007       0.00000006      -0.00000066       0.00000144      -0.00000034
F        1.41243174       0.99874026       5.08724713       0.00166333       0.00117585       0.00000065
F        4.46181509       3.15497997       5.08724741      -0.00166112      -0.00117618       0.00000172
F        3.69946909       0.99874004       3.76682546      -0.00083169       0.00117406       0.00144041
F        2.17477775       3.15498011       6.40766895       0.00082999      -0.00117633      -0.00144053
F        2.17477765       3.15497992       3.76682541       0.00082943      -0.00117514       0.00143975
F        3.69946928       0.99874009       6.40766886      -0.00083178       0.00117582      -0.00144118
