9
Lattice="6.118131201334784 -4.116867560925836e-08 3.5323044172064364 2.0393770160238325 5.768229362626018 3.5323044384648297 -4.1711591767099244e-08 -3.4584229494198203e-09 7.0646089066594655" Properties=species:S:1:pos:R:3:forces:R:3 energy=-18.22075080871582 free_energy=-18.22075080871582 stress="3.4019532904494554e-05 -3.2481561884623034e-09 -7.128088119756626e-10 -3.2481561884623034e-09 3.399417983018793e-05 -1.2241224034426068e-08 -7.128088119756626e-10 -1.2241224034426068e-08 3.4012315154541284e-05" pbc="T T T"
Au       2.03937713       1.44205565       3.53230538       0.00000072      -0.00000366       0.00000218
Au       6.11813214       4.32617215      10.59691338       0.00000195      -0.00000000      -0.00000032
Be      -0.00000045      -0.00000056      -0.00000144       0.00000054       0.00000014       0.00000114
Br       1.99620797       1.41153241       7.06460917      -0.00032091      -0.00022562      -0.00000005
Br       6.16130013       4.35669749       7.06460905       0.00031772       0.00022599       0.00000010
Br       5.12002680       1.41153237       5.26107078       0.00015999      -0.00022647      -0.00027713
Br       3.03748094       4.35669818       8.86814681      -0.00015919       0.00022647       0.00027528
Br       3.03748069       4.35669774       5.26107103      -0.00016062       0.00022793      -0.00027680
Br       5.12002713       1.41153183       8.86814687       0.00015999      -0.00022478       0.00027576
