9
Lattice="6.4095272082167964 9.66846263636722e-09 3.7005422542802786 2.1365090795056028 6.04296017337673 3.700542252575071 8.276894306189698e-09 3.764215867395925e-09 7.401084494224531" Properties=species:S:1:pos:R:3:forces:R:3 energy=-15.978902816772461 free_energy=-15.978902816772461 stress="0.00029592958162538707 -1.2509148161754524e-09 2.5628619226836236e-09 -1.2509148161754524e-09 0.0002959361008834094 -7.053775341603341e-10 2.5628619226836236e-09 -7.053775341603341e-10 0.0002959247212857008" pbc="T T T"
Au       2.13650905       1.51074003       3.70054231      -0.00000006       0.00000004      -0.00000003
Au       6.40952719       4.53222003      11.10162670      -0.00000036      -0.00000043      -0.00000058
Cu       0.00000007       0.00000014       0.00000002      -0.00000033       0.00000017       0.00000028
I        2.17198769       1.53582721       7.40108451      -0.00120962      -0.00085559       0.00000001
I        6.37404859       4.50713300       7.40108450       0.00121023       0.00085578       0.00000034
I        5.32353334       1.53582719       5.58153855       0.00060523      -0.00085596      -0.00104793
I        3.22250301       4.50713299       9.22063045      -0.00060493       0.00085556       0.00104792
I        3.22250294       4.50713294       5.58153852      -0.00060523       0.00085566      -0.00104770
I        5.32353334       1.53582723       9.22063043       0.00060505      -0.00085523       0.00104762
