9
Lattice="4.578803859172177 -1.2292881595110018e-07 2.64357354814142 1.5262678849378766 4.316937402615242 2.6435734653859573 -3.028532436110497e-08 -1.2276927698372464e-07 5.2871471487385575" Properties=species:S:1:pos:R:3:forces:R:3 energy=-31.045026779174805 free_energy=-31.045026779174805 stress="0.0004986072890460491 -6.665821672413585e-08 5.92412412458998e-08 -6.665821672413585e-08 0.0004985107225365937 7.856955974716584e-09 5.92412412458998e-08 7.856955974716584e-09 0.0004983064718544483" pbc="T T T"
Au       1.52626874       1.07923470       2.64357317       0.00000439       0.00000161      -0.00000067
Au       4.57880362       3.23770221       7.93072103      -0.00000115      -0.00000368       0.00000145
C        0.00000008      -0.00000009       0.00000052      -0.00000138      -0.00000232       0.00000016
F        1.30531607       0.92299781       5.28714710       0.00624457       0.00441828       0.00000018
F        4.79975556       3.39393954       5.28714715      -0.00624955      -0.00442015       0.00000029
F        3.92614582       0.92299765       3.77401050      -0.00312283       0.00441991       0.00541258
F        2.17892590       3.39393923       6.80028352       0.00312177      -0.00441543      -0.00541350
F        2.17892574       3.39393949       3.77401019       0.00312357      -0.00441635       0.00541072
F        3.92614542       0.92299809       6.80028343      -0.00311942       0.00441897      -0.00541090
