9
Lattice="9.708852858822516 9.551684382817452e-07 5.605404838586424 3.236284088998758 9.15359654742284 5.605406740061907 -2.3429455796624436e-06 6.721091987749602e-07 11.210813735274922" Properties=species:S:1:pos:R:3:forces:R:3 energy=-19.033910751342773 free_energy=-19.033910751342773 stress="-4.3380674469517544e-05 -2.468076054640278e-08 -4.440755763113202e-09 -2.468076054640278e-08 -4.342977990745567e-05 2.1703514541115965e-09 -4.440755763113202e-09 2.1703514541115965e-09 -4.33915774920024e-05" pbc="T T T"
Au       3.23629068       2.28839710       5.60540128       0.00000002       0.00000011       0.00000012
Au       9.70885966       6.86519737      16.81621621       0.00000011       0.00000082       0.00000054
C       -0.00000476      -0.00000000       0.00000528       0.00000716       0.00000342      -0.00001285
Br       1.82900629       1.29330610      11.21081365       0.00404269       0.00286767       0.00000527
Br      11.11612285       7.86029187      11.21080981      -0.00404587      -0.00286621       0.00000454
Br       8.79434125       1.29330738       7.18937616      -0.00201675       0.00285754       0.00349796
Br       4.15078834       7.86029331      15.23225215       0.00201763      -0.00286376      -0.00350204
Br       4.15078901       7.86029252       7.18937873       0.00201611      -0.00286123       0.00350425
Br       8.79434325       1.29330648      15.23224873      -0.00202104       0.00286165      -0.00349769
