9
Lattice="6.192250220753477 3.6011529103176253e-08 3.575097321424659 2.0640833900658664 5.838109612891885 3.5750974094197376 -1.3321999869721465e-07 1.3570732954530292e-08 7.150194873593172" Properties=species:S:1:pos:R:3:forces:R:3 energy=-20.565149307250977 free_energy=-20.565149307250977 stress="3.292643668828532e-05 1.788066361640972e-09 8.36163582818017e-09 1.788066361640972e-09 3.2919626391958445e-05 5.2108042325471615e-09 8.36163582818017e-09 5.2108042325471615e-09 3.2927593565545976e-05" pbc="T T T"
Au       2.06408357       1.45952727       3.57509671       0.00000010      -0.00000072      -0.00000081
Au       6.19224985       4.37858275      10.72529305      -0.00000051       0.00000099       0.00000149
Co       0.00000002      -0.00000028       0.00000055       0.00000004       0.00000026      -0.00000070
Br       1.99765063       1.41255258       7.15019482      -0.00279644      -0.00197715       0.00000031
Br       6.25868269       4.42555732       7.15019445       0.00279692       0.00197725      -0.00000040
Br       5.19342460       1.41255261       5.30511378       0.00139828      -0.00197753      -0.00242189
Br       3.06290898       4.42555692       8.99527575      -0.00139840       0.00197725       0.00242239
Br       3.06290891       4.42555745       5.30511378      -0.00139786       0.00197747      -0.00242206
Br       5.19342462       1.41255213       8.99527558       0.00139785      -0.00197785       0.00242157
