9
Lattice="6.4160442281594765 1.1722024973483812e-07 3.704304726908614 2.13868150296424 6.049104374342697 3.704304756247114 -3.31651574873572e-08 1.2480852761518385e-08 7.408609511260958" Properties=species:S:1:pos:R:3:forces:R:3 energy=-19.238344192504883 free_energy=-19.238344192504883 stress="8.310658449772745e-05 -2.3529662662724604e-09 -2.5854405283354254e-09 -2.3529662662724604e-09 8.311299461638555e-05 -4.1333100830875935e-10 -2.5854405283354254e-09 -4.1333100830875935e-10 8.313788566738367e-05" pbc="T T T"
Au       2.13868142       1.51227615       3.70430483       0.00000033      -0.00000017       0.00000017
Au       6.41604426       4.53682841      11.11291415      -0.00000025       0.00000041      -0.00000004
Co       0.00000018      -0.00000016      -0.00000004      -0.00000067       0.00000033       0.00000000
I        2.13668017       1.51086089       7.40860949       0.00051551       0.00036407      -0.00000005
I        6.41804554       4.53824371       7.40860962      -0.00051548      -0.00036430      -0.00000001
I        5.34770408       1.51086100       5.55472376      -0.00025757       0.00036410       0.00044623
I        3.20702118       4.53824335       9.26249519       0.00025758      -0.00036483      -0.00044641
I        3.20702161       4.53824350       5.55472379       0.00025776      -0.00036421       0.00044607
I        5.34770433       1.51086115       9.26249524      -0.00025708       0.00036453      -0.00044617
