9
Lattice="6.374759868741307 -1.7047653922346478e-08 3.680469297205124 2.124919942856853 6.010181155750639 3.6804692925589646 3.886948451884352e-08 2.1794544958041606e-08 7.360938527086371" Properties=species:S:1:pos:R:3:forces:R:3 energy=-16.812728881835938 free_energy=-16.812728881835938 stress="-6.747084262315184e-05 -8.598232126288963e-10 -3.5797032005291385e-09 -8.598232126288963e-10 -6.745996506651863e-05 6.065347335493243e-09 -3.5797032005291385e-09 6.065347335493243e-09 -6.747007137164474e-05" pbc="T T T"
Au       2.12491988       1.50254507       3.68046934      -0.00000016      -0.00000044      -0.00000011
Au       6.37476028       4.50763602      11.04140799       0.00000040       0.00000032      -0.00000044
C        0.00000015      -0.00000016      -0.00000004      -0.00000121       0.00000280       0.00000095
I        2.15294494       1.52236199       7.36093843      -0.00132334      -0.00093639       0.00000019
I        6.34673457       4.48781912       7.36093857       0.00132447       0.00093573      -0.00000036
I        5.29828711       1.52236230       5.54497470       0.00066188      -0.00093663      -0.00114626
I        3.20139263       4.48781905       9.17690259      -0.00066191       0.00093597       0.00114661
I        3.20139259       4.48781904       5.54497460      -0.00066155       0.00093544      -0.00114697
I        5.29828728       1.52236220       9.17690237       0.00066167      -0.00093681       0.00114626
