9
Lattice="4.627870302636447 6.449172834390603e-08 2.6719021172872233 1.5426234577258502 4.3631979677158235 2.6719021818748216 7.00330501494019e-09 8.40554666669297e-08 5.343804222444343" Properties=species:S:1:pos:R:3:forces:R:3 energy=-31.733978271484375 free_energy=-31.733978271484375 stress="0.00011134083615615964 9.43516127449584e-08 4.999884950507294e-08 9.43516127449584e-08 0.00011141490540467203 2.2718030234791797e-10 4.999884950507294e-08 2.2718030234791797e-10 0.00011135444219689816" pbc="T T T"
Au       1.54262413       1.09079823       2.67190196       0.00000311      -0.00000788      -0.00000104
Au       4.62787110       3.27239844       8.01570640       0.00000731      -0.00000252      -0.00000176
Co       0.00000037       0.00000013      -0.00000029      -0.00000948      -0.00000410       0.00000294
F        1.51064229       1.06818656       5.34380412      -0.00144079      -0.00101751      -0.00000010
F        4.65985032       3.29501259       5.34380426       0.00144624       0.00102739       0.00000156
F        3.87254879       1.06818607       3.98015725       0.00071960      -0.00102063      -0.00124978
F        2.29794458       3.29501246       6.70745141      -0.00072003       0.00102012       0.00124742
F        2.29794483       3.29501227       3.98015764      -0.00072397       0.00102440      -0.00124927
F        3.87254873       1.06818573       6.70745132       0.00071811      -0.00101931       0.00124994
