9
Lattice="6.226204523237671 -6.467368363107731e-08 3.594701701742115 2.07540134560079 5.870124333502353 3.5947018769739625 -3.987561308645358e-07 -6.734879155303498e-08 7.1894040941500545" Properties=species:S:1:pos:R:3:forces:R:3 energy=-27.70079803466797 free_energy=-27.70079803466797 stress="7.07886865711771e-05 2.4884068139385818e-08 -1.0283484286333078e-08 2.4884068139385818e-08 7.0826499722898e-05 2.6434896938098973e-08 -1.0283484286333078e-08 2.6434896938098973e-08 7.085223478497937e-05" pbc="T T T"
Au       2.07540134       1.46752910       3.59470375      -0.00000084      -0.00000232       0.00000159
Au       6.22620348       4.40259202      10.78410596      -0.00000044      -0.00000136       0.00000115
Cr      -0.00000012       0.00000074      -0.00000045       0.00000264      -0.00000120       0.00000310
Cl       1.88505675       1.33293526       7.18940490       0.00251284       0.00177273      -0.00000061
Cl       6.41654916       4.53718972       7.18940304      -0.00251469      -0.00177160       0.00000001
Cl       5.28367824       1.33293755       5.22720857      -0.00125684       0.00177526       0.00217104
Cl       3.01792686       4.53718823       9.15159853       0.00125884      -0.00177512      -0.00217471
Cl       3.01792727       4.53718790       5.22720794       0.00125785      -0.00177604       0.00217557
Cl       5.28367943       1.33293652       9.15159865      -0.00125942       0.00177982      -0.00217697
