9
Lattice="6.113239300401102 2.394616297925363e-08 3.5294803151241503 2.0377464633731424 5.763617377637076 3.529480302429183 3.625416016801836e-08 1.0087492555804562e-08 7.058960567454244" Properties=species:S:1:pos:R:3:forces:R:3 energy=-17.18548011779785 free_energy=-17.18548011779785 stress="1.7620317521505058e-05 7.981589833505609e-10 1.449206310510931e-09 7.981589833505609e-10 1.762365900503937e-05 -5.0307340515587384e-09 1.449206310510931e-09 -5.0307340515587384e-09 1.7636450138525106e-05" pbc="T T T"
Au       2.03774606       1.44090441       3.52948023      -0.00000085       0.00000042      -0.00000047
Au       6.11323907       4.32271322      10.58844053      -0.00000060       0.00000025      -0.00000042
Cu       0.00000007       0.00000010      -0.00000020       0.00000035      -0.00000051       0.00000144
Br       2.00775425       1.41969657       7.05896060      -0.00606290      -0.00428791       0.00000003
Br       6.14323161       4.34392080       7.05896068       0.00606439       0.00428781       0.00000019
Br       5.10936239       1.41969659       5.26824644       0.00303237      -0.00428800      -0.00525081
Br       3.04162363       4.34392080       8.84967504      -0.00303197       0.00428733       0.00525075
Br       3.04162372       4.34392064       5.26824645      -0.00303197       0.00428821      -0.00525126
Br       5.10936243       1.41969658       8.84967496       0.00303133      -0.00428744       0.00525039
