9
Lattice="6.333337702173099 -2.6609208235343334e-07 3.6565541612213317 2.1111123068911715 5.971127773354546 3.6565541778934936 -3.86276022428441e-07 -2.527190136126815e-07 7.313108991492333" Properties=species:S:1:pos:R:3:forces:R:3 energy=-22.32386016845703 free_energy=-22.32386016845703 stress="-8.010054443730041e-05 -2.5309420337293886e-08 9.807199319311621e-08 -2.5309420337293886e-08 -8.014769991859794e-05 6.103176986016479e-08 9.807199319311621e-08 6.103176986016479e-08 -8.01593268988654e-05" pbc="T T T"
Au       2.11111095       1.49277553       3.65654948      -0.00000164      -0.00000353      -0.00000136
Au       6.33332603       4.47833888      10.96967545      -0.00000580      -0.00000397       0.00000612
Co       0.00000095       0.00000059       0.00000196      -0.00000146       0.00000326      -0.00000745
Cl       1.78832292       1.26453504       7.31310883       0.00404406       0.00286004      -0.00000330
Cl       6.65612875       4.70659546       7.31310559      -0.00403726      -0.00285608       0.00000522
Cl       5.43918073       1.26453849       5.20528416      -0.00202075       0.00285465       0.00350142
Cl       3.00527472       4.70659317       9.42092981       0.00202116      -0.00285596      -0.00350085
Cl       3.00527792       4.70659638       5.20528446       0.00201824      -0.00285736       0.00350130
Cl       5.43917551       1.26453553       9.42092977      -0.00201669       0.00285876      -0.00350097
