9
Lattice="4.6289809700299305 2.5595247317525624e-08 2.672543388535441 1.5429936474601085 4.364245391988868 2.6725434462958155 4.400674562300834e-08 1.0185918657188333e-07 5.3450867008489835" Properties=species:S:1:pos:R:3:forces:R:3 energy=-31.733949661254883 free_energy=-31.733949661254883 stress="0.00020240290905348957 4.0333549833349025e-09 2.8096411308631275e-10 4.0333549833349025e-09 0.00020238806609995663 5.415394355168246e-09 2.8096411308631275e-10 5.415394355168246e-09 0.00020232400856912136" pbc="T T T"
Au       1.54299297       1.09106114       2.67254373      -0.00000255      -0.00000184       0.00000195
Au       4.62898127       3.27318425       8.01762989      -0.00000009       0.00000158      -0.00000176
Co       0.00000006       0.00000008      -0.00000000      -0.00000219      -0.00000056       0.00000637
F        1.51035787       1.06798425       5.34508639       0.00657289       0.00464634      -0.00000039
F        4.66161673       3.29626133       5.34508708      -0.00657116      -0.00464639       0.00000098
F        3.87380227       1.06798419       3.98055173      -0.00328442       0.00464493       0.00569154
F        2.29817257       3.29626143       6.70962174       0.00328737      -0.00464700      -0.00569468
F        2.29817246       3.29626114       3.98055168       0.00328478      -0.00464628       0.00569080
F        3.87380253       1.06798430       6.70962193      -0.00328454       0.00464923      -0.00569471
