9
Lattice="4.616959179057176 -1.7496950256324745e-07 2.6656025168836694 1.5389863280340779 4.352910316668537 2.6656023437169716 1.2041415493456264e-08 -2.035704652924245e-07 5.331205012911012" Properties=species:S:1:pos:R:3:forces:R:3 energy=-28.326629638671875 free_energy=-28.326629638671875 stress="-2.9435277610900812e-05 6.673292585190893e-09 3.2102946079248795e-08 6.673292585190893e-09 -2.9405511668301187e-05 -7.596767659379111e-09 3.2102946079248795e-08 -7.596767659379111e-09 -2.938359284598846e-05" pbc="T T T"
Au       1.53898650       1.08822734       2.66560278       0.00000072      -0.00000026       0.00000204
Au       4.61695888       3.26468257       7.99680720      -0.00000145       0.00000045      -0.00000153
Cu       0.00000005      -0.00000007      -0.00000014       0.00000260      -0.00000383       0.00000412
F        1.53871707       1.08803695       5.33120480       0.00139427       0.00098602      -0.00000046
F        4.61722846       3.26487307       5.33120512      -0.00139424      -0.00098552       0.00000072
F        3.84760040       1.08803695       3.99817040      -0.00069813       0.00098443       0.00120655
F        2.30834501       3.26487308       6.66423957       0.00069782      -0.00098513      -0.00120708
F        2.30834499       3.26487309       3.99817031       0.00069550      -0.00098337       0.00120443
F        3.84760064       1.08803679       6.66423949      -0.00069723       0.00098711      -0.00120866
