9
Lattice="6.608348506903485 -1.7716552862848616e-07 3.81533206100056 2.2027826010921627 6.23041110909992 3.815332177929821 -1.400460523961825e-08 1.3330566115526218e-07 7.630664146257772" Properties=species:S:1:pos:R:3:forces:R:3 energy=-23.360443115234375 free_energy=-23.360443115234375 stress="-2.0344195945654064e-05 -1.7511304406525596e-08 -1.0334487932084357e-08 -1.7511304406525596e-08 -2.0327584934420884e-05 -4.046935675461327e-09 -1.0334487932084357e-08 -4.046935675461327e-09 -2.031847725447733e-05" pbc="T T T"
Au       2.20278233       1.55760273       3.81533221      -0.00000046       0.00000008       0.00000034
Au       6.60834795       4.67280812      11.44599654      -0.00000041      -0.00000040      -0.00000015
Cr       0.00000038      -0.00000009       0.00000034      -0.00000145       0.00000272      -0.00000245
I        2.16147343       1.52839282       7.63066382       0.00104449       0.00073810       0.00000088
I        6.64965840       4.70201864       7.63066374      -0.00104672      -0.00073937       0.00000006
I        5.52761150       1.52839258       5.68722359      -0.00052110       0.00073801       0.00090288
I        3.28351954       4.70201840       9.57410515       0.00052263      -0.00073828      -0.00090445
I        3.28351930       4.70201837       5.68722308       0.00052376      -0.00073844       0.00090516
I        5.52761150       1.52839261       9.57410507      -0.00052070       0.00073764      -0.00090235
