9
Lattice="6.375701975074957 1.24119202076785e-07 3.6810132763159693 2.1252339887991942 6.0110697307002 3.6810134840117623 -1.5291353830746328e-07 1.46248172857465e-07 7.362026817485785" Properties=species:S:1:pos:R:3:forces:R:3 energy=-16.812728881835938 free_energy=-16.812728881835938 stress="9.111228791880421e-06 -8.377474713938682e-09 1.3267807297268064e-08 -8.377474713938682e-09 9.11979986994993e-06 -2.8306150756662873e-09 1.3267807297268064e-08 -2.8306150756662873e-09 9.101180694415234e-06" pbc="T T T"
Au       2.12523388       1.50276756       3.68101323       0.00000003       0.00000023      -0.00000086
Au       6.37570184       4.50830263      11.04304002       0.00000012       0.00000006      -0.00000052
C        0.00000037      -0.00000062      -0.00000230       0.00000017      -0.00000227      -0.00000566
I        2.15295114       1.52236640       7.36202672      -0.00033796      -0.00023991       0.00000033
I        6.34798491       4.48870347       7.36202694       0.00033945       0.00023925      -0.00000119
I        5.29922580       1.52236722       5.54552515       0.00016794      -0.00023723      -0.00029069
I        3.20170903       4.48870375       9.17853027      -0.00017136       0.00024199       0.00029624
I        3.20170959       4.48870336       5.54552376      -0.00016856       0.00023896      -0.00029320
I        5.29922680       1.52236613       9.17853051       0.00017020      -0.00024110       0.00029552
