9
Lattice="9.85720037114522 0.0132615084843409 5.696692434971372 3.307819625211327 9.282145532738461 5.68008278846643 0.005606978071988314 -0.016372795637416712 11.383677215568849" Properties=species:S:1:pos:R:3:forces:R:3 energy=-21.868349075317383 free_energy=-21.868349075317383 stress="-1.0369009942223784e-05 1.028881456477393e-06 9.972636689781211e-07 1.028881456477393e-06 -8.943025022745132e-06 -5.175056230655173e-06 9.972636689781211e-07 -5.175056230655173e-06 1.640726623008959e-06" pbc="T T T"
Au       3.30378052       2.43937080       5.68630989       0.00013381      -0.00051900      -0.00000521
Au       9.88477428       6.96133441      17.06716848      -0.00000548      -0.00001658       0.00001977
C       -0.02053720       0.27983438       0.00526960      -0.00176838       0.00040007       0.00124907
Cl       1.55872267       1.17558683      11.40229157       0.00166669       0.00251845       0.00037402
Cl      11.55434255       7.96515303      11.35842377      -0.00254640       0.00111891      -0.00079679
Cl       8.97647253       1.03694307       7.12173192      -0.00076492       0.00220226      -0.00009596
Cl       4.22404852       8.11064432      15.58761489       0.00177707      -0.00149393      -0.00097233
Cl       4.21979463       8.08327058       7.12299074       0.00168268      -0.00202571      -0.00100431
Cl       8.98110834       1.06400782      15.69001381      -0.00017501      -0.00218458       0.00123182
