9
Lattice="6.19317024212777 -6.607504633424624e-08 3.5756286076151684 2.064390050755189 5.838976797803656 3.5756285515969903 -3.398963005816596e-08 -9.2642237287136e-08 7.151257274102082" Properties=species:S:1:pos:R:3:forces:R:3 energy=-20.565155029296875 free_energy=-20.565155029296875 stress="6.571417179657146e-05 -7.761197018396615e-09 6.275302499858526e-10 -7.761197018396615e-09 6.570060941157863e-05 -7.237045629437944e-09 6.275302499858526e-10 -7.237045629437944e-09 6.572551501449198e-05" pbc="T T T"
Au       2.06439013       1.45974434       3.57562867       0.00000004       0.00000049       0.00000044
Au       6.19316992       4.37923234      10.72688567       0.00000001      -0.00000042      -0.00000001
Co      -0.00000011       0.00000006      -0.00000053      -0.00000052       0.00000055       0.00000056
Br       1.99739907       1.41237437       7.15125701      -0.00140753      -0.00099511       0.00000084
Br       6.26016147       4.42660248       7.15125700       0.00140694       0.00099483       0.00000028
Br       5.19447063       1.41237453       5.30542692       0.00070433      -0.00099589      -0.00121920
Br       3.06308952       4.42660262       8.99708791      -0.00070259       0.00099438       0.00121784
Br       3.06308961       4.42660194       5.30542721      -0.00070380       0.00099561      -0.00121884
Br       5.19447072       1.41237388       8.99708792       0.00070320      -0.00099446       0.00121796
