9
Lattice="6.41834241843399 -1.5728348306349793e-08 3.7056318048748347 2.1394474511125203 6.051271617885311 3.705631816774223 -5.6225498873497045e-08 -2.5183806247451398e-08 7.411263707135032" Properties=species:S:1:pos:R:3:forces:R:3 energy=-19.238292694091797 free_energy=-19.238292694091797 stress="0.00023611620417796075 2.168877744068709e-09 -5.402286951117219e-10 2.168877744068709e-09 0.00023611447250004858 -3.920032909388027e-10 -5.402286951117219e-10 -3.920032909388027e-10 0.0002361045335419476" pbc="T T T"
Au       2.13944751       1.51281834       3.70563181       0.00000007       0.00000058       0.00000015
Au       6.41834211       4.53845346      11.11689603      -0.00000044      -0.00000008       0.00000016
Co      -0.00000014       0.00000012       0.00000046       0.00000028      -0.00000005      -0.00000022
I        2.13699594       1.51108470       7.41126368       0.00190425       0.00134693      -0.00000007
I        6.42079395       4.54018685       7.41126347      -0.00190476      -0.00134761       0.00000001
I        5.34984427       1.51108457       5.55632440      -0.00095200       0.00134641       0.00164984
I        3.20794573       4.54018677       9.26620248       0.00095252      -0.00134666      -0.00164977
I        3.20794567       4.54018711       5.55632447       0.00095252      -0.00134611       0.00164965
I        5.34984414       1.51108437       9.26620246      -0.00095239       0.00134662      -0.00164960
