9
Lattice="11.005016493534669 0.026160831138626044 6.064634457445682 3.402685581361439 10.916568970564951 6.546128179952446 -0.49123537791393795 0.2712415391737289 12.948128283192577" Properties=species:S:1:pos:R:3:forces:R:3 energy=-26.50507354736328 free_energy=-26.50507354736328 stress="7.533655548286333e-07 -4.6143745180415863e-07 -2.7003004561265698e-06 -4.6143745180415863e-07 -2.671732772796531e-06 -1.7250521295864019e-06 -2.7003004561265698e-06 -1.7250521295864019e-06 5.235451681073755e-06" pbc="T T T"
Au       4.37063053       2.95158570       5.56472520      -0.00000271      -0.00076900      -0.00005478
Au      12.29734086      11.23077008      17.24204197      -0.00105342      -0.00379598       0.00085681
C        0.29391244      -0.70888424      -1.30238154       0.00000760      -0.00022087      -0.00043673
Cl       0.32767595       0.99864056      12.56576707       0.00035770       0.00100106       0.00096177
Cl      11.71144210       9.06317042      17.32838970       0.00055453       0.00192397      -0.00047353
Cl       9.48034885       2.48152067      10.61098260       0.00079060       0.00171022      -0.00097388
Cl       3.76297523      10.61843164      16.50205581      -0.00115298      -0.00116278       0.00273940
Cl       4.39505000       8.74041701       5.98183248       0.00029212       0.00138849      -0.00142683
Cl       9.02652416      -0.51991337      17.74232396       0.00020659      -0.00007500      -0.00119220
