9
Lattice="4.760995021591638 -2.407182361117514e-08 2.748761751760748 1.5869983361398 4.488709145879967 2.74876172005676 1.8696160639575655e-08 -2.5609133593659734e-08 5.49752347113879" Properties=species:S:1:pos:R:3:forces:R:3 energy=-36.140953063964844 free_energy=-36.140953063964844 stress="0.00015021026774775237 1.2475848620852048e-07 7.915279098824612e-08 1.2475848620852048e-07 0.00015022481966298074 -1.1296415181050179e-07 7.915279098824612e-08 -1.1296415181050179e-07 0.000150085732457228" pbc="T T T"
Au       1.58699908       1.12217642       2.74875986       0.00000277      -0.00000636      -0.00001509
Au       4.76099448       3.36653276       8.24628274      -0.00000338       0.00000596      -0.00001548
Cr       0.00000003      -0.00000023       0.00000017      -0.00000068       0.00000371       0.00001368
F        1.54818543       1.09473203       5.49752408      -0.00111595      -0.00079262       0.00000560
F        4.79980740       3.39397713       5.49752425       0.00111620       0.00079318       0.00000808
F        3.98690308       1.09473147       4.08952957       0.00055395      -0.00078667      -0.00095486
F        2.36109054       3.39397761       6.90551883      -0.00054642       0.00077494       0.00095457
F        2.36109113       3.39397717       4.08953018      -0.00055817       0.00079080      -0.00096157
F        3.98690223       1.09473200       6.90551807       0.00055189      -0.00078294       0.00096522
