9
Lattice="6.331912798993462 8.370376628287067e-08 3.655730597231428 2.110637803248469 5.969784979436333 3.6557303813010704 4.388637732376541e-07 4.586398193590633e-08 7.311460434328356" Properties=species:S:1:pos:R:3:forces:R:3 energy=-22.323863983154297 free_energy=-22.323863983154297 stress="-5.6081280490616336e-05 1.792432158254087e-08 -1.9707350418229908e-08 1.792432158254087e-08 -5.615111149381846e-05 -1.3290070377536267e-08 -1.9707350418229908e-08 -1.3290070377536267e-08 -5.5979639000725e-05" pbc="T T T"
Au       2.11063833       1.49244266       3.65572835      -0.00000048      -0.00000246      -0.00000057
Au       6.33190971       4.47733769      10.96719365      -0.00000071      -0.00000022       0.00000033
Co       0.00000094      -0.00000045      -0.00000117      -0.00000411      -0.00000016       0.00000175
Cl       1.78853201       1.26468256       7.31146146       0.00206524       0.00146347       0.00000100
Cl       6.65402611       4.70510476       7.31145958      -0.00207573      -0.00146624      -0.00000075
Cl       5.43764628       1.26467800       5.20464243      -0.00103253       0.00146785       0.00178829
Cl       3.00490119       4.70510899       9.41827959       0.00104177      -0.00146595      -0.00179163
Cl       3.00490034       4.70510648       5.20464239       0.00104052      -0.00146455       0.00179049
Cl       5.43764945       1.26467991       9.41827889      -0.00103387       0.00146824      -0.00178882
