9
Lattice="9.69005023714359 -1.6584412118271738e-06 5.5945529268591745 3.2300159989118336 9.135871814858605 5.594551512137959 -1.2982166437354036e-06 -2.650650747872643e-06 11.189108102295299" Properties=species:S:1:pos:R:3:forces:R:3 energy=-19.03377914428711 free_energy=-19.03377914428711 stress="-3.962928894907236e-05 -1.1775586061801846e-10 1.489558076883668e-08 -1.1775586061801846e-10 -3.96489558625035e-05 1.1188131532335888e-09 1.489558076883668e-08 1.1188131532335888e-09 -3.965785799664445e-05" pbc="T T T"
Au       3.23001023       2.28396715       5.59454473       0.00000085       0.00000054       0.00000048
Au       9.69005228       6.85190369      16.78367129       0.00000028      -0.00000107       0.00000030
C        0.00000019      -0.00000010      -0.00000164      -0.00000411      -0.00000157       0.00000178
Br       1.82914108       1.29339645      11.18911036       0.00221175       0.00156805      -0.00000424
Br      11.09092247       7.84247015      11.18909934      -0.00220776      -0.00156403       0.00000137
Br       8.77547608       1.29339525       7.17863630      -0.00110908       0.00156748       0.00191650
Br       4.14459011       7.84246927      15.19957603       0.00110500      -0.00156459      -0.00191972
Br       4.14458558       7.84247303       7.17863630       0.00110409      -0.00156903       0.00191778
Br       8.77547745       1.29339351      15.19957445      -0.00110097       0.00156409      -0.00191399
