9
Lattice="6.68468495993581 1.3610524295553804e-07 3.8594048358093813 2.2282284188078947 6.302381997154046 3.859404886891064 5.6274482878109137e-08 1.0235393960214025e-07 7.718809574148558" Properties=species:S:1:pos:R:3:forces:R:3 energy=-24.457273483276367 free_energy=-24.457273483276367 stress="4.843605347559787e-05 -1.2469610233267758e-08 1.8676311608345486e-09 -1.2469610233267758e-08 4.844462819164619e-05 -1.8065584583837335e-09 1.8676311608345486e-09 -1.8065584583837335e-09 4.8470512410858646e-05" pbc="T T T"
Au       2.22822853       1.57559451       3.85940471       0.00000010       0.00000004       0.00000007
Au       6.68468474       4.72678737      11.57821447       0.00000000       0.00000001      -0.00000016
Fe       0.00000017       0.00000011       0.00000008       0.00000439      -0.00000201      -0.00000718
Br       1.83266123       1.29588715       7.71880941      -0.00368407      -0.00260483      -0.00000019
Br       7.08025275       5.00649515       7.71880967       0.00368109       0.00260381       0.00000006
Br       5.76835438       1.29588719       5.44653559       0.00184046      -0.00260322      -0.00318891
Br       3.14455893       5.00649516       9.99108358      -0.00184347       0.00260758       0.00319481
Br       3.14455857       5.00649509       5.44653612      -0.00184146       0.00260481      -0.00319138
Br       5.76835456       1.29588725       9.99108360       0.00184302      -0.00260609       0.00319278
