9
Lattice="6.590338732006889 1.2287594838937307e-07 3.804933809393469 2.1967797449579933 6.213430887782948 3.8049337197186004 9.471745592644363e-08 -4.28533982416833e-08 7.609867454731412" Properties=species:S:1:pos:R:3:forces:R:3 energy=-21.70335578918457 free_energy=-21.70335578918457 stress="-1.6695163139957003e-05 3.3994552950389334e-08 2.6251372631236336e-08 3.3994552950389334e-08 -1.669934681558516e-05 -3.0391188232670174e-08 2.6251372631236336e-08 -3.0391188232670174e-08 -1.671995414653793e-05" pbc="T T T"
Au       2.19677967       1.55335772       3.80493375      -0.00000009       0.00000002      -0.00000026
Au       6.59033901       4.66007316      11.41480148       0.00000007       0.00000035       0.00000030
Fe      -0.00000009       0.00000044      -0.00000034       0.00000363      -0.00000962       0.00000237
I        1.97330456       1.39533758       7.60986720      -0.00207792      -0.00147133       0.00000042
I        6.81381401       4.81809361       7.60986726       0.00207874       0.00147122       0.00000075
I        5.60368707       1.39533685       5.51386496       0.00103550      -0.00146564      -0.00179398
I        3.18343124       4.81809422       9.70587001      -0.00103584       0.00146760       0.00179726
I        3.18343185       4.81809351       5.51386554      -0.00104013       0.00147343      -0.00180312
I        5.60368704       1.39533681       9.70586998       0.00103593      -0.00146611       0.00179623
