9
Lattice="6.582152100198615 3.65158697256426e-08 3.8002071371602626 2.194050738904309 6.205712593656105 3.8002071295208304 -8.710726831007399e-10 -9.972318077170613e-09 7.600414275829311" Properties=species:S:1:pos:R:3:forces:R:3 energy=-21.703170776367188 free_energy=-21.703170776367188 stress="-0.0002012028417084366 2.4667832221325625e-08 5.083254706050866e-09 2.4667832221325625e-08 -0.00020120703266002238 -4.213139614961392e-09 5.083254706050866e-09 -4.213139614961392e-09 -0.0002012435725191608" pbc="T T T"
Au       2.19405065       1.55142798       3.80020721       0.00000010      -0.00000012       0.00000001
Au       6.58215214       4.65428458      11.40062136      -0.00000025       0.00000007      -0.00000001
Fe       0.00000001       0.00000012      -0.00000023      -0.00000072      -0.00000512       0.00000388
I        1.97334922       1.39536868       7.60041432      -0.00348905      -0.00246760      -0.00000013
I        6.80285370       4.81034394       7.60041432       0.00349130       0.00246969      -0.00000009
I        5.59547744       1.39536865       5.50917758       0.00174343      -0.00246620      -0.00301982
I        3.18072525       4.81034393       9.69165101      -0.00174327       0.00246662       0.00301926
I        3.18072537       4.81034390       5.50917756      -0.00174437       0.00246813      -0.00302158
I        5.59547760       1.39536870       9.69165096       0.00174282      -0.00246528       0.00301834
