9
Lattice="4.7039438311044055 -6.269838911934311e-08 2.71582310474399 1.5679812701223566 4.434920155119227 2.715823014330641 6.560201393830079e-08 -6.434564755057588e-08 5.431646095861974" Properties=species:S:1:pos:R:3:forces:R:3 energy=-33.350257873535156 free_energy=-33.350257873535156 stress="8.932008495321497e-05 3.542718118865196e-08 -1.8786767697065443e-08 3.542718118865196e-08 8.927873568609357e-05 -4.5305215135016397e-10 -1.8786767697065443e-08 -4.5305215135016397e-10 8.921503467718139e-05" pbc="T T T"
Au       1.56798156       1.10872931       2.71582300       0.00000281      -0.00000406      -0.00000100
Au       4.70394398       3.32619031       8.14746910       0.00000218       0.00000015       0.00000283
Fe      -0.00000008      -0.00000011      -0.00000001       0.00000304      -0.00000381       0.00000361
F        1.56009359       1.10315256       5.43164643      -0.00242823      -0.00171758       0.00000118
F        4.71183118       3.33176778       5.43164600       0.00242770       0.00171995      -0.00000316
F        3.92389690       1.10315250       4.06690374       0.00121100      -0.00171509      -0.00209966
F        2.34802829       3.33176748       6.79638834      -0.00121544       0.00171730       0.00210038
F        2.34802792       3.33176751       4.06690352      -0.00121464       0.00171654      -0.00210115
F        3.92389720       1.10315272       6.79638866       0.00121146      -0.00171354       0.00209695
