9
Lattice="4.704318226612028 -2.4804527732962746e-08 2.7160392995064524 1.5681060897418468 4.435273524298381 2.716039234397891 5.643299476891071e-08 -3.983721207775614e-08 5.432078501268061" Properties=species:S:1:pos:R:3:forces:R:3 energy=-33.350257873535156 free_energy=-33.350257873535156 stress="0.00015301689563784748 2.7983805495068736e-08 6.45694031575772e-09 2.7983805495068736e-08 0.00015301487292163074 1.8861125994362737e-08 6.45694031575772e-09 1.8861125994362737e-08 0.0001529441069578752" pbc="T T T"
Au       1.56810619       1.10881811       2.71603842       0.00000073      -0.00000111      -0.00000528
Au       4.70431805       3.32645551       8.14811684      -0.00000235       0.00000190      -0.00000551
Fe      -0.00000012      -0.00000012       0.00000010       0.00000287       0.00000157       0.00000510
F        1.56002818       1.10310607       5.43207901      -0.00023556      -0.00016764       0.00000267
F        4.71239631       3.33216735       5.43207881       0.00023335       0.00016674       0.00000239
F        3.92430417       1.10310631       4.06706335       0.00011818      -0.00016709      -0.00020313
F        2.34812041       3.33216696       6.79709434      -0.00011551       0.00016342       0.00020230
F        2.34811993       3.33216740       4.06706343      -0.00011767       0.00016673      -0.00020072
F        3.92430436       1.10310626       6.79709389       0.00011595      -0.00016439       0.00020173
