9
Lattice="4.978586247391322 -5.6090552970423345e-08 2.874388012296985 1.6595286497813941 4.693856351192037 2.8743880927793106 -1.3284889220471096e-07 4.631914530249362e-09 5.748776254695003" Properties=species:S:1:pos:R:3:forces:R:3 energy=-33.37934494018555 free_energy=-33.37934494018555 stress="8.29456330393441e-05 3.992284902665233e-08 -7.421530501261486e-09 3.992284902665233e-08 8.288220851682127e-05 -3.3156060119665653e-09 -7.421530501261486e-09 -3.3156060119665653e-09 8.279491157736629e-05" pbc="T T T"
Au       1.65952834       1.17346394       2.87438806      -0.00000132      -0.00000136      -0.00000031
Au       4.97858673       3.52039239       8.62316466       0.00000250       0.00000168       0.00000323
Ge       0.00000014       0.00000003      -0.00000016      -0.00000070       0.00000255       0.00000043
F        1.51096329       1.06841230       5.74877632      -0.00284111      -0.00200790       0.00000037
F        5.12715158       3.62544447       5.74877599       0.00283682       0.00200528      -0.00000180
F        4.22310434       1.06841187       4.18292034       0.00142002      -0.00200444      -0.00245583
F        2.41501002       3.62544409       7.31463198      -0.00141823       0.00200450       0.00245291
F        2.41501020       3.62544399       4.18292001      -0.00141701       0.00200438      -0.00245410
F        4.22310451       1.06841209       7.31463217       0.00141919      -0.00200486       0.00245494
