9
Lattice="6.426496840773459 -4.287532561111409e-08 3.7103397532106372 2.142165631900356 6.05895910524306 3.710339651483092 1.3564313758279479e-07 -2.8676159473880582e-08 7.420679271480457" Properties=species:S:1:pos:R:3:forces:R:3 energy=-20.024755477905273 free_energy=-20.024755477905273 stress="-0.00010528397979214787 -1.2874227017789508e-08 6.657508322405192e-09 -1.2874227017789508e-08 -0.00010530627332627773 -4.9635744403531135e-09 6.657508322405192e-09 -4.9635744403531135e-09 -0.00010528572602197528" pbc="T T T"
Au       2.14216538       1.51473999       3.71033949      -0.00000023       0.00000008       0.00000003
Au       6.42649723       4.54421996      11.13101995       0.00000030       0.00000039       0.00000025
Ge      -0.00000014      -0.00000005       0.00000022      -0.00000089      -0.00000261       0.00000238
Br       1.97919739       1.39950334       7.42067892      -0.00108907      -0.00077039      -0.00000033
Br       6.58946523       4.65945528       7.42067937       0.00109252       0.00077230       0.00000059
Br       5.43689851       1.39950406       5.42437503       0.00054567      -0.00077294      -0.00094590
Br       3.13176411       4.65945483       9.41698325      -0.00054616       0.00077151       0.00094560
Br       3.13176442       4.65945491       5.42437502      -0.00054720       0.00077234      -0.00094640
Br       5.43689823       1.39950383       9.41698351       0.00054498      -0.00077057       0.00094369
