9
Lattice="6.677333484980826 -8.481408120288052e-08 3.8551602309767112 2.2257777046636975 6.29545020176321 3.8551603066668303 -3.242164802605196e-08 6.977554944161674e-08 7.710320518109199" Properties=species:S:1:pos:R:3:forces:R:3 energy=-17.424837112426758 free_energy=-17.424837112426758 stress="-2.7187452360522002e-05 1.2004707450330443e-08 -4.073267945159387e-09 1.2004707450330443e-08 -2.718630275921896e-05 8.676635410154176e-09 -4.073267945159387e-09 8.676635410154176e-09 -2.7199354008189403e-05" pbc="T T T"
Au       2.22577796       1.57386219       3.85516010       0.00000041      -0.00000029      -0.00000024
Au       6.67733300       4.72158762      11.56548087      -0.00000077       0.00000025       0.00000045
Ge      -0.00000005       0.00000014      -0.00000017      -0.00000010      -0.00000029      -0.00000063
I        2.33406987       1.65043644       7.71032048      -0.00169367      -0.00119789      -0.00000007
I        6.56904135       4.64501379       7.71032063       0.00169387       0.00119771       0.00000013
I        5.51029839       1.65043675       5.87652419       0.00084655      -0.00119723      -0.00146648
I        3.39281298       4.64501356       9.54411692      -0.00084642       0.00119749       0.00146687
I        3.39281273       4.64501372       5.87652400      -0.00084612       0.00119686      -0.00146565
I        5.51029842       1.65043649       9.54411725       0.00084636      -0.00119671       0.00146568
