9
Lattice="6.678952982072941 -5.452758313000006e-08 3.856095365009831 2.226317602343608 6.296977383753495 3.8560953770273367 -2.176502050837187e-08 -6.718185344424194e-10 7.712190767717801" Properties=species:S:1:pos:R:3:forces:R:3 energy=-17.42482566833496 free_energy=-17.42482566833496 stress="6.301620305748656e-05 -4.994158420146277e-10 3.390425495908289e-09 -4.994158420146277e-10 6.300569657469168e-05 -2.046371072594866e-09 3.390425495908289e-09 -2.046371072594866e-09 6.300777022261173e-05" pbc="T T T"
Au       2.22631763       1.57424439       3.85609534       0.00000009      -0.00000020      -0.00000010
Au       6.67895285       4.72273298      11.56828634      -0.00000021       0.00000006      -0.00000000
Ge      -0.00000018       0.00000008       0.00000014       0.00000005      -0.00000000       0.00000027
I        2.33504889       1.65112914       7.71219066      -0.00278452      -0.00196889      -0.00000003
I        6.57022156       4.64584819       7.71219070       0.00278494       0.00196905       0.00000042
I        5.51142834       1.65112927       5.87830735       0.00139239      -0.00196902      -0.00241128
I        3.39384225       4.64584816       9.54607395      -0.00139190       0.00196846       0.00241128
I        3.39384238       4.64584811       5.87830740      -0.00139289       0.00196943      -0.00241181
I        5.51142851       1.65112899       9.54607417       0.00139207      -0.00196891       0.00241143
