9
Lattice="6.473143997029746 -1.1933680211968645e-07 3.737271429717336 2.1577145125593393 6.102938634076295 3.7372715000478687 -2.6425983434764937e-07 -1.0072297090763923e-07 7.474543317146164" Properties=species:S:1:pos:R:3:forces:R:3 energy=-22.921428680419922 free_energy=-22.921428680419922 stress="-6.155547453090549e-05 2.270915899771353e-09 -3.9414436159290744e-09 2.270915899771353e-09 -6.157388270366937e-05 3.3490501039068477e-08 -3.9414436159290744e-09 3.3490501039068477e-08 -6.159907206892967e-05" pbc="T T T"
Au       2.15771573       1.52573635       3.73727176      -0.00000005      -0.00000006      -0.00000016
Au       6.47314427       4.57720363      11.21181562       0.00000021       0.00000007      -0.00000029
Ge      -0.00000007      -0.00000009      -0.00000057      -0.00000202      -0.00000306       0.00000164
Cl       1.84021527       1.30122749       7.47454334      -0.00129050      -0.00091222      -0.00000255
Cl       6.79064276       4.80171000       7.47454255       0.00129259       0.00091279      -0.00000034
Cl       5.55303652       1.30122879       5.33094423       0.00064442      -0.00091165      -0.00111586
Cl       3.07782183       4.80170934       9.61814157      -0.00064728       0.00091603       0.00111997
Cl       3.07782097       4.80170993       5.33094462      -0.00064406       0.00090986      -0.00111604
Cl       5.55303579       1.30122838       9.61814186       0.00064659      -0.00091189       0.00111359
