9
Lattice="6.430664702996254 -7.4426520721654435e-09 3.712746079697985 2.143554921041076 6.062888938528108 3.7127460328296102 1.6969840170138162e-08 -4.540216351539727e-08 7.425492130003116" Properties=species:S:1:pos:R:3:forces:R:3 energy=-20.024805068969727 free_energy=-20.024805068969727 stress="-3.3298786092927912e-06 -4.884745039013261e-11 -3.512366841817993e-09 -4.884745039013261e-11 -3.329248102090787e-06 5.767505140141793e-09 -3.512366841817993e-09 5.767505140141793e-09 -3.3463395539001795e-06" pbc="T T T"
Au       2.14355474       1.51572226       3.71274604      -0.00000012       0.00000007      -0.00000002
Au       6.43066454       4.54716696      11.13823847      -0.00000016      -0.00000001      -0.00000004
Ge      -0.00000092      -0.00000040      -0.00000130       0.00001673       0.00000439       0.00001646
Br       1.97903392       1.39938818       7.42549143      -0.00218660      -0.00154710       0.00000239
Br       6.59518701       4.66350128       7.42549153       0.00216916       0.00153433       0.00000233
Br       5.44114773       1.39938828       5.42663960       0.00109395      -0.00154513      -0.00189024
Br       3.13307133       4.66350102       9.42434575      -0.00108488       0.00153737       0.00188309
Br       3.13307194       4.66350025       5.42663957      -0.00109346       0.00154968      -0.00189376
Br       5.44114853       1.39938759       9.42434594       0.00108533      -0.00153357       0.00187978
