9
Lattice="4.978802433448345 -2.481018893077377e-07 2.874512529035738 1.659600689501649 4.69405935477561 2.8745123345871475 6.041722657240306e-08 -1.9542846406843043e-07 5.749024953425782" Properties=species:S:1:pos:R:3:forces:R:3 energy=-33.37934112548828 free_energy=-33.37934112548828 stress="-4.40067560703028e-06 -3.0018021845990006e-08 -6.374173633361124e-09 -3.0018021845990006e-08 -4.414081104187062e-06 -3.5496141581603524e-09 -6.374173633361124e-09 -3.5496141581603524e-09 -4.4856224121758714e-06" pbc="T T T"
Au       1.65960092       1.17351399       2.87451355      -0.00000003      -0.00000240       0.00000346
Au       4.97880182       3.52054364       8.62353778      -0.00000202      -0.00000229       0.00000226
Ge       0.00000026       0.00000006      -0.00000024      -0.00000688       0.00000460       0.00000943
F        1.51081048       1.06830464       5.74902475       0.00087374       0.00061905      -0.00000287
F        5.12759248       3.62575459       5.74902481      -0.00087202      -0.00061613      -0.00000174
F        4.22339678       1.06830416       4.18291276      -0.00043458       0.00061435       0.00075132
F        2.41500644       3.62575514       7.31513679       0.00043848      -0.00061613      -0.00076139
F        2.41500632       3.62575505       4.18291253       0.00043792      -0.00061667       0.00075543
F        4.22339696       1.06830434       7.31513696      -0.00043404       0.00061548      -0.00075561
