9
Lattice="6.479085166049629 3.807093447154158e-07 3.740701710755566 2.1596953289803755 6.108541283586513 3.7407018585092815 -3.9282175649651374e-08 1.531840598380572e-07 7.481403489550041" Properties=species:S:1:pos:R:3:forces:R:3 energy=-22.92146110534668 free_energy=-22.92146110534668 stress="1.0709826710808557e-05 1.5479075798907616e-08 4.173118384187546e-08 1.5479075798907616e-08 1.0733509043348022e-05 -5.954971982191637e-08 4.173118384187546e-08 -5.954971982191637e-08 1.0671265044948086e-05" pbc="T T T"
Au       2.15969626       1.52713472       3.74070259      -0.00000029       0.00000036      -0.00000001
Au       6.47908473       4.58140823      11.22210488      -0.00000006       0.00000023       0.00000001
Ge      -0.00000023      -0.00000056       0.00000107       0.00000649      -0.00000402      -0.00001638
Cl       1.84009180       1.30114229       7.48140363      -0.00046575      -0.00033408      -0.00000050
Cl       6.79868837       4.80739931       7.48140316       0.00046694       0.00032881      -0.00000052
Cl       5.55903927       1.30114164       5.33426665       0.00022632      -0.00032210      -0.00038761
Cl       3.07974118       4.80740001       9.62853832      -0.00023457       0.00033316       0.00040805
Cl       3.07974217       4.80739825       5.33426871      -0.00023398       0.00033233      -0.00040621
Cl       5.55903845       1.30114316       9.62853863       0.00023481      -0.00033459       0.00040329
