9
Lattice="7.121625835880071 1.3469004683477644e-07 4.111672379196569 2.3738753188448336 6.714332970020267 4.111672529484629 -2.9443517712972156e-08 1.632449786136826e-07 8.22334480939099" Properties=species:S:1:pos:R:3:forces:R:3 energy=-27.390918731689453 free_energy=-27.390918731689453 stress="-6.662514351774007e-05 3.8925822565261115e-08 -1.407465077818415e-08 3.8925822565261115e-08 -6.666759145446122e-05 2.1174795250544776e-08 -1.407465077818415e-08 2.1174795250544776e-08 -6.670223956461996e-05" pbc="T T T"
Au       2.37387554       1.67858345       4.11167228       0.00000056       0.00000023       0.00000036
Au       7.12162600       5.03575000      12.33501782      -0.00000044      -0.00000009       0.00000018
Hf      -0.00000071      -0.00000034      -0.00000132       0.00000601       0.00000373       0.00001547
I        2.31018337       1.63354611       8.22334432      -0.00037399      -0.00026524       0.00000055
I        7.18531788       5.08078750       8.22334426       0.00036860       0.00026064       0.00000032
I        5.96653387       1.63354648       6.11234962       0.00018673      -0.00026376      -0.00032187
I        3.52896664       5.08078740      10.33434085      -0.00018219       0.00025708       0.00031474
I        3.52896707       5.08078696       6.11234952      -0.00018520       0.00026214      -0.00032038
I        5.96653482       1.63354557      10.33434157       0.00017988      -0.00025474       0.00031051
