9
Lattice="6.646452114528746 -7.949876692732946e-08 3.837331028825419 2.215483922479564 6.26633531893447 3.8373310993969443 2.705418396055157e-08 1.0556229489078038e-07 7.674662010791544" Properties=species:S:1:pos:R:3:forces:R:3 energy=-30.453956604003906 free_energy=-30.453956604003906 stress="-0.00026378524489700794 -2.0723527782706697e-08 7.237985766295196e-09 -2.0723527782706697e-08 -0.000263778492808342 -1.2475732447114751e-08 7.237985766295196e-09 -1.2475732447114751e-08 -0.00026375168818049133" pbc="T T T"
Au       2.21548395       1.56658391       3.83733091       0.00000002      -0.00000010      -0.00000028
Au       6.64645222       4.69975151      11.51199311       0.00000013       0.00000018       0.00000005
Hf       0.00000022       0.00000080       0.00000071      -0.00000056      -0.00000980      -0.00000641
Br       2.14755082       1.51854734       7.67466202       0.00435890       0.00308265      -0.00000018
Br       6.71438513       4.74778739       7.67466202      -0.00435445      -0.00307877      -0.00000016
Br       5.57267691       1.51854735       5.69716429      -0.00217982       0.00308278       0.00377528
Br       3.28925939       4.74778748       9.65215960       0.00217556      -0.00307697      -0.00376859
Br       3.28925917       4.74778784       5.69716462       0.00217797      -0.00308009       0.00377239
Br       5.57267646       1.51854777       9.65215928      -0.00217772       0.00308014      -0.00377209
