9
Lattice="5.0929982885388085 1.1375816710537678e-07 2.940443941981548 1.6976661567589337 4.801725175018862 2.9404440228213358 2.468826413358787e-08 1.1646535009534207e-07 5.880887841201799" Properties=species:S:1:pos:R:3:forces:R:3 energy=-44.77317810058594 free_energy=-44.77317810058594 stress="-0.0005641828756779432 -2.992418757230553e-08 -3.24992832645421e-08 -2.992418757230553e-08 -0.0005641663447022438 3.2252247539332757e-09 -3.24992832645421e-08 3.2252247539332757e-09 -0.0005640999297611415" pbc="T T T"
Au       1.69766604       1.20043168       2.94044342       0.00000042       0.00000290      -0.00000259
Au       5.09299793       3.60129401       8.82133269      -0.00000234      -0.00000109       0.00000414
Hf      -0.00000004      -0.00000011      -0.00000016      -0.00000076       0.00000183      -0.00000456
F        1.64602578       1.16391605       5.88088793       0.00594914       0.00420633       0.00000010
F        5.14463897       3.63780919       5.88088782      -0.00594899      -0.00420710      -0.00000146
F        4.26998558       1.16391634       4.36594424      -0.00297260       0.00420518       0.00514990
F        2.52067933       3.63780888       7.39583163       0.00297235      -0.00420408      -0.00514889
F        2.52067933       3.63780915       4.36594403       0.00297548      -0.00420626       0.00515144
F        4.26998507       1.16391649       7.39583157      -0.00297287       0.00420240      -0.00514820
