9
Lattice="9.746536841013695 -8.094484135354627e-07 5.627164922088178 3.2488449804918815 9.189112487058292 5.627164696963679 9.373631971872216e-07 3.8709591829375207e-07 11.254328220615097" Properties=species:S:1:pos:R:3:forces:R:3 energy=-34.00017547607422 free_energy=-34.00017547607422 stress="-4.797921792487614e-05 1.3063821135972375e-08 -2.7882181008465068e-09 1.3063821135972375e-08 -4.801000977749936e-05 6.343296554689459e-09 -2.7882181008465068e-09 6.343296554689459e-09 -4.800087845069356e-05" pbc="T T T"
Au       3.24884063       2.29729392       5.62715693      -0.00000079      -0.00000088       0.00000104
Au       9.74653458       6.89183857      16.88148131       0.00000024      -0.00000066       0.00000132
Hf       0.00000104      -0.00000315       0.00000226      -0.00000376      -0.00000250       0.00000469
Cl       2.02116543       1.42917726      11.25433737       0.00241274       0.00170690      -0.00000364
Cl      10.97421672       7.75993131      11.25433333      -0.00240779      -0.00170565      -0.00000364
Cl       8.73595378       1.42917571       7.37754467      -0.00120562       0.00170672       0.00208995
Cl       4.25943190       7.75993259      15.13111600       0.00120619      -0.00170898      -0.00209078
Cl       4.25942634       7.75992808       7.37754548       0.00120744      -0.00170717       0.00209355
Cl       8.73596015       1.42917127      15.13111242      -0.00120881       0.00171220      -0.00209224
