9
Lattice="6.6514179035534555 2.307030140553546e-07 3.840197295496117 2.2171393529024046 6.271017201607975 3.8401975826544414 -1.263100094014985e-07 2.623809356955431e-07 7.68039480976777" Properties=species:S:1:pos:R:3:forces:R:3 energy=-34.16477584838867 free_energy=-34.16477584838867 stress="-6.668523565167561e-05 -2.4868313630577177e-08 4.977732448452343e-09 -2.4868313630577177e-08 -6.667038542218506e-05 6.142219621807499e-09 4.977732448452343e-09 6.142219621807499e-09 -6.666811532340944e-05" pbc="T T T"
Au       2.21713961       1.56775232       3.84019622      -0.00000046       0.00000178      -0.00000037
Au       6.65141710       4.70326243      11.52059296      -0.00000087       0.00000174      -0.00000085
Ir      -0.00000222       0.00001242      -0.00000561       0.00018250      -0.00086374       0.00042147
F        1.53764601       1.08728140       7.68039567       0.00044987       0.00033824      -0.00000943
F        7.33090760       5.18373401       7.68039474      -0.00020799      -0.00012644      -0.00000810
F        5.88259388       1.08728068       5.17183885      -0.00021595       0.00031710       0.00035849
F        2.98596530       5.18373545      10.18894888       0.00010966      -0.00014250      -0.00020534
F        2.98596597       5.18373311       5.17184444       0.00000454       0.00000644       0.00000405
F        5.88259538       1.08727889      10.18895330      -0.00032125       0.00046726      -0.00055984
