9
Lattice="6.2973773579666785 3.724283845785194e-08 3.63579246835401 2.0991258172280713 5.937224344436465 3.6357924750635076 -6.876932239036634e-09 3.3546983921865056e-09 7.271584948619182" Properties=species:S:1:pos:R:3:forces:R:3 energy=-23.282236099243164 free_energy=-23.282236099243164 stress="0.00017680117161944509 3.0860462629789254e-08 1.4648007251594208e-09 3.0860462629789254e-08 0.00017677021969575435 -4.232616035437786e-09 1.4648007251594208e-09 -4.232616035437786e-09 0.00017674853734206408" pbc="T T T"
Au       2.09912560       1.48430604       3.63579245      -0.00000009       0.00000003       0.00000001
Au       6.29737745       4.45291843      10.90737744      -0.00000003       0.00000003       0.00000019
Ir       0.00000019       0.00000017       0.00000010      -0.00000360      -0.00000259      -0.00000019
Br       2.03460976       1.43868633       7.27158495      -0.00345673      -0.00244401      -0.00000008
Br       6.36189331       4.49853795       7.27158495       0.00346014       0.00244629      -0.00000001
Br       5.28007255       1.43868628       5.39781586       0.00172751      -0.00244297      -0.00299076
Br       3.11643070       4.49853796       9.14535395      -0.00172776       0.00244340       0.00299082
Br       3.11643068       4.49853800       5.39781593      -0.00172753       0.00244313      -0.00299098
Br       5.28007243       1.43868636       9.14535390       0.00172806      -0.00244327       0.00299077
