9
Lattice="6.48658787083797 7.642862927175879e-08 3.74503328122726 2.162196060795764 6.115613582190512 3.7450332261615022 4.38875566862624e-08 -3.6408193376696035e-08 7.490066486438879" Properties=species:S:1:pos:R:3:forces:R:3 energy=-21.684001922607422 free_energy=-21.684001922607422 stress="1.3024715372011997e-05 2.7480796305212607e-08 5.952931481090218e-09 2.7480796305212607e-08 1.3014317119086627e-05 -1.0779832138041456e-08 5.952931481090218e-09 -1.0779832138041456e-08 1.298214374401141e-05" pbc="T T T"
Au       2.16219620       1.52890388       3.74503326      -0.00000004       0.00000048      -0.00000022
Au       6.48658782       4.58671020      11.23509987      -0.00000000       0.00000003      -0.00000015
Ir       0.00000019      -0.00000024      -0.00000058      -0.00000347       0.00000261       0.00000859
I        2.18241732       1.54320171       7.49006643       0.00057814       0.00040946       0.00000050
I        6.46636682       4.57241172       7.49006658      -0.00057705      -0.00040790       0.00000045
I        5.39537931       1.54320200       5.63506202      -0.00028883       0.00040783       0.00049885
I        3.25340437       4.57241188       9.34507140       0.00029293      -0.00041436      -0.00050717
I        3.25340455       4.57241159       5.63506185       0.00028928      -0.00040958       0.00050147
I        5.39537935       1.54320171       9.34507115      -0.00029092       0.00041146      -0.00050232
