9
Lattice="6.586969032957684 4.969667355560633e-09 3.8029881990426166 2.1956564194717085 6.210253518868828 3.802988076989929 1.6377622919613485e-07 -3.367611523476451e-08 7.605976114416376" Properties=species:S:1:pos:R:3:forces:R:3 energy=-22.659347534179688 free_energy=-22.659347534179688 stress="-9.445422620046884e-05 -4.99361885175631e-09 -3.890920030613643e-09 -4.99361885175631e-09 -9.445257455809042e-05 3.5702467648945913e-09 -3.890920030613643e-09 3.5702467648945913e-09 -9.445982141187415e-05" pbc="T T T"
Au       2.19565660       1.55256354       3.80298823       0.00000033       0.00000072       0.00000040
Au       6.58696895       4.65768944      11.40896498      -0.00000034      -0.00000018       0.00000101
Mn       0.00000034       0.00000140       0.00000086      -0.00000138      -0.00002070      -0.00001450
I        2.08256469       1.47259484       7.60597619       0.00265738       0.00187849      -0.00000063
I        6.70006028       4.73765846       7.60597623      -0.00264701      -0.00187241      -0.00000034
I        5.54568710       1.47259546       5.60654116      -0.00133006       0.00188212       0.00230497
I        3.23693908       4.73765749       9.60540992       0.00132129      -0.00186890      -0.00228851
I        3.23693870       4.73765814       5.60654150       0.00132571      -0.00187550       0.00229579
I        5.54568676       1.47259527       9.60541056      -0.00132592       0.00187634      -0.00229804
