9
Lattice="6.858904213178641 -3.0750123698714634e-07 3.959990172086401 2.286301237432212 6.466637856913139 3.9599899591234786 4.451707597427358e-07 5.3957724777076996e-08 7.919979573114364" Properties=species:S:1:pos:R:3:forces:R:3 energy=-27.507827758789062 free_energy=-27.507827758789062 stress="-0.00012057636195095256 9.324618410744279e-09 9.761621733161974e-09 9.324618410744279e-09 -0.00012053468526573852 1.3859369651925135e-08 9.761621733161974e-09 1.3859369651925135e-08 -0.00012052808597218245" pbc="T T T"
Au       2.28630016       1.61665862       3.95998742      -0.00000026      -0.00000008      -0.00000087
Au       6.85890387       4.84998094      11.87997094       0.00000039       0.00000025      -0.00000004
Mn       0.00000136      -0.00000150      -0.00000082      -0.00001174       0.00001877       0.00001620
Cl       1.78044248       1.25896318       7.91998124       0.00266090       0.00187585      -0.00000290
Cl       7.36476366       5.20767547       7.91998070      -0.00266296      -0.00188282      -0.00000117
Cl       5.96868434       1.25896152       5.50189912      -0.00132659       0.00187430       0.00229681
Cl       3.17652141       5.20767484      10.33806062       0.00133702      -0.00188458      -0.00230861
Cl       3.17652176       5.20767404       5.50189769       0.00133285      -0.00188202       0.00230363
Cl       5.96868452       1.25896285      10.33806217      -0.00132959       0.00188038      -0.00230297
