9
Lattice="9.76436312571458 -1.846754898836572e-06 5.637461100682742 3.2547873379724055 9.205928867250705 5.637458726840644 1.124255574690909e-06 -2.1123809845189347e-06 11.274920254097342" Properties=species:S:1:pos:R:3:forces:R:3 energy=-26.15263557434082 free_energy=-26.15263557434082 stress="-3.4731543564703315e-05 -1.0342134260099556e-08 2.4436992429599513e-09 -1.0342134260099556e-08 -3.472628304734826e-05 4.944918696736522e-09 2.4436992429599513e-09 4.944918696736522e-09 -3.4706990845734254e-05" pbc="T T T"
Au       3.25478949       2.30147757       5.63745813       0.00000092       0.00000029      -0.00000026
Au       9.76436217       6.90444491      16.91238107       0.00000008      -0.00000046       0.00000081
Mn      -0.00000001       0.00000076       0.00000051      -0.00000007      -0.00000902      -0.00001703
Br       1.87803246       1.32797006      11.27492003       0.00436905       0.00309221      -0.00000053
Br      11.14112004       7.87795497      11.27492150      -0.00436792      -0.00308768      -0.00000045
Br       8.82534528       1.32796786       7.26388490      -0.00218359       0.00308967       0.00378394
Br       4.19380561       7.87795937      15.28595413       0.00218064      -0.00308427      -0.00377212
Br       4.19380599       7.87796170       7.26388344       0.00218265      -0.00308803       0.00378166
Br       8.82534621       1.32796325      15.28595643      -0.00218178       0.00308730      -0.00377595
