9
Lattice="6.290814994343387 -3.237767650586689e-08 3.6320038926809612 2.096938289284906 5.931037646995068 3.632003912836744 -8.96765458977796e-08 -3.872521980150408e-08 7.264007940686281" Properties=species:S:1:pos:R:3:forces:R:3 energy=-17.69415855407715 free_energy=-17.69415855407715 stress="-0.00017569818010088056 -6.277073083538198e-09 5.283068649220013e-09 -6.277073083538198e-09 -0.00017568233306519687 1.077194111687163e-09 5.283068649220013e-09 1.077194111687163e-09 -0.00017570247291587293" pbc="T T T"
Au       2.09693853       1.48276017       3.63200417       0.00000014       0.00000185       0.00000049
Au       6.29081475       4.44827823      10.89601155      -0.00000003       0.00000035      -0.00000031
Mg      -0.00000019      -0.00000012       0.00000036       0.00000017       0.00000025       0.00000073
Br       2.15264061       1.52214678       7.26400773      -0.00107576      -0.00076078      -0.00000033
Br       6.23511261       4.40889024       7.26400765       0.00107729       0.00076112       0.00000028
Br       5.21449449       1.52214691       5.49624550       0.00053751      -0.00076173      -0.00093232
Br       3.17325879       4.40889047       9.03177028      -0.00053851       0.00076029       0.00093225
Br       3.17325862       4.40889083       5.49624537      -0.00053820       0.00076005      -0.00093211
Br       5.21449455       1.52214682       9.03177033       0.00053740      -0.00076149       0.00093113
