9
Lattice="9.797680179582075 2.312750168375828e-06 5.656695102022205 3.265895555400076 9.237342938024376 5.656695133677404 -1.0181910914921353e-06 -6.812004447655357e-07 11.313391967601843" Properties=species:S:1:pos:R:3:forces:R:3 energy=-30.146120071411133 free_energy=-30.146120071411133 stress="-2.808262979669962e-05 9.959657987224091e-09 9.032070202863451e-09 9.959657987224091e-09 -2.8044156351825222e-05 9.12364073180072e-10 9.032070202863451e-09 9.12364073180072e-10 -2.810243677231483e-05" pbc="T T T"
Au       3.26589647       2.30933092       5.65669302      -0.00000030      -0.00000015      -0.00000072
Au       9.79768055       6.92801316      16.97008588      -0.00000074      -0.00000022       0.00000040
Mo      -0.00000030      -0.00000022       0.00000121      -0.00000498       0.00000576      -0.00000200
Cl       1.89617059       1.34080311      11.31339407       0.00426006       0.00300661       0.00000003
Cl      11.16740366       7.89654050      11.31339088      -0.00425848      -0.00300553       0.00000184
Cl       8.84958779       1.34080230       7.29882864      -0.00212911       0.00300479       0.00369093
Cl       4.21398375       7.89654464      15.32795262       0.00213565      -0.00301260      -0.00369495
Cl       4.21398569       7.89654499       7.29883141       0.00212972      -0.00300790       0.00369397
Cl       8.84959014       1.34079860      15.32795038      -0.00213186       0.00300916      -0.00368947
