9
Lattice="4.6800114329618605 -3.0356056917331615e-08 2.702005849758239 1.5600037293468128 4.412357190689528 2.702005941592491 -5.8107944592268117e-08 7.138498012395297e-08 5.404011800162466" Properties=species:S:1:pos:R:3:forces:R:3 energy=-35.93255615234375 free_energy=-35.93255615234375 stress="0.00013550381117966026 -6.459444534812064e-08 -1.913351788118689e-08 -6.459444534812064e-08 0.00013556420162785798 4.2239161501811395e-08 -1.913351788118689e-08 4.2239161501811395e-08 0.00013561661762651056" pbc="T T T"
Au       1.56000368       1.10308985       2.70200583      -0.00000007       0.00000247      -0.00000070
Au       4.68001062       3.30926776       8.10601835      -0.00000319      -0.00000039       0.00000324
Mn      -0.00000009      -0.00000014      -0.00000045       0.00000464       0.00000574       0.00001199
F        1.51166200       1.06890623       5.40401185      -0.00049653      -0.00035273      -0.00000029
F        4.72835351       3.34345099       5.40401141       0.00049183       0.00034770      -0.00000124
F        3.92418047       1.06890684       4.01114362       0.00025240      -0.00035698      -0.00043731
F        2.31583496       3.34345044       6.79688011      -0.00024797       0.00035089       0.00043018
F        2.31583492       3.34345058       4.01114337      -0.00024935       0.00035343      -0.00043394
F        3.92418031       1.06890631       6.79688021       0.00024829      -0.00034995       0.00042789
