9
Lattice="6.756877240108846 3.871794696773654e-09 3.901084856496127 2.252292405336964 6.3704449034899016 3.9010848767316384 2.3455473282642413e-08 4.1368880285555135e-08 7.802169672366153" Properties=species:S:1:pos:R:3:forces:R:3 energy=-15.945910453796387 free_energy=-15.945910453796387 stress="-3.6509951314656064e-05 3.838606321693305e-09 6.1811977758452485e-09 3.838606321693305e-09 -3.650784128694795e-05 -6.266381857855663e-10 6.1811977758452485e-09 -6.266381857855663e-10 -3.651139559224248e-05" pbc="T T T"
Au       2.25229252       1.59261122       3.90108477       0.00000010       0.00000000      -0.00000018
Au       6.75687720       4.77783363      11.70325463      -0.00000000      -0.00000012       0.00000003
Mg       0.00000015       0.00000004      -0.00000011      -0.00000057      -0.00000004       0.00000034
I        2.36974711       1.67566426       7.80216973      -0.00045411      -0.00032076      -0.00000003
I        6.63942224       4.69478056       7.80216967       0.00045453       0.00032127       0.00000025
I        5.57200346       1.67566461       5.95334645       0.00022704      -0.00032145      -0.00039366
I        3.43716610       4.69478045       9.65099309      -0.00022689       0.00032088       0.00039306
I        3.43716613       4.69478055       5.95334626      -0.00022769       0.00032163      -0.00039379
I        5.57200377       1.67566446       9.65099316       0.00022767      -0.00032145       0.00039393
