9
Lattice="6.721637299640085 -1.4871426736557114e-07 3.8807392977633777 2.2405455609257072 6.337220786849643 3.880739411059959 -1.1217815545757841e-07 5.9437596827652486e-08 7.761478789825015" Properties=species:S:1:pos:R:3:forces:R:3 energy=-23.91758155822754 free_energy=-23.91758155822754 stress="1.1959512448811438e-05 -3.5393451724985425e-08 -8.418211905336648e-09 -3.5393451724985425e-08 1.1979298506048508e-05 1.9794283545593316e-08 -8.418211905336648e-09 1.9794283545593316e-08 1.1999935850326438e-05" pbc="T T T"
Au       2.24054567       1.58430526       3.88073936       0.00000019      -0.00000021      -0.00000027
Au       6.72163691       4.75291540      11.64221800      -0.00000063      -0.00000023      -0.00000046
Mo       0.00000002      -0.00000050       0.00000057      -0.00000077       0.00000255      -0.00000575
I        2.24927279       1.59047612       7.76147868      -0.00328019      -0.00231898      -0.00000070
I        6.71290991       4.74674461       7.76147883       0.00328061       0.00231960       0.00000010
I        5.59700040       1.59047666       5.82866759       0.00164168      -0.00232166      -0.00284374
I        3.36518269       4.74674369       9.69428975      -0.00164334       0.00232370       0.00284630
I        3.36518235       4.74674444       5.82866746      -0.00164047       0.00231861      -0.00284070
I        5.59700029       1.59047706       9.69428969       0.00164296      -0.00232351       0.00284538
