9
Lattice="4.598289457830316 2.9473333172036166e-08 2.654823660547862 1.5327631416669572 4.33530901796242 2.6548237276316327 -5.188866052144668e-08 4.546963191731762e-08 5.309647410969533" Properties=species:S:1:pos:R:3:forces:R:3 energy=-28.665340423583984 free_energy=-28.665340423583984 stress="0.0005422507529146969 -4.6531980046893295e-08 -6.1649609861547106e-09 -4.6531980046893295e-08 0.0005422348040156066 6.788418716041633e-08 -6.1649609861547106e-09 6.788418716041633e-08 0.0005423183320090175" pbc="T T T"
Au       1.53276250       1.08382681       2.65482388      -0.00000622      -0.00000112      -0.00000066
Au       4.59828905       3.25148217       7.96447070      -0.00000417       0.00000118      -0.00000274
Ni      -0.00000101      -0.00000073      -0.00000095       0.00003371       0.00002454       0.00003369
F        1.50836506       1.06657534       5.30964743      -0.00776204      -0.00549015       0.00000072
F        4.62268859       3.26873414       5.30964748       0.00773104       0.00546639       0.00000162
F        3.84410707       1.06657524       3.96110623       0.00388219      -0.00549057      -0.00672072
F        2.28694550       3.26873455       6.65818908      -0.00386795       0.00547531       0.00670403
F        2.28694587       3.26873392       3.96110611      -0.00387705       0.00548632      -0.00671709
F        3.84410756       1.06657491       6.65818920       0.00387031      -0.00547186       0.00670078
