9
Lattice="9.688062531379943 -1.0863641671328525e-06 5.593403418258911 3.229352580016837 9.133992301567305 5.593404410508504 -8.341523421465523e-07 6.254184914071782e-07 11.186808281311917" Properties=species:S:1:pos:R:3:forces:R:3 energy=-44.551918029785156 free_energy=-44.551918029785156 stress="-8.124939085973892e-06 -6.788950202007982e-08 -1.087435279600868e-07 -6.788950202007982e-08 -8.085876288532745e-06 1.4449761920332094e-07 -1.087435279600868e-07 1.4449761920332094e-07 -8.038752639549784e-06" pbc="T T T"
Au       3.22935537       2.28349717       5.59340391       0.00000084      -0.00000084       0.00000086
Au       9.68806587       6.85049451      16.78021310       0.00000007      -0.00000058      -0.00000048
Nb      -0.00001725       0.00004855      -0.00001547       0.00078299      -0.00242188       0.00071499
F        1.58906143       1.12363772      11.18680713       0.00169504       0.00130075      -0.00002247
F       11.32834046       8.01034346      11.18680682      -0.00125259      -0.00078630      -0.00002325
F        8.89353012       1.12363418       6.96957437      -0.00092679       0.00135553       0.00153524
F        4.02389295       8.01034306      15.40402735       0.00047892      -0.00063652      -0.00090277
F        4.02389582       8.01033827       6.96958969       0.00035146      -0.00045431       0.00063300
F        8.89353290       1.12362775      15.40405205      -0.00112998       0.00164402      -0.00193512
