9
Lattice="7.430477075852969 3.089486793291887e-08 4.289987796673757 2.4768257867814008 7.005521615011166 4.289987682874021 -1.9218147401262417e-07 -2.7526848322299064e-07 8.579975926215493" Properties=species:S:1:pos:R:3:forces:R:3 energy=-31.970144271850586 free_energy=-31.970144271850586 stress="-1.6403084373450838e-05 3.728177766504359e-09 -9.296442726736132e-09 3.728177766504359e-09 -1.638146204641089e-05 4.288840926847115e-08 -9.296442726736132e-09 4.288840926847115e-08 -1.6412848708569072e-05" pbc="T T T"
Au       2.47682655       1.75138175       4.28999062      -0.00000017      -0.00000006      -0.00000016
Au       7.43047643       5.25414300      12.86996224       0.00000003      -0.00000021       0.00000007
Nb      -0.00000012      -0.00000090       0.00000027       0.00000019       0.00000551      -0.00000414
Cl       1.94016663       1.37190529       8.57997668      -0.00161526      -0.00114465      -0.00000144
Cl       7.96713514       5.63361667       8.57997453       0.00161412       0.00114101       0.00000107
Cl       6.46039366       1.37190529       5.97022183       0.00080749      -0.00114447      -0.00139952
Cl       3.44690912       5.63361420      11.18972988      -0.00080858       0.00114608       0.00140050
Cl       3.44690925       5.63361539       5.97022122      -0.00080515       0.00113806      -0.00139287
Cl       6.46039373       1.37190478      11.18972936       0.00080736      -0.00114125       0.00139633
