9
Lattice="6.141132786007505 -7.456189349298204e-09 3.5455845673241666 2.0470442715464183 5.789915297533985 3.5455845386177285 -2.712439697799308e-08 -5.4337928131332515e-08 7.091169181629164" Properties=species:S:1:pos:R:3:forces:R:3 energy=-19.554676055908203 free_energy=-19.554676055908203 stress="-0.00023745578073430806 -4.385594554179306e-09 5.772671229919979e-09 -4.385594554179306e-09 -0.00023744006466586143 -1.4133115788794726e-09 5.772671229919979e-09 -1.4133115788794726e-09 -0.00023743111523799598" pbc="T T T"
Au       2.04704427       1.44747890       3.54558467      -0.00000038      -0.00000052       0.00000018
Au       6.14113253       4.34243630      10.63675422      -0.00000037       0.00000031       0.00000048
Ni       0.00000002      -0.00000006      -0.00000029      -0.00000086       0.00000217      -0.00000049
Br       1.95321133       1.38112886       7.09116915       0.00007859       0.00005558      -0.00000053
Br       6.23496576       4.40878625       7.09116926      -0.00007895      -0.00005618      -0.00000031
Br       5.16452720       1.38112894       5.23711509      -0.00003910       0.00005561       0.00006711
Br       3.02364973       4.40878657       8.94522297       0.00003989      -0.00005597      -0.00006789
Br       3.02365018       4.40878638       5.23711492       0.00003989      -0.00005606       0.00006765
Br       5.16452717       1.38112871       8.94522318      -0.00003870       0.00005516      -0.00006646
