9
Lattice="5.927974034299757 -9.278531879946167e-08 3.4225176278626037 1.9759913207646664 5.58894644977968 3.422517517917276 3.063110409727522e-07 8.193971577908456e-08 6.845034725178566" Properties=species:S:1:pos:R:3:forces:R:3 energy=-20.554718017578125 free_energy=-20.554718017578125 stress="-2.2367848941939883e-05 1.35690347846662e-08 2.9559774628040714e-09 1.35690347846662e-08 -2.2265134248300456e-05 7.551050451581887e-09 2.9559774628040714e-09 7.551050451581887e-09 -2.2351981897372752e-05" pbc="T T T"
Au       1.97599032       1.39723569       3.42251842      -0.00000542      -0.00000155       0.00000316
Au       5.92797233       4.19171067      10.26755156      -0.00000497       0.00000048      -0.00000385
Ni       0.00000018      -0.00000060      -0.00000018       0.00000208       0.00000414      -0.00000131
Cl       1.87054187       1.32267346       6.84503498       0.00591481       0.00417995      -0.00000169
Cl       6.03342583       4.26627307       6.84503554      -0.00591883      -0.00418699      -0.00000020
Cl       4.99270392       1.32267290       5.04245346      -0.00295918       0.00418326       0.00512332
Cl       2.91126424       4.26627499       8.64761582       0.00296274      -0.00418088      -0.00511983
Cl       2.91126066       4.26627440       5.04245415       0.00296341      -0.00418249       0.00512490
Cl       4.99270334       1.32267071       8.64761601      -0.00295468       0.00418371      -0.00512502
