9
Lattice="6.781992489614398 -3.086245603818631e-08 3.915585379976333 2.260664090453709 6.394123925428386 3.915585455586621 -2.9487437333029104e-08 7.175252874847269e-08 7.831170811026454" Properties=species:S:1:pos:R:3:forces:R:3 energy=-28.428842544555664 free_energy=-28.428842544555664 stress="-0.00018881383584812284 -2.8418694952847545e-08 -1.8321600236959057e-08 -2.8418694952847545e-08 -0.00018877892580348998 1.9504319936913816e-08 -1.8321600236959057e-08 1.9504319936913816e-08 -0.00018874352099373937" pbc="T T T"
Au       2.26066390       1.59853098       3.91558538      -0.00000018      -0.00000012      -0.00000005
Au       6.78199245       4.79559310      11.74675570       0.00000027       0.00000009      -0.00000034
Nb       0.00000020      -0.00000016       0.00000030       0.00000191      -0.00000423      -0.00000330
Br       2.06960922       1.46343490       7.83117085       0.00712082       0.00503395       0.00000035
Br       6.97304685       4.93068910       7.83117081      -0.00711884      -0.00503466      -0.00000059
Br       5.74718799       1.46343489       5.70792025      -0.00355857       0.00503258       0.00616355
Br       3.29546917       4.93068900       9.95442102       0.00355507      -0.00502843      -0.00615701
Br       3.29546858       4.93068906       5.70792040       0.00355850      -0.00503214       0.00616172
Br       5.74718786       1.46343499       9.95442180      -0.00355905       0.00503292      -0.00616421
