9
Lattice="5.9199115555374755 5.1766521418536256e-08 3.41786291857442 1.973303919042709 5.581346679864945 3.4178628867204015 -8.695238335528167e-08 -1.0049769899062378e-07 6.835725987754721" Properties=species:S:1:pos:R:3:forces:R:3 energy=-20.554689407348633 free_energy=-20.554689407348633 stress="-0.0003195184108335525 -1.711446451224674e-08 -1.2397845416955988e-08 -1.711446451224674e-08 -0.00031953639700077474 2.214072125639177e-08 -1.2397845416955988e-08 2.214072125639177e-08 -0.000319536542519927" pbc="T T T"
Au       1.97330652       1.39533727       3.41786515       0.00001048       0.00000039       0.00000493
Au       5.91991318       4.18600809      10.25358609       0.00000578      -0.00000442      -0.00000720
Ni      -0.00000041       0.00000010       0.00000012       0.00000108       0.00000175      -0.00000047
Cl       1.87048245       1.32263220       6.83572654       0.00530961       0.00376093      -0.00000231
Cl       6.02273258       4.25871438       6.83572684      -0.00531629      -0.00375870       0.00000251
Cl       4.98466699       1.32263157       5.03774774      -0.00266258       0.00375786       0.00459740
Cl       2.90854584       4.25871527       8.63370330       0.00265765      -0.00375691      -0.00460154
Cl       2.90854459       4.25871583       5.03774976       0.00265336      -0.00375819       0.00460565
Cl       4.98466992       1.32263183       8.63370165      -0.00265908       0.00375703      -0.00459945
