9
Lattice="6.419341408833576 9.117507498979834e-08 3.7062083726710955 2.139780556816235 6.052213144119768 3.7062083705160074 2.614387387216051e-08 1.584705361416556e-08 7.41241670005974" Properties=species:S:1:pos:R:3:forces:R:3 energy=-18.028532028198242 free_energy=-18.028532028198242 stress="0.00010615389328449965 6.068842317574763e-09 -7.865365247994305e-09 6.068842317574763e-09 0.00010615493374643847 1.0275756245903267e-08 -7.865365247994305e-09 1.0275756245903267e-08 0.00010618878877721727" pbc="T T T"
Au       2.13978052       1.51305336       3.70620837       0.00000010       0.00000009       0.00000016
Au       6.41934158       4.53916001      11.11862465      -0.00000003      -0.00000039      -0.00000063
Ni      -0.00000003      -0.00000016      -0.00000014      -0.00000064       0.00000004      -0.00000068
I        2.17338893       1.53681823       7.41241679       0.00340946       0.00241031       0.00000006
I        6.38573299       4.51539513       7.41241698      -0.00340927      -0.00241055       0.00000006
I        5.33264704       1.53681793       5.58841826      -0.00170461       0.00241059       0.00295292
I        3.22647484       4.51539526       9.23641533       0.00170453      -0.00241011      -0.00295225
I        3.22647484       4.51539495       5.58841808       0.00170498      -0.00241062       0.00295314
I        5.33264718       1.53681825       9.23641548      -0.00170446       0.00241067      -0.00295289
