9
Lattice="4.597498958182014 -2.7016236349312028e-08 2.654367082362979 1.5324996444737715 4.334563768782621 2.6543670525412457 -2.640880495111221e-09 -3.839140176910677e-08 5.308734169300081" Properties=species:S:1:pos:R:3:forces:R:3 energy=-28.665367126464844 free_energy=-28.665367126464844 stress="-1.1043592166970484e-05 -4.926164809404554e-09 5.195700225613109e-08 -4.926164809404554e-09 -1.10738665171084e-05 -1.2244323777110822e-08 5.195700225613109e-08 -1.2244323777110822e-08 -1.102376791095594e-05" pbc="T T T"
Au       1.53250051       1.08364051       2.65436801       0.00000590      -0.00000213       0.00000471
Au       4.59749920       3.25092257       7.96310020       0.00000143      -0.00000128      -0.00000465
Ni      -0.00000006      -0.00000003      -0.00000005      -0.00000133       0.00000412       0.00000394
F        1.50771144       1.06611282       5.30873413       0.00190324       0.00134726      -0.00000151
F        4.62228706       3.26845104       5.30873445      -0.00190763      -0.00134596       0.00000100
F        3.84364264       1.06611290       3.96008315      -0.00095414       0.00134590       0.00164668
F        2.28635540       3.26845098       6.65738479       0.00095428      -0.00134690      -0.00165242
F        2.28635506       3.26845062       3.96008338       0.00094967      -0.00134733       0.00164977
F        3.84364326       1.06611331       6.65738499      -0.00095142       0.00134644      -0.00164729
