9
Lattice="6.945180548554957 -9.64078351109737e-08 4.009802059549426 2.3150602088720276 6.547978959939546 4.009801857047466 1.7608967889956858e-07 -1.234990274336308e-07 8.019603814102664" Properties=species:S:1:pos:R:3:forces:R:3 energy=-25.086284637451172 free_energy=-25.086284637451172 stress="8.863025868777186e-05 -1.7353803727360173e-08 1.7755382941686548e-08 -1.7353803727360173e-08 8.86463894858025e-05 -3.310015017632395e-08 1.7755382941686548e-08 -3.310015017632395e-08 8.865479321684688e-05" pbc="T T T"
Au       2.31506010       1.63699465       4.00980172      -0.00000032      -0.00000009      -0.00000032
Au       6.94518060       4.91098388      12.02940552      -0.00000000       0.00000003      -0.00000042
Nb      -0.00000032      -0.00000007      -0.00000056       0.00000503      -0.00000043       0.00000449
I        2.25121980       1.59185259       8.01960400      -0.00240234      -0.00169878       0.00000036
I        7.00902150       4.95612667       8.01960421       0.00239895       0.00169569      -0.00000030
I        5.81957111       1.59185198       5.95941534       0.00120059      -0.00169665      -0.00207862
I        3.44067034       4.95612624      10.07979246      -0.00120014       0.00169750       0.00207867
I        3.44067015       4.95612608       5.95941624      -0.00120322       0.00170187      -0.00208449
I        5.81957064       1.59185290      10.07979206       0.00120148      -0.00169910       0.00208071
