9
Lattice="6.419561624323323 8.409281464581105e-09 3.7063355570306515 2.139853895606646 6.052420674512382 3.7063355346805165 8.103933098570496e-09 -2.164285100135031e-08 7.412671100024843" Properties=species:S:1:pos:R:3:forces:R:3 energy=-18.028535842895508 free_energy=-18.028535842895508 stress="0.0001380086032440886 4.7701580463410664e-09 9.777306075875458e-09 4.7701580463410664e-09 0.00013799447333440185 -7.16777881493158e-09 9.777306075875458e-09 -7.16777881493158e-09 0.0001380004541715607" pbc="T T T"
Au       2.13985387       1.51310513       3.70633565       0.00000032       0.00000026      -0.00000007
Au       6.41956179       4.53931552      11.11900642       0.00000056       0.00000033      -0.00000045
Ni       0.00000027       0.00000008      -0.00000019      -0.00000059      -0.00000082      -0.00000037
I        2.17381502       1.53711923       7.41267121       0.00070469       0.00049788       0.00000050
I        6.38560037       4.51530129       7.41267118      -0.00070401      -0.00049812       0.00000029
I        5.33265399       1.53711935       5.58891437      -0.00035213       0.00049768       0.00061058
I        3.22676133       4.51530139       9.23642777       0.00035159      -0.00049767      -0.00061002
I        3.22676135       4.51530143       5.58891444       0.00035215      -0.00049780       0.00060987
I        5.33265412       1.53711924       9.23642788      -0.00035257       0.00049825      -0.00061022
