9
Lattice="6.144331441408362 -6.930615768964345e-08 3.5474312286505207 2.0481104270316317 5.792931070969533 3.5474312080310475 2.9675512950902163e-08 -4.2698996825991075e-09 7.0948624059016865" Properties=species:S:1:pos:R:3:forces:R:3 energy=-19.554716110229492 free_energy=-19.554716110229492 stress="-4.515101682045497e-05 1.2849302954975883e-08 -5.836156002914095e-09 1.2849302954975883e-08 -4.517749766819179e-05 1.0885539580840486e-08 -5.836156002914095e-09 1.0885539580840486e-08 -4.520909351413138e-05" pbc="T T T"
Au       2.04811028       1.44823276       3.54743131       0.00000002      -0.00000008      -0.00000013
Au       6.14433146       4.34469831      10.64229357       0.00000009      -0.00000010      -0.00000004
Ni       0.00000041      -0.00000045      -0.00000049      -0.00000568       0.00000747       0.00000782
Br       1.95296904       1.38095755       7.09486243       0.00272551       0.00192851       0.00000051
Br       6.23947307       4.41197347       7.09486238      -0.00272578      -0.00192839       0.00000002
Br       5.16784687       1.38095749       5.23875194      -0.00136037       0.00192544       0.00235772
Br       3.02459469       4.41197378       8.95097347       0.00136618      -0.00193283      -0.00236693
Br       3.02459471       4.41197379       5.23875144       0.00136369      -0.00192943       0.00236332
Br       5.16784714       1.38095724       8.95097318      -0.00136389       0.00192937      -0.00236252
