9
Lattice="6.538432137262192 -4.102447091917254e-07 3.774966038859044 2.1794772971540626 6.164490849733662 3.774965510844881 9.677445115370234e-07 3.7616024395343594e-08 7.549930401535339" Properties=species:S:1:pos:R:3:forces:R:3 energy=-28.012989044189453 free_energy=-28.012989044189453 stress="1.370895370200742e-05 -2.5572443718147042e-08 1.1945703093374505e-08 -2.5572443718147042e-08 1.3718263289774768e-05 1.0650636816933456e-08 1.1945703093374505e-08 1.0650636816933456e-08 1.374061048409203e-05" pbc="T T T"
Au       2.17947915       1.54112126       3.77496405       0.00000019      -0.00000015       0.00000001
Au       6.53843271       4.62336856      11.32490005       0.00000016      -0.00000002       0.00000007
Os      -0.00000020      -0.00000040      -0.00000044       0.00000266       0.00000336       0.00000032
Cl       1.88787806       1.33493197       7.54993076       0.00286126       0.00202116      -0.00000046
Cl       6.83003084       4.82955961       7.54993073      -0.00286150      -0.00202507       0.00000055
Cl       5.59449313       1.33493088       5.40991562      -0.00142977       0.00202087       0.00247616
Cl       3.12341751       4.82955874       9.68994582       0.00142860      -0.00202060      -0.00247473
Cl       3.12341591       4.82955994       5.40991586       0.00142792      -0.00202128       0.00247461
Cl       5.59449414       1.33493050       9.68994572      -0.00142956       0.00202143      -0.00247669
