9
Lattice="6.549020272195892 1.0020972309311109e-07 3.7810784774183412 2.183006843784271 6.174475453887057 3.781078491435915 -2.3868934278240856e-08 2.8996846840696154e-10 7.562156996179034" Properties=species:S:1:pos:R:3:forces:R:3 energy=-22.847009658813477 free_energy=-22.847009658813477 stress="-0.0001838345342548564 8.332203371708147e-09 3.6600455999291626e-09 8.332203371708147e-09 -0.0001838623284129426 1.0214554757581595e-09 3.6600455999291626e-09 1.0214554757581595e-09 -0.00018383994756732136" pbc="T T T"
Au       2.18300656       1.54361850       3.78107857       0.00000021      -0.00000020       0.00000014
Au       6.54902030       4.63085687      11.34323486      -0.00000027      -0.00000005      -0.00000075
Os      -0.00000012      -0.00000025       0.00000005       0.00000259       0.00000305      -0.00000372
I        2.19618009       1.55293392       7.56215711       0.00444433       0.00314242       0.00000042
I        6.53584731       4.62154209       7.56215750      -0.00444698      -0.00314526      -0.00000041
I        5.45093021       1.55293386       5.68302603      -0.00222285       0.00314397       0.00385118
I        3.28109716       4.62154172       9.44128790       0.00222159      -0.00314179      -0.00384876
I        3.28109674       4.62154150       5.68302601       0.00222252      -0.00314383       0.00385089
I        5.45093009       1.55293409       9.44128783      -0.00222132       0.00314164      -0.00384915
