9
Lattice="9.645526075379454 -7.486124086882628e-07 5.568845912460946 3.2151743808431856 9.093892617227397 5.568846383264075 -1.0104258540157854e-06 -1.3786555799318327e-07 11.13769357503095" Properties=species:S:1:pos:R:3:forces:R:3 energy=-38.42078399658203 free_energy=-38.42078399658203 stress="-3.879611540469341e-06 8.955527874832114e-09 2.36716033441553e-08 8.955527874832114e-09 -3.904425284417812e-06 -5.661868485162813e-08 2.36716033441553e-08 -5.661868485162813e-08 -3.928413207177073e-06" pbc="T T T"
Au       3.21517622       2.27347606       5.56884414       0.00000026      -0.00000000      -0.00000031
Au       9.64551802       6.82041493      16.70653292       0.00000023      -0.00000026      -0.00000030
Os       0.00001787       0.00002375      -0.00000730      -0.00109603      -0.00144771       0.00046858
F        1.53967360       1.08871153      11.13769316       0.00123487       0.00089186      -0.00001141
F       11.32100650       8.00516522      11.13769677       0.00003773       0.00004083      -0.00001889
F        8.87568343       1.08872061       6.90224753      -0.00029496       0.00048940       0.00054698
F        3.98501847       8.00516868      15.37314006       0.00031587      -0.00038784      -0.00053243
F        3.98501700       8.00517045       6.90225709       0.00019814      -0.00021137       0.00029162
F        8.87568566       1.08871645      15.37313698      -0.00039613       0.00062513      -0.00074398
