9
Lattice="6.408009192081183 -8.037374981336235e-08 3.6996659007185877 2.136003026041095 6.041529002417016 3.699665835262496 7.423488072317304e-08 -2.767504605996097e-08 7.399331672858618" Properties=species:S:1:pos:R:3:forces:R:3 energy=-25.22783088684082 free_energy=-25.22783088684082 stress="0.00030790080199949443 -1.0505145198180799e-08 1.2258797532638255e-08 -1.0505145198180799e-08 0.0003079130547121167 -9.820088742173994e-09 1.2258797532638255e-08 -9.820088742173994e-09 0.00030792030156590044" pbc="T T T"
Au       2.13600311       1.51038229       3.69966585      -0.00000012      -0.00000003      -0.00000012
Au       6.40800926       4.53114652      11.09899778      -0.00000004      -0.00000005       0.00000015
Os      -0.00000034       0.00000022      -0.00000078       0.00000480      -0.00000347       0.00001485
Br       2.02630938       1.43281718       7.39933184      -0.00611153      -0.00432210      -0.00000021
Br       6.51770306       4.60871180       7.39933185       0.00610989       0.00432087      -0.00000002
Br       5.39485439       1.43281730       5.45450129       0.00305666      -0.00432365      -0.00529450
Br       3.14915762       4.60871202       9.34416213      -0.00305372       0.00431937       0.00528988
Br       3.14915810       4.60871142       5.45450164      -0.00305937       0.00432751      -0.00529921
Br       5.39485464       1.43281687       9.34416221       0.00305352      -0.00431864       0.00528905
