9
Lattice="6.603670758428106 -1.4927241184320232e-07 3.8126311430154343 2.2012236160765775 6.226000470256174 3.8126308474077835 3.725302247086567e-09 -3.5940989139694975e-07 7.625262279578535" Properties=species:S:1:pos:R:3:forces:R:3 energy=-23.335344314575195 free_energy=-23.335344314575195 stress="1.939608591783326e-05 -6.557935083861821e-09 1.8314565863875032e-08 -6.557935083861821e-09 1.9426201106398366e-05 -8.130069062417533e-09 1.8314565863875032e-08 -8.130069062417533e-09 1.9369690562598407e-05" pbc="T T T"
Au       2.20122287       1.55649956       3.81263094      -0.00000003      -0.00000034       0.00000000
Au       6.60367065       4.66950093      11.43789291       0.00000032       0.00000020      -0.00000018
P        0.00000004      -0.00000021      -0.00000025       0.00000197      -0.00000003       0.00001246
Cl       1.76215705       1.24603251       7.62526217      -0.00165188      -0.00116909      -0.00000032
Cl       7.04273806       4.97996721       7.62526142       0.00164956       0.00116897       0.00000080
Cl       5.72259205       1.24603303       5.33870304       0.00082695      -0.00117040      -0.00143081
Cl       3.08230186       4.97996625       9.91182102      -0.00082365       0.00116867       0.00142568
Cl       3.08230216       4.97996704       5.33870343      -0.00082812       0.00117123      -0.00143307
Cl       5.72259291       1.24603342       9.91182177       0.00082487      -0.00116920       0.00142533
