9
Lattice="5.0427100673388665 5.4421303108675706e-08 2.9114099418293624 1.680903392892582 4.7543130419293 2.9114099664174224 -5.258984255740116e-08 -7.072544569744198e-09 5.822819974747015" Properties=species:S:1:pos:R:3:forces:R:3 energy=-30.199628829956055 free_energy=-30.199628829956055 stress="0.000287886883597821 2.2131517951606838e-08 4.6753758198292417e-08 2.2131517951606838e-08 0.0002878678496927023 -6.030289512182208e-08 4.6753758198292417e-08 -6.030289512182208e-08 0.00028784439200535417" pbc="T T T"
Au       1.68090363       1.18857864       2.91140984       0.00000150       0.00000110      -0.00000008
Au       5.04270961       3.56573476       8.73422966      -0.00000124      -0.00000011      -0.00000058
Pt       0.00000007       0.00000019      -0.00000026      -0.00000305      -0.00001227       0.00002834
F        1.60283367       1.13337479       5.82282012      -0.00698385      -0.00493837      -0.00000067
F        5.12077989       3.62093831       5.82282014       0.00698864       0.00494150      -0.00000176
F        4.24129311       1.13337444       4.29950422       0.00349353      -0.00493943      -0.00605098
F        2.48232020       3.62093846       7.34613543      -0.00348859       0.00493464       0.00604259
F        2.48232022       3.62093811       4.29950456      -0.00349651       0.00494754      -0.00605981
F        4.24129306       1.13337452       7.34613553       0.00348959      -0.00493462       0.00604286
