9
Lattice="6.216397657014779 -1.7813586782898937e-07 3.5890387159523107 2.0721324705497435 5.860875573883716 3.5890385667194615 5.884101869451501e-08 -1.4116526921221815e-07 7.178077329988995" Properties=species:S:1:pos:R:3:forces:R:3 energy=-20.66284942626953 free_energy=-20.66284942626953 stress="-0.00025946678943000734 6.059438284466978e-09 -2.443472091329113e-08 6.059438284466978e-09 -0.00025945439119823277 2.1884545731154503e-08 -2.443472091329113e-08 2.1884545731154503e-08 -0.0002594422549009323" pbc="T T T"
Au       2.07213287       1.46521890       3.58903884       0.00000019       0.00000044       0.00000020
Au       6.21639767       4.39565642      10.76711607       0.00000063       0.00000044      -0.00000039
Pb      -0.00000001       0.00000045      -0.00000015      -0.00000167      -0.00000332      -0.00000430
Cl       2.06688946       1.46151154       7.17807832       0.00698894       0.00494224      -0.00000044
Cl       6.22164126       4.39936364       7.17807771      -0.00698745      -0.00494012       0.00000136
Cl       5.18295251       1.46151138       5.37901712      -0.00349523       0.00494253       0.00605251
Cl       3.10557705       4.39936401       8.97713708       0.00349416      -0.00494126      -0.00605072
Cl       3.10557698       4.39936392       5.37901679       0.00349576      -0.00494431       0.00605546
Cl       5.18295296       1.46151083       8.97713681      -0.00349534       0.00494331      -0.00605352
