9
Lattice="6.404786025796757 -1.285416132595418e-07 3.6978049781858133 2.134928573489501 6.0384900937456925 3.697804944559529 2.106822473220432e-08 -2.6286099345735837e-08 7.3956099198803615" Properties=species:S:1:pos:R:3:forces:R:3 energy=-18.508441925048828 free_energy=-18.508441925048828 stress="0.00019172049360349774 -1.049800157915115e-08 -8.805431939151731e-09 -1.049800157915115e-08 0.00019173171313013881 7.583875749617164e-09 -8.805431939151731e-09 7.583875749617164e-09 0.0001917085173772648" pbc="T T T"
Au       2.13492863       1.50962245       3.69780499       0.00000042       0.00000037      -0.00000004
Au       6.40478624       4.52886727      11.09341490       0.00000027      -0.00000053       0.00000076
Pb       0.00000053      -0.00000055       0.00000041      -0.00000202       0.00000104       0.00000082
Br       2.23598678       1.58108166       7.39560994      -0.00428865      -0.00303309      -0.00000014
Br       6.30372787       4.45740879       7.39560992       0.00428834       0.00303188      -0.00000077
Br       5.28679240       1.58108163       5.63422643       0.00214475      -0.00303248      -0.00371441
Br       3.25292197       4.45740855       9.15699307      -0.00214430       0.00303298       0.00371394
Br       3.25292164       4.45740847       5.63422633      -0.00214272       0.00303172      -0.00371307
Br       5.28679244       1.58108147       9.15699340       0.00214391      -0.00303176       0.00371286
