9
Lattice="6.146317657655796 -1.2508046102976614e-08 3.5485775966702726 2.048772353997841 5.794804636375973 3.5485779201503433 -1.1807364589040981e-07 3.126899185819463e-07 7.097155397850103" Properties=species:S:1:pos:R:3:forces:R:3 energy=-22.636781692504883 free_energy=-22.636781692504883 stress="5.013788177166134e-05 -1.1550954859274043e-08 -3.9460283929315665e-09 -1.1550954859274043e-08 5.018711453885771e-05 1.6004689129545113e-08 -3.9460283929315665e-09 1.6004689129545113e-08 5.020852040615864e-05" pbc="T T T"
Au       2.04877131       1.44869818       3.54857694      -0.00000156      -0.00000469      -0.00000066
Au       6.14631847       4.34610213      10.64573472       0.00000171      -0.00000272       0.00000234
Pt       0.00000040      -0.00000017      -0.00000018      -0.00000448       0.00001804      -0.00000589
Cl       1.90424409       1.34650537       7.09715528      -0.00025764      -0.00018361       0.00000028
Cl       6.29084608       4.44830180       7.09715505       0.00025198       0.00018063       0.00000001
Cl       5.19419599       1.34650521       5.19770130       0.00013129      -0.00018527      -0.00022602
Cl       3.00089363       4.44830109       8.99660969      -0.00012758       0.00018287       0.00022045
Cl       3.00089426       4.44830088       5.19770103      -0.00012510       0.00018053      -0.00021747
Cl       5.19419557       1.34650544       8.99660919       0.00013149      -0.00018570       0.00022712
