9
Lattice="6.579431933649193 -1.274549829185007e-07 3.798636833838004 2.1931439186931585 6.203147894022989 3.7986367282247353 4.706682045753303e-08 -9.60679602945181e-08 7.597273586153835" Properties=species:S:1:pos:R:3:forces:R:3 energy=-17.44017791748047 free_energy=-17.44017791748047 stress="-0.00016376246639993042 -1.0954908979954325e-08 -2.4568971301874853e-09 -1.0954908979954325e-08 -0.0001637538371142 5.057078755754674e-09 -2.4568971301874853e-09 5.057078755754674e-09 -0.00016374974802602082" pbc="T T T"
Au       2.19314390       1.55078676       3.79863690      -0.00000004      -0.00000020       0.00000017
Au       6.57943197       4.65236066      11.39591048      -0.00000018      -0.00000040       0.00000015
P        0.00000012       0.00000022      -0.00000013       0.00000022      -0.00000009      -0.00000033
I        2.24516725       1.58757297       7.59727348       0.00326607       0.00230987      -0.00000012
I        6.52740843       4.61557475       7.59727346      -0.00326663      -0.00231004      -0.00000038
I        5.45684819       1.58757310       5.74300889      -0.00163244       0.00230937       0.00282806
I        3.31572787       4.61557454       9.45153819       0.00163263      -0.00230874      -0.00282781
I        3.31572787       4.61557447       5.74300917       0.00163294      -0.00230914       0.00282817
I        5.45684799       1.58757323       9.45153813      -0.00163260       0.00230940      -0.00282800
