9
Lattice="4.888933296314616 -1.1855123892052692e-07 2.8226268062768547 1.6296443756620045 4.609330079439228 2.8226267104454124 7.357320383498418e-09 -1.1216665240051354e-07 5.645253599810447" Properties=species:S:1:pos:R:3:forces:R:3 energy=-29.169950485229492 free_energy=-29.169950485229492 stress="0.0002352240844629705 -1.1209133621292722e-09 -1.0386454363242592e-08 -1.1209133621292722e-09 0.00023527457960881293 2.3430196449680807e-08 -1.0386454363242592e-08 2.3430196449680807e-08 0.00023524925927631557" pbc="T T T"
Au       1.62964473       1.15233268       2.82262694       0.00000220       0.00000146       0.00000052
Au       4.88893345       3.45699751       8.46787995       0.00000055      -0.00000054      -0.00000068
Pd       0.00000002       0.00000016       0.00000014       0.00000327      -0.00000659      -0.00000655
F        1.59508870       1.12789781       5.64525360      -0.00196443      -0.00138840      -0.00000040
F        4.92348908       3.48143195       5.64525372       0.00196460       0.00138889       0.00000007
F        4.09138864       1.12789776       4.20401392       0.00097946      -0.00138660      -0.00169852
F        2.42718882       3.48143183       7.08649322      -0.00098508       0.00139263       0.00170554
F        2.42718852       3.48143186       4.20401393      -0.00098203       0.00138789      -0.00170042
F        4.09138879       1.12789773       7.08649310       0.00098158      -0.00138871       0.00170045
