9
Lattice="6.65352697757668 -1.1790465661677695e-07 3.841415698494599 2.217842359590638 6.273004901814068 3.8414154475319044 -6.736363724781639e-10 -3.078417183281251e-07 7.682831398155903" Properties=species:S:1:pos:R:3:forces:R:3 energy=-19.61629867553711 free_energy=-19.61629867553711 stress="0.00012371478078421205 2.994201153683207e-08 -7.688188752297265e-09 2.994201153683207e-08 0.0001236981333931908 -4.622582761015792e-09 -7.688188752297265e-09 -4.622582761015792e-09 0.0001237414253409952" pbc="T T T"
Au       2.21784277       1.56825116       3.84141518       0.00000023       0.00000015      -0.00000005
Au       6.65352697       4.70475340      11.52424694       0.00000000      -0.00000015      -0.00000020
P        0.00000020       0.00000104       0.00000065      -0.00000101      -0.00000648      -0.00000139
Br       1.93336533       1.36709507       7.68283139      -0.00282305      -0.00199491       0.00000102
Br       6.93800375       4.90590891       7.68283123       0.00282282       0.00199625      -0.00000018
Br       5.68684444       1.36709500       5.51575929       0.00141028      -0.00199240      -0.00244465
Br       3.18452461       4.90590928       9.84990269      -0.00140941       0.00199375       0.00244504
Br       3.18452477       4.90590894       5.51575931      -0.00140950       0.00199574      -0.00244501
Br       5.68684455       1.36709471       9.84990321       0.00140944      -0.00199193       0.00244567
