9
Lattice="6.485080617197444 -9.463993763197189e-09 3.7441631050471904 2.1616935931735797 6.114192357943394 3.7441629958749707 7.543944854817081e-08 -8.036430568723699e-08 7.488326079429441" Properties=species:S:1:pos:R:3:forces:R:3 energy=-18.219449996948242 free_energy=-18.219449996948242 stress="-4.852957135881297e-05 1.1130699029138214e-08 1.2667067395000231e-08 1.1130699029138214e-08 -4.85349191876594e-05 -2.1459904075982195e-08 1.2667067395000231e-08 -2.1459904075982195e-08 -4.8542202421231195e-05" pbc="T T T"
Au       2.16169376       1.52854812       3.74416283       0.00000069       0.00000035      -0.00000041
Au       6.48508052       4.58564443      11.23248829      -0.00000022       0.00000030      -0.00000089
Pd       0.00000023       0.00000005       0.00000020      -0.00000262      -0.00000038       0.00000155
I        2.21127393       1.56360605       7.48832588      -0.00274773      -0.00194257      -0.00000004
I        6.43550023       4.55058576       7.48832673       0.00274930       0.00194423      -0.00000012
I        5.37944376       1.56360630       5.65918220       0.00137372      -0.00194253      -0.00237972
I        3.26733067       4.55058580       9.31747043      -0.00137328       0.00194155       0.00237826
I        3.26733030       4.55058589       5.65918242      -0.00137435       0.00194316      -0.00237957
I        5.37944378       1.56360663       9.31746973       0.00137447      -0.00194407       0.00238101
