9
Lattice="6.229745303930014 8.129061924242761e-08 3.5967450397002994 2.0765818303920662 5.8734601886131435 3.5967450643405288 -1.2599152912287796e-08 2.1269203427625214e-08 7.193490101222874" Properties=species:S:1:pos:R:3:forces:R:3 energy=-19.55622100830078 free_energy=-19.55622100830078 stress="5.4611449741059914e-05 8.697760733866744e-09 -1.4903936973453824e-09 8.697760733866744e-09 5.460567263071425e-05 2.5776361045615204e-09 -1.4903936973453824e-09 2.5776361045615204e-09 5.46017472515814e-05" pbc="T T T"
Au       2.07658186       1.46836515       3.59674502       0.00000015       0.00000026      -0.00000025
Au       6.22974532       4.40509511      10.79023526       0.00000007      -0.00000019       0.00000031
Pd      -0.00000020      -0.00000005       0.00000008       0.00000222       0.00000163      -0.00000020
Br       2.04235834       1.44416548       7.19349008      -0.00063141      -0.00044624       0.00000021
Br       6.26396898       4.42929491       7.19349000       0.00062856       0.00044440       0.00000010
Br       5.20856635       1.44416534       5.36547882       0.00031476      -0.00044455      -0.00054449
Br       3.09776078       4.42929489       9.02150135      -0.00031430       0.00044443       0.00054410
Br       3.09776074       4.42929505       5.36547878      -0.00031441       0.00044461      -0.00054424
Br       5.20856630       1.44416529       9.02150139       0.00031438      -0.00044439       0.00054429
