9
Lattice="6.510430762120219 -4.6064727861205666e-08 3.7587988711720697 2.170143537454403 6.138093050513778 3.7587988824108205 -2.55721389717569e-08 -4.317617722801931e-09 7.517597786636277" Properties=species:S:1:pos:R:3:forces:R:3 energy=-19.176494598388672 free_energy=-19.176494598388672 stress="0.0002964190789498389 -1.4773411827206928e-08 4.609154391488346e-09 -1.4773411827206928e-08 0.00029643240850418806 -6.218125125911911e-09 4.609154391488346e-09 -6.218125125911911e-09 0.0002964434097521007" pbc="T T T"
Au       2.17014365       1.53452321       3.75879874       0.00000016       0.00000005      -0.00000032
Au       6.51043084       4.60356994      11.27639690      -0.00000024       0.00000044       0.00000027
Pt      -0.00000103      -0.00000017      -0.00000022       0.00000682       0.00000029      -0.00000066
I        2.20003790       1.55566169       7.51759782      -0.00295320      -0.00208802      -0.00000046
I        6.48053714       4.58243183       7.51759759       0.00294792       0.00208438       0.00000056
I        5.41041160       1.55566183       5.66408753       0.00147522      -0.00208641      -0.00255490
I        3.27016270       4.58243090       9.37110797      -0.00147642       0.00208843       0.00255731
I        3.27016279       4.58243115       5.66408772      -0.00147664       0.00208806      -0.00255733
I        5.41041154       1.55566163       9.37110814       0.00147643      -0.00208719       0.00255554
