9
Lattice="6.252620434335621 4.133159135771605e-09 3.6099520426127545 2.0842068330232553 5.895027037026493 3.6099520119879482 7.175690137166738e-09 -3.2433607858661527e-08 7.21990407279678" Properties=species:S:1:pos:R:3:forces:R:3 energy=-20.814252853393555 free_energy=-20.814252853393555 stress="0.00026219565188512206 2.1039944897438545e-08 -1.7176379429884037e-08 2.1039944897438545e-08 0.0002621958265081048 1.6306881178707044e-08 -1.7176379429884037e-08 1.6306881178707044e-08 0.00026216881815344095" pbc="T T T"
Au       2.08420692       1.47375672       3.60995212       0.00000010       0.00000034       0.00000023
Au       6.25262020       4.42127020      10.82985630      -0.00000050       0.00000006       0.00000006
Pt      -0.00000075       0.00000082       0.00000051       0.00001383      -0.00001644      -0.00001254
Br       2.02615272       1.43270632       7.21990399      -0.00647013      -0.00457599      -0.00000002
Br       6.31067448       4.46232074       7.21990401       0.00646940       0.00457475      -0.00000007
Br       5.23954451       1.43270584       5.36465076       0.00322961      -0.00456836      -0.00559367
Br       3.09728347       4.46232045       9.07515636      -0.00323982       0.00458199       0.00561087
Br       3.09728323       4.46232081       5.36465143      -0.00323483       0.00457545      -0.00560288
Br       5.23954432       1.43270612       9.07515703       0.00323232      -0.00457167       0.00559788
