9
Lattice="6.485257069795816 1.0982459664486334e-07 3.744264906612291 2.1617524045667444 6.114359198163021 3.744265002871855 -2.2306491859844108e-08 1.0212034968650199e-07 7.488529851860615" Properties=species:S:1:pos:R:3:forces:R:3 energy=-20.806978225708008 free_energy=-20.806978225708008 stress="0.00022980454377830029 2.3967713147499126e-08 3.2655143034077128e-09 2.3967713147499126e-08 0.00022978091146796942 8.30902990855975e-09 3.2655143034077128e-09 8.30902990855975e-09 0.00022978271590545774" pbc="T T T"
Au       2.16175241       1.52858992       3.74426488       0.00000041       0.00000029      -0.00000062
Au       6.48525699       4.58576925      11.23279526      -0.00000005      -0.00000063       0.00000040
Rh      -0.00000023       0.00000004      -0.00000149       0.00000075      -0.00000073       0.00001992
I        2.17611257       1.53874436       7.48852980       0.00369883       0.00261540       0.00000099
I        6.47089684       4.57561524       7.48852970      -0.00369899      -0.00261557       0.00000063
I        5.39720058       1.53874464       5.62883399      -0.00184741       0.00261245       0.00319992
I        3.24980845       4.57561557       9.34822630       0.00185307      -0.00262122      -0.00320975
I        3.24980910       4.57561494       5.62883404       0.00184711      -0.00261164       0.00319962
I        5.39720106       1.53874373       9.34822663      -0.00185377       0.00262164      -0.00321105
