9
Lattice="9.616908768861956 -1.3764474836166909e-06 5.5523242507887645 3.2056346779133364 9.066902148804122 5.552324736896303 -1.7522686295467784e-06 -6.436878033462844e-07 11.104651536596434" Properties=species:S:1:pos:R:3:forces:R:3 energy=-42.14733123779297 free_energy=-42.14733123779297 stress="-1.2518615903900354e-06 8.587590372144405e-08 1.6395445001649023e-08 8.587590372144405e-08 -1.5733038480902906e-06 5.552194259905718e-09 1.6395445001649023e-08 5.552194259905718e-09 -1.2365412658255082e-06" pbc="T T T"
Au       3.20563699       2.26672352       5.55232199      -0.00000004       0.00000034      -0.00000033
Au       9.61690527       6.80017888      16.65697578       0.00000001       0.00000011       0.00000016
Re      -0.00000784       0.00003401      -0.00002579       0.00060730      -0.00265920       0.00194808
F        1.52959755       1.08157063      11.10465258       0.00031176       0.00028582      -0.00002196
F       11.29293470       7.98532039      11.10464789       0.00048196       0.00032920      -0.00001432
F        8.85211423       1.08157165       6.87700150      -0.00006436       0.00013998       0.00005442
F        3.97043069       7.98532276      15.33229603      -0.00010538       0.00013088       0.00018355
F        3.97044097       7.98531692       6.87701845      -0.00064154       0.00087990      -0.00114059
F        8.85211762       1.08155947      15.33230929      -0.00058982       0.00089310      -0.00100899
