9
Lattice="6.072458613828314 8.149922104147813e-07 3.5059356261826173 2.024153495137539 5.725169436918486 3.5059358764999735 2.894405908800746e-08 3.2704133260527917e-07 7.011871202232468" Properties=species:S:1:pos:R:3:forces:R:3 energy=-23.94571876525879 free_energy=-23.94571876525879 stress="0.000312443298753351 1.1238967800863975e-07 3.4804797932608267e-10 1.1238967800863975e-07 0.00031237583607435226 1.4066080522567859e-09 3.4804797932608267e-10 1.4066080522567859e-09 0.0003122960333712399" pbc="T T T"
Au       2.02415361       1.43129502       3.50593442       0.00000233       0.00000467      -0.00000200
Au       6.07245932       4.29387747      10.51780668       0.00000079       0.00000044      -0.00000163
Rh       0.00000129       0.00000084       0.00000288      -0.00001894      -0.00001019      -0.00004210
Cl       1.91402586       1.35342002       7.01187107      -0.00709662      -0.00501806      -0.00000042
Cl       6.18258529       4.37174939       7.01187179       0.00711337       0.00502875      -0.00000114
Cl       5.11544720       1.35341904       5.16352934       0.00354047      -0.00500607      -0.00613338
Cl       2.98116644       4.37174794       8.86021317      -0.00355613       0.00502363       0.00615498
Cl       2.98116453       4.37175082       5.16352908      -0.00353993       0.00500414      -0.00613061
Cl       5.11544522       1.35342182       8.86021231       0.00355448      -0.00502738       0.00615597
