9
Lattice="6.519925223568136 -7.044179227394297e-09 3.7642805652309774 2.1733084079080145 6.147044469669972 3.764280553637755 -1.3921191105326258e-09 -1.5183121499677692e-08 7.5285611328730235" Properties=species:S:1:pos:R:3:forces:R:3 energy=-21.587831497192383 free_energy=-21.587831497192383 stress="5.487023736350238e-05 -2.5888721721933905e-10 -3.3020637335567926e-09 -2.5888721721933905e-10 5.4857187933521345e-05 3.3685219058554594e-09 -3.3020637335567926e-09 3.3685219058554594e-09 5.48703501408454e-05" pbc="T T T"
Au       2.17330843       1.53676086       3.76428063       0.00000009       0.00000042       0.00000020
Au       6.51992520       4.61028352      11.29284183      -0.00000013       0.00000001       0.00000029
Ru       0.00000011       0.00000003       0.00000015       0.00000017      -0.00000024      -0.00000020
I        2.19194383       1.54993831       7.52856118      -0.00143864      -0.00101731      -0.00000031
I        6.50128972       4.59710614       7.52856118       0.00143882       0.00101727      -0.00000018
I        5.42395325       1.54993837       5.66255958       0.00071917      -0.00101738      -0.00124694
I        3.26928044       4.59710610       9.39456260      -0.00071970       0.00101773       0.00124718
I        3.26928016       4.59710616       5.66255936      -0.00071931       0.00101707      -0.00124595
I        5.42395333       1.54993832       9.39456240       0.00071952      -0.00101749       0.00124579
