9
Lattice="6.2323000565712885 -4.820023420339776e-08 3.5982200282127135 2.077433290713062 5.87586883325945 3.5982200559840165 -2.1596136154203775e-08 1.8742005211929624e-08 7.196440093831016" Properties=species:S:1:pos:R:3:forces:R:3 energy=-22.274545669555664 free_energy=-22.274545669555664 stress="0.00012200439959997311 -4.128597907993026e-08 5.010876158451083e-10 -4.128597907993026e-08 0.00012203372898511589 -6.804158569906349e-09 5.010876158451083e-10 -6.804158569906349e-09 0.00012207658437546343" pbc="T T T"
Au       2.07743337       1.46896702       3.59822000       0.00000034       0.00000005       0.00000026
Au       6.23230011       4.40690165      10.79466024       0.00000017       0.00000022       0.00000034
Rh      -0.00000032       0.00000001       0.00000005       0.00000516       0.00000109      -0.00000364
Br       2.02799075       1.43400626       7.19644016      -0.00268465      -0.00189887      -0.00000045
Br       6.28174289       4.44186297       7.19644013       0.00267945       0.00189480      -0.00000026
Br       5.21830468       1.43400607       5.35451130       0.00134164      -0.00189761      -0.00232419
Br       3.09142854       4.44186261       9.03836851      -0.00134313       0.00190051       0.00232749
Br       3.09142860       4.44186264       5.35451163      -0.00134242       0.00189947      -0.00232629
Br       5.21830469       1.43400600       9.03836870       0.00134347      -0.00189965       0.00232661
