9
Lattice="6.680206219907283 7.444860456060664e-08 3.8568186053698708 2.2267354445260605 6.2981583592190304 3.856818661315896 2.5432096256833988e-08 8.650282410197727e-08 7.713637166690037" Properties=species:S:1:pos:R:3:forces:R:3 energy=-24.577348709106445 free_energy=-24.577348709106445 stress="-1.1399316463212017e-05 1.8554905167889046e-08 -4.162921118933127e-09 1.8554905167889046e-08 -1.1408542377466802e-05 6.045441036661714e-09 -4.162921118933127e-09 6.045441036661714e-09 -1.1420890587032773e-05" pbc="T T T"
Au       2.22673535       1.57453968       3.85681854       0.00000008      -0.00000005      -0.00000014
Au       6.68020644       4.72361838      11.57045585      -0.00000009       0.00000018      -0.00000028
Re      -0.00000015       0.00000074       0.00000017       0.00000145      -0.00000411       0.00000021
I        2.21062106       1.56314491       7.71363726      -0.00030652      -0.00021641      -0.00000059
I        6.69632046       4.73501361       7.71363727       0.00030692       0.00021712       0.00000008
I        5.57489588       1.56314491       5.77127208       0.00015142      -0.00021417      -0.00026342
I        3.33204610       4.73501355       9.65600197      -0.00015280       0.00021665       0.00026523
I        3.33204574       4.73501377       5.77127208      -0.00015219       0.00021529      -0.00026420
I        5.57489588       1.56314457       9.65600250       0.00015181      -0.00021452       0.00026315
