9
Lattice="6.311071046884088 1.4395838986070081e-09 3.64369853900731 2.103690353049223 5.950134798549857 3.6436985342777852 -8.257340398064899e-09 -1.163123255161389e-08 7.287397092316672" Properties=species:S:1:pos:R:3:forces:R:3 energy=-23.83217430114746 free_energy=-23.83217430114746 stress="6.395002128556371e-05 1.0859902310755842e-08 2.7291391369033136e-09 1.0859902310755842e-08 6.393843068508431e-05 1.0952783124906773e-09 2.7291391369033136e-09 1.0952783124906773e-09 6.394369120243937e-05" pbc="T T T"
Au       2.10369041       1.48753373       3.64369857       0.00000008      -0.00000018      -0.00000018
Au       6.31107096       4.46260088      10.93109572      -0.00000002      -0.00000031       0.00000049
Ru      -0.00000012      -0.00000032      -0.00000038       0.00000132       0.00000386       0.00000641
Br       2.03436726       1.43851482       7.28739710      -0.00040005      -0.00028281       0.00000063
Br       6.38039439       4.51162019       7.28739701       0.00039676       0.00028077       0.00000016
Br       5.29388744       1.43851487       5.40551218       0.00020050      -0.00028309      -0.00034754
Br       3.12087373       4.51162034       9.16928231      -0.00019681       0.00027885       0.00034255
Br       3.12087398       4.51162005       5.40551214      -0.00019970       0.00028241      -0.00034657
Br       5.29388759       1.43851462       9.16928202       0.00019791      -0.00027962       0.00034401
