9
Lattice="4.927911504898394 -7.569474587434754e-08 2.8451307451372108 1.642637073417695 4.646079155286069 2.8451307858683137 -1.0043319726537087e-07 -2.113185276196422e-08 5.690261664229807" Properties=species:S:1:pos:R:3:forces:R:3 energy=-32.46034622192383 free_energy=-32.46034622192383 stress="0.0002701269695535302 1.722734133124959e-08 5.763252097779059e-09 1.722734133124959e-08 0.0002700893091969192 -3.057711595033652e-08 5.763252097779059e-09 -3.057711595033652e-08 0.00027006465825252235" pbc="T T T"
Au       1.64263760       1.16151983       2.84513088       0.00000167       0.00000058       0.00000006
Au       4.92791168       3.48455906       8.53539157       0.00000098      -0.00000057      -0.00000284
Rh      -0.00000021       0.00000009       0.00000012       0.00000651       0.00000101      -0.00000898
F        1.59275582       1.12624819       5.69026176      -0.00260896      -0.00184309      -0.00000014
F        4.97779285       3.51983081       5.69026179       0.00260311       0.00184163       0.00000027
F        4.13153356       1.12624791       4.22449735       0.00129912      -0.00183856      -0.00225183
F        2.43901491       3.51983091       7.15602604      -0.00130456       0.00184328       0.00225735
F        2.43901454       3.51983095       4.22449714      -0.00130175       0.00183973      -0.00225299
F        4.13153315       1.12624845       7.15602605       0.00130393      -0.00184401       0.00225906
