9
Lattice="7.295339488749304 3.295300150840685e-07 4.211966386432913 2.431780284826202 6.878110535349607 4.211966136049536 8.145625357495685e-07 2.6932644285292184e-07 8.423931362002866" Properties=species:S:1:pos:R:3:forces:R:3 energy=-35.85743713378906 free_energy=-35.85743713378906 stress="3.0768216674914584e-05 3.002358539561101e-08 9.115265875436762e-09 3.002358539561101e-08 3.073935295105912e-05 -6.95651092286198e-09 9.115265875436762e-09 -6.95651092286198e-09 3.071193350479007e-05" pbc="T T T"
Au       2.43178049       1.71952380       4.21196371      -0.00000038      -0.00000010      -0.00000072
Au       7.29533828       5.15858522      12.63590037       0.00000069       0.00000013       0.00000028
Ru       0.00000038      -0.00000118       0.00000136      -0.00000400       0.00007978      -0.00005872
F        1.54656284       1.09358616       8.42393135      -0.00186431      -0.00132039       0.00000065
F        8.18055866       5.78452667       8.42393244       0.00183550       0.00129461       0.00000101
F        6.52205871       1.09358416       5.55132874       0.00092214      -0.00130531      -0.00159556
F        3.20506330       5.78452720      11.29653589      -0.00092202       0.00130078       0.00159553
F        3.20506155       5.78452673       5.55132678      -0.00090696       0.00128016      -0.00156897
F        6.52205872       1.09358586      11.29653564       0.00093950      -0.00132954       0.00162634
