9
Lattice="6.493991347380641 2.229614548116828e-07 3.749308239916791 2.1646637044430967 6.122594638958866 3.7493087391408295 -2.727181009938209e-07 4.1858140707615377e-07 7.498616952194971" Properties=species:S:1:pos:R:3:forces:R:3 energy=-26.136985778808594 free_energy=-26.136985778808594 stress="-1.6850399333634414e-05 1.4577016038685997e-08 4.561243382994462e-09 1.4577016038685997e-08 -1.6944835806498304e-05 -1.7936745422275635e-08 4.561243382994462e-09 -1.7936745422275635e-08 -1.6896918168640696e-05" pbc="T T T"
Au       2.16466273       1.53064695       3.74930833      -0.00000052      -0.00000060      -0.00000035
Au       6.49398405       4.59194815      11.24792282      -0.00000170       0.00000046      -0.00000078
Ru       0.00000217       0.00000108      -0.00000076      -0.00000567      -0.00000274       0.00000352
Cl       1.89192694       1.33779132       7.49861794       0.00288796       0.00204420      -0.00000010
Cl       6.76673078       4.78480344       7.49861803      -0.00288570      -0.00204179      -0.00000147
Cl       5.54803002       1.33779223       5.38776301      -0.00144339       0.00204551       0.00250208
Cl       3.11062694       4.78480332       9.60947118       0.00144589      -0.00204566      -0.00250369
Cl       3.11062590       4.78480222       5.38776413       0.00144574      -0.00204352       0.00250137
Cl       5.54803009       1.33779323       9.60947048      -0.00144276       0.00204399      -0.00250074
