9
Lattice="6.500131864510986 4.464114724929475e-08 3.7528529945399653 2.166710696175473 6.128383179295465 3.7528529381032443 4.3334209357286226e-08 -3.8478539823931366e-08 7.505705914022621" Properties=species:S:1:pos:R:3:forces:R:3 energy=-27.207433700561523 free_energy=-27.207433700561523 stress="9.104230412049219e-05 -9.510495724285306e-10 2.2919603992477278e-09 -9.510495724285306e-10 9.104352648137137e-05 7.539680879631305e-09 2.2919603992477278e-09 7.539680879631305e-09 9.10320013645105e-05" pbc="T T T"
Au       2.16671085       1.53209595       3.75285284       0.00000017       0.00000005      -0.00000022
Au       6.50013176       4.59628744      11.25855875      -0.00000024       0.00000009       0.00000039
Re       0.00000016      -0.00000045      -0.00000104      -0.00000066       0.00000349       0.00001161
Br       2.04209137       1.44397620       7.50570608      -0.00226238      -0.00159965      -0.00000024
Br       6.62475130       4.68440689       7.50570576       0.00226137       0.00159876       0.00000023
Br       5.47908627       1.44397701       5.52135621       0.00113317      -0.00160310      -0.00196257
Br       3.18775584       4.68440691       9.49005648      -0.00112887       0.00159624       0.00195530
Br       3.18775628       4.68440630       5.52135603      -0.00113262       0.00160134      -0.00196111
Br       5.47908656       1.44397639       9.49005634       0.00112996      -0.00159726       0.00195670
