9
Lattice="6.732375508535087 4.041000445740405e-07 3.8869381385577326 2.2441255978441443 6.347343889025755 3.8869380565567964 -2.7651042576126047e-07 -2.959527826655368e-07 7.773876756045573" Properties=species:S:1:pos:R:3:forces:R:3 energy=-30.089359283447266 free_energy=-30.089359283447266 stress="-0.00010468959226273 2.61975756643551e-08 -1.9629673886356613e-08 2.61975756643551e-08 -0.00010469453991390765 2.5055177488297886e-08 -1.9629673886356613e-08 2.5055177488297886e-08 -0.00010467061656527221" pbc="T T T"
Au       2.24412378       1.58683449       3.88693686       0.00000007      -0.00000038      -0.00000033
Au       6.73237553       4.76051023      11.66081460      -0.00000017       0.00000020      -0.00000042
Re      -0.00000038       0.00000168       0.00000246       0.00000394      -0.00001220      -0.00001534
Cl       1.89638636       1.34094773       7.77387696      -0.00607401      -0.00429708      -0.00000107
Cl       7.08011466       5.00639632       7.77387562       0.00607663       0.00429684      -0.00000220
Cl       5.78418381       1.34094624       5.52925636       0.00303078      -0.00428635      -0.00525337
Cl       3.19232055       5.00639433      10.01849486      -0.00304392       0.00430536       0.00527245
Cl       3.19231703       5.00639732       5.52925799      -0.00303173       0.00429028      -0.00525987
Cl       5.78418211       1.34094821      10.01849637       0.00303829      -0.00429684       0.00525999
