9
Lattice="4.322341111005808 -1.8454685221248028e-08 2.4955047197049365 1.440780366923172 4.07514230021498 2.495504695478463 1.716193999463499e-08 -1.7535920623955955e-08 4.991009409684523" Properties=species:S:1:pos:R:3:forces:R:3 energy=-27.391735076904297 free_energy=-27.391735076904297 stress="-0.00024920908617787063 7.41916821311861e-08 -1.820018802334289e-08 7.41916821311861e-08 -0.00024916953407227993 -1.7323257495149846e-08 -1.820018802334289e-08 -1.7323257495149846e-08 -0.0002492452913429588" pbc="T T T"
Au       1.44078028       1.01878611       2.49550469       0.00000031      -0.00000241       0.00000196
Au       4.32234110       3.05635634       7.48651397       0.00000078       0.00000133      -0.00000208
S        0.00000005      -0.00000013       0.00000020       0.00000084      -0.00000113      -0.00000092
F        1.51467248       1.07103508       4.99100950      -0.00392970      -0.00277899      -0.00000279
F        4.24844908       3.00410729       4.99100946       0.00393031       0.00277971       0.00000099
F        3.56500496       1.07103506       3.80724943       0.00196089      -0.00277627      -0.00339979
F        2.19811661       3.00410700       6.17476927      -0.00196251       0.00277754       0.00340041
F        2.19811646       3.00410729       3.80724928      -0.00196309       0.00277427      -0.00339764
F        3.56500495       1.07103506       6.17476946       0.00196217      -0.00277400       0.00339951
