9
Lattice="6.55005282782257 2.756277430277994e-08 3.781674879977857 2.183351015496881 6.175449152335464 3.78167479873969 7.762026159990526e-08 -4.4610276636017746e-08 7.563349625513459" Properties=species:S:1:pos:R:3:forces:R:3 energy=-15.143230438232422 free_energy=-15.143230438232422 stress="-8.890929166227579e-06 9.959536528825197e-10 -1.3008202515152334e-08 9.959536528825197e-10 -8.884785529517103e-06 6.763987592250942e-09 -1.3008202515152334e-08 6.763987592250942e-09 -8.91613308340311e-06" pbc="T T T"
Au       2.18335089       1.54386218       3.78167478      -0.00000034       0.00000028      -0.00000013
Au       6.55005288       4.63158675      11.34502436      -0.00000000      -0.00000034      -0.00000031
S       -0.00000044       0.00000022      -0.00000028      -0.00000168      -0.00000003      -0.00000226
I        2.33087805       1.64817978       7.56334970      -0.00027254      -0.00019416      -0.00000014
I        6.40252584       4.52726964       7.56334976       0.00027356       0.00019386       0.00000104
I        5.38461395       1.64817968       5.80027419       0.00013736      -0.00019294      -0.00023675
I        3.34879025       4.52726927       9.32642461      -0.00013717       0.00019327       0.00023717
I        3.34879033       4.52726927       5.80027484      -0.00013669       0.00019282      -0.00023618
I        5.38461392       1.64817976       9.32642522       0.00013748      -0.00019270       0.00023773
