9
Lattice="6.454585913448395 -5.378941288765227e-07 3.7265577383555546 2.1515280088466056 6.0854423168856355 3.726557949385246 -6.062580004951936e-07 -1.7023143614033378e-07 7.453116526780002" Properties=species:S:1:pos:R:3:forces:R:3 energy=-25.00070571899414 free_energy=-25.00070571899414 stress="-2.492968451406341e-05 3.9317725963883277e-08 -2.4629070338733072e-08 3.9317725963883277e-08 -2.4922837837948464e-05 2.128641796161901e-08 -2.4629070338733072e-08 2.128641796161901e-08 -2.487881647539325e-05" pbc="T T T"
Au       2.15152736       1.52135947       3.72655856       0.00000051      -0.00000003       0.00000018
Au       6.45458522       4.56408136      11.17967305       0.00000002      -0.00000050       0.00000009
Si      -0.00000027       0.00000066      -0.00000035      -0.00000384      -0.00000431       0.00000770
Cl       1.78124967       1.25953414       7.45311592       0.00034547       0.00024790      -0.00000073
Cl       6.82486412       4.82590684       7.45311566      -0.00034541      -0.00023985      -0.00000075
Cl       5.56396122       1.25953270       5.26916748      -0.00017431       0.00024617       0.00029254
Cl       3.04215245       4.82590845       9.63706706       0.00017482      -0.00024647      -0.00030410
Cl       3.04215258       4.82590956       5.26916535       0.00017732      -0.00025010       0.00030315
Cl       5.56395972       1.25953358       9.63706687      -0.00017473       0.00024694      -0.00029790
