9
Lattice="6.8040863043927855 -5.3674441697143466e-08 3.928341047534277 2.2680287364090597 6.414953922196238 3.928341014828217 1.973665588774388e-08 -2.6100670968977366e-08 7.856682060883607" Properties=species:S:1:pos:R:3:forces:R:3 energy=-17.610633850097656 free_energy=-17.610633850097656 stress="-3.074436244787648e-05 -4.3750986167268024e-10 1.476424205115734e-09 -4.3750986167268024e-10 -3.075458880630322e-05 -3.1007165723906382e-09 1.476424205115734e-09 -3.1007165723906382e-09 -3.075407585129142e-05" pbc="T T T"
Au       2.26802886       1.60373833       3.92834106       0.00000062      -0.00000039       0.00000014
Au       6.80408653       4.81121556      11.78502281       0.00000042       0.00000018      -0.00000047
Sn       0.00000009      -0.00000004       0.00000009       0.00000015       0.00000006      -0.00000110
I        2.37591558       1.68002583       7.85668217      -0.00186731      -0.00132039      -0.00000049
I        6.69619934       4.73492795       7.85668222       0.00186655       0.00132024      -0.00000036
I        5.61612851       1.68002578       5.98594395       0.00093257      -0.00131908      -0.00161617
I        3.45598664       4.73492807       9.72742015      -0.00093397       0.00132045       0.00161734
I        3.45598635       4.73492817       5.98594395      -0.00093350       0.00132003      -0.00161639
I        5.61612829       1.68002574       9.72742006       0.00093447      -0.00132105       0.00161754
