9
Lattice="5.009202165420345 -6.461786506779896e-08 2.8920642477290106 1.6697340372434561 4.722721038898471 2.8920641732064283 1.473953711588713e-07 1.2953158987129774e-08 5.7841282401616585" Properties=species:S:1:pos:R:3:forces:R:3 energy=-32.72978591918945 free_energy=-32.72978591918945 stress="0.00042772642336785793 -1.637403634902057e-08 2.382499886266487e-08 -1.637403634902057e-08 0.0004277703701518476 -3.6749174370243054e-08 2.382499886266487e-08 -3.6749174370243054e-08 0.0004277506086509675" pbc="T T T"
Au       1.66973452       1.18068124       2.89206320       0.00000165       0.00000482      -0.00000451
Au       5.00920181       3.54204057       8.67619327      -0.00000078      -0.00000145       0.00000508
Sn       0.00000038      -0.00000000       0.00000045      -0.00000685      -0.00000104      -0.00000873
F        1.64533717       1.16342879       5.78412836      -0.00408691      -0.00289044       0.00000058
F        5.03359930       3.55929174       5.78412818       0.00409275       0.00289303      -0.00000063
F        4.18653388       1.16342942       4.31696752       0.00204402      -0.00288856      -0.00354016
F        2.49240241       3.55929163       7.25128908      -0.00204581       0.00288987       0.00354314
F        2.49240279       3.55929182       4.31696787      -0.00204435       0.00289169      -0.00354266
F        4.18653309       1.16342869       7.25128860       0.00204667      -0.00289816       0.00354803
