9
Lattice="6.622754642763871 6.692860269436042e-08 3.823649102657922 2.2075849773855527 6.2439927725142255 3.8236490448708342 5.446591291420235e-08 -3.22612148773004e-08 7.647298110978159" Properties=species:S:1:pos:R:3:forces:R:3 energy=-18.59151268005371 free_energy=-18.59151268005371 stress="3.536392250680365e-05 -3.197253017894752e-10 5.59682344913881e-09 -3.197253017894752e-10 3.537350858096033e-05 -1.4791236013778075e-09 5.59682344913881e-09 -1.4791236013778075e-09 3.5367978853173554e-05" pbc="T T T"
Au       2.20758491       1.56099823       3.82364910      -0.00000005       0.00000021       0.00000004
Au       6.62275477       4.68299424      11.47094692      -0.00000000      -0.00000048       0.00000009
Si      -0.00000012       0.00000006      -0.00000006       0.00000015      -0.00000058       0.00000018
I        2.18487782       1.54494184       7.64729812       0.00113465       0.00080194       0.00000002
I        6.64546175       4.69905097       7.64729825      -0.00113423      -0.00080207      -0.00000010
I        5.53031610       1.54494192       5.71580858      -0.00056724       0.00080212       0.00098256
I        3.30002391       4.69905101       9.57878751       0.00056712      -0.00080162      -0.00098175
I        3.30002379       4.69905098       5.71580870       0.00056687      -0.00080142       0.00098179
I        5.53031580       1.54494195       9.57878784      -0.00056737       0.00080188      -0.00098278
