9
Lattice="4.865994033116115 -8.551600850623821e-08 2.8093829831867474 1.621997979789011 4.587702967355576 2.8093828976656248 8.54240033935371e-08 -4.433769391544414e-08 5.618765818414727" Properties=species:S:1:pos:R:3:forces:R:3 energy=-37.50990295410156 free_energy=-37.50990295410156 stress="-0.00013235380174592137 3.6986829599072735e-08 1.0710068210073587e-07 3.6986829599072735e-08 -0.00013251883501652628 3.365305900615567e-08 1.0710068210073587e-07 3.365305900615567e-08 -0.00013258654507808387" pbc="T T T"
Au       1.62199827       1.14692618       2.80938123       0.00000208       0.00000061      -0.00000869
Au       4.86599364       3.44077694       8.42814958      -0.00000294      -0.00000171       0.00000356
Si       0.00000015      -0.00000002       0.00000024       0.00000163       0.00000236      -0.00000602
F        1.40724722       0.99507402       5.61876625       0.00748360       0.00529301       0.00000219
F        5.08074483       3.59262916       5.61876561      -0.00748420      -0.00529611       0.00000096
F        4.16237066       0.99507361       4.02809446      -0.00374511       0.00529838       0.00648987
F        2.32562161       3.59262911       7.20943758       0.00374427      -0.00529701      -0.00648421
F        2.32562175       3.59262920       4.02809441       0.00374421      -0.00529623       0.00648630
F        4.16237029       0.99507349       7.20943746      -0.00374365       0.00529647      -0.00648427
