9
Lattice="6.335318270454715 3.3300814881746794e-07 3.6576978877155186 2.111772887951376 5.972995035977798 3.6576982043867625 -8.981577902652744e-08 3.243316168015953e-07 7.315395930996341" Properties=species:S:1:pos:R:3:forces:R:3 energy=-19.15283966064453 free_energy=-19.15283966064453 stress="-2.438431920381845e-06 7.374581389996138e-09 -2.2162325308272557e-08 7.374581389996138e-09 -2.4283590391860344e-06 1.3385853314673568e-08 -2.2162325308272557e-08 1.3385853314673568e-08 -2.3569627956021577e-06" pbc="T T T"
Au       2.11177212       1.49325081       3.65769753       0.00000015       0.00000126      -0.00000079
Au       6.33531722       4.47974595      10.97309225      -0.00000073      -0.00000055      -0.00000099
S        0.00000018       0.00000039      -0.00000002      -0.00000010      -0.00000550       0.00000459
Cl       1.86610065       1.31953330       7.31539627       0.00012186       0.00008515      -0.00000054
Cl       6.58098869       4.65346242       7.31539658      -0.00011504      -0.00008327      -0.00000083
Cl       5.40226805       1.31953267       5.27379063      -0.00006004       0.00008488       0.00009841
Cl       3.04482444       4.65346189       9.35700173       0.00005701      -0.00008222      -0.00009635
Cl       3.04482425       4.65346225       5.27379133       0.00005816      -0.00008470       0.00009727
Cl       5.40226847       1.31953338       9.35700192      -0.00006130       0.00008503      -0.00010103
