9
Lattice="6.325281707490345 4.757541252274326e-07 3.651903402949094 2.1084277046289257 5.963533279068531 3.651903367869101 9.605935358497027e-08 2.4960161333870703e-08 7.303806639518494" Properties=species:S:1:pos:R:3:forces:R:3 energy=-23.255386352539062 free_energy=-23.255386352539062 stress="-3.6579400330083445e-05 2.7479403641450517e-08 -6.00366156788823e-09 2.7479403641450517e-08 -3.6528686905512586e-05 2.6798922192483587e-08 -6.00366156788823e-09 2.6798922192483587e-08 -3.652255691122264e-05" pbc="T T T"
Au       2.10842832       1.49088364       3.65190278       0.00000029      -0.00000008      -0.00000017
Au       6.32528129       4.47265064      10.95571098      -0.00000055       0.00000029       0.00000078
Sn       0.00000046      -0.00000044      -0.00000030      -0.00000250       0.00000471      -0.00000289
Cl       2.00460065       1.41746590       7.30380717       0.00041950       0.00029790      -0.00000048
Cl       6.42910887       4.54606736       7.30380712      -0.00042030      -0.00029655      -0.00000100
Cl       5.32298242       1.41746688       5.38793816      -0.00021034       0.00029694       0.00036183
Cl       3.11072702       4.54606720       9.21967474       0.00021030      -0.00029875      -0.00036427
Cl       3.11072675       4.54606785       5.38793784       0.00021368      -0.00030239       0.00036779
Cl       5.32298225       1.41746620       9.21967508      -0.00021018       0.00029807      -0.00036156
