9
Lattice="6.421366096715662 1.38187019123992e-08 3.7073774091605265 2.1404553593368156 6.054122127336592 3.707377442525918 -5.204006891357932e-08 4.066200073147657e-09 7.414754908457095" Properties=species:S:1:pos:R:3:forces:R:3 energy=-17.322328567504883 free_energy=-17.322328567504883 stress="0.00011523440480232239 6.3403873262757315e-09 4.740561831972911e-10 6.3403873262757315e-09 0.00011523253488121554 1.949587158378563e-09 4.740561831972911e-10 1.949587158378563e-09 0.0001152418481069617" pbc="T T T"
Au       2.14045537       1.51353045       3.70737754       0.00000003       0.00000003      -0.00000012
Au       6.42136609       4.54059171      11.12213243       0.00000019       0.00000013      -0.00000010
Se       0.00000009       0.00000005      -0.00000003       0.00000073       0.00000017       0.00000086
Br       2.10457435       1.48815885       7.41475494      -0.00306451      -0.00216676       0.00000010
Br       6.45724681       4.56596310       7.41475469       0.00306374       0.00216642      -0.00000007
Br       5.36907889       1.48815905       5.52999239       0.00153220      -0.00216673      -0.00265351
Br       3.19274258       4.56596315       9.29951734      -0.00153193       0.00216602       0.00265303
Br       3.19274258       4.56596325       5.52999235      -0.00153214       0.00216666      -0.00265339
Br       5.36907890       1.48815897       9.29951735       0.00153178      -0.00216596       0.00265306
