9
Lattice="6.378359287481543 -1.0590517286821783e-07 3.682547336889883 2.126119659575749 6.013574765994831 3.682547342206719 -5.2343503726901645e-08 -3.05006119103698e-08 7.365094764441238" Properties=species:S:1:pos:R:3:forces:R:3 energy=-20.52849006652832 free_energy=-20.52849006652832 stress="0.00017102494894061238 -1.1011223932655412e-08 -4.622154659017497e-09 -1.1011223932655412e-08 0.00017104370635934174 1.751136458061353e-09 -4.622154659017497e-09 1.751136458061353e-09 0.0001710461510811001" pbc="T T T"
Au       2.12611975       1.50339361       3.68254746       0.00000022      -0.00000009       0.00000002
Au       6.37835930       4.51018080      11.04764214       0.00000007      -0.00000004      -0.00000028
Sn      -0.00000024      -0.00000033      -0.00000035       0.00000581       0.00000941       0.00000451
Br       2.13025141       1.50631537       7.36509494      -0.00259177      -0.00183251      -0.00000048
Br       6.37422800       4.50725991       7.36509455       0.00258192       0.00182544      -0.00000042
Br       5.31323347       1.50631527       5.52739924       0.00129554      -0.00183181      -0.00224401
Br       3.19124520       4.50725922       9.20279021      -0.00129305       0.00182952       0.00224080
Br       3.19124517       4.50725949       5.52739904      -0.00129322       0.00182988      -0.00224125
Br       5.31323348       1.50631520       9.20279053       0.00129457      -0.00182981       0.00224112
