9
Lattice="6.889415594072504 1.088667689751835e-06 3.9776079590261366 2.296472896993121 6.495402306031306 3.9776079488126097 7.322134875582126e-07 5.052439526307345e-07 7.955214649821094" Properties=species:S:1:pos:R:3:forces:R:3 energy=-30.413419723510742 free_energy=-30.413419723510742 stress="-1.6641623005853035e-05 -2.2910663588504576e-08 7.397803614139775e-08 -2.2910663588504576e-08 -1.652378705330193e-05 2.8154998332752257e-08 7.397803614139775e-08 2.8154998332752257e-08 -1.662718568695709e-05" pbc="T T T"
Au       2.29647605       1.62385012       3.97760991      -0.00000151      -0.00000015      -0.00000080
Au       6.88941540       4.87155738      11.93280725       0.00000088      -0.00000088       0.00000486
Se      -0.00000058      -0.00000038       0.00000317       0.00000861       0.00001062      -0.00003275
F        1.44726191       1.02337172       7.95521568       0.00055850       0.00039172      -0.00000288
F        7.73862680       5.47203179       7.95521857      -0.00056744      -0.00039613       0.00000481
F        6.16578390       1.02337114       5.23097626      -0.00028485       0.00039345       0.00049210
F        3.02010484       5.47203192      10.67945814       0.00027823      -0.00038481      -0.00048268
F        3.02010673       5.47203415       5.23097682       0.00027889      -0.00039703       0.00049305
F        6.16578251       1.02336988      10.67945813      -0.00027144       0.00038314      -0.00047600
