9
Lattice="6.244734042929615 1.0498297681262913e-08 3.605398856295304 2.0815780493925238 5.887591687441222 3.6053988126738488 5.023083319797037e-08 -1.7906532968280313e-08 7.210797625588307" Properties=species:S:1:pos:R:3:forces:R:3 energy=-16.69022560119629 free_energy=-16.69022560119629 stress="0.00019937152683269233 9.70032498770479e-09 -8.873491275096512e-09 9.70032498770479e-09 0.00019936804892495275 -2.0398227551510217e-10 -8.873491275096512e-09 -2.0398227551510217e-10 0.00019937133765779436" pbc="T T T"
Au       2.08157794       1.47189796       3.60539891      -0.00000014       0.00000027       0.00000056
Au       6.24473406       4.41569386      10.81619685       0.00000018       0.00000025       0.00000005
S        0.00000037       0.00000014      -0.00000003       0.00000140      -0.00000064       0.00000006
Br       2.06777691       1.46213888       7.21079750      -0.00322397      -0.00227959      -0.00000016
Br       6.25853523       4.42545278       7.21079761       0.00322229       0.00227848      -0.00000048
Br       5.21084557       1.46213873       5.39614581       0.00161140      -0.00227779      -0.00279124
Br       3.11546637       4.42545277       9.02544927      -0.00161149       0.00227916       0.00279164
Br       3.11546641       4.42545271       5.39614600      -0.00161089       0.00227837      -0.00279121
Br       5.21084568       1.46213891       9.02544927       0.00161126      -0.00227858       0.00279097
