9
Lattice="6.3359789845401915 -3.3484699199944705e-07 3.6580794170303492 2.1119928300330084 5.973617767090651 3.6580791556932244 1.2002681025220416e-07 -2.351995781487842e-07 7.316158626168097" Properties=species:S:1:pos:R:3:forces:R:3 energy=-19.1528377532959 free_energy=-19.1528377532959 stress="6.157853931654245e-06 -1.647888403510933e-08 8.432446740869182e-09 -1.647888403510933e-08 6.1661016843572725e-06 -5.531720859153211e-09 8.432446740869182e-09 -5.531720859153211e-09 6.1595237639267e-06" pbc="T T T"
Au       2.11199284       1.49340484       3.65807877      -0.00000022       0.00000059      -0.00000011
Au       6.33597861       4.48021227      10.97423817      -0.00000006      -0.00000008       0.00000022
S        0.00000027      -0.00000024       0.00000015      -0.00000193       0.00000435       0.00000025
Cl       1.86609697       1.31953029       7.31615913      -0.00000095      -0.00000060      -0.00000046
Cl       6.58187510       4.65408702       7.31615866       0.00000042      -0.00000057      -0.00000039
Cl       5.40292994       1.31952936       5.27416658       0.00000192      -0.00000212      -0.00000098
Cl       3.04504182       4.65408815       9.35815044      -0.00000033       0.00000039       0.00000045
Cl       3.04504174       4.65408792       5.27416641      -0.00000112       0.00000066      -0.00000083
Cl       5.40293044       1.31952913       9.35815034       0.00000228      -0.00000241       0.00000221
