9
Lattice="6.5493441850099545 3.944203364792706e-09 3.781265636118361 2.1831146996100808 6.174781067441631 3.7812656923151264 -4.3040253140798765e-08 3.839262955899502e-08 7.562531346784688" Properties=species:S:1:pos:R:3:forces:R:3 energy=-15.14322280883789 free_energy=-15.14322280883789 stress="-7.457288302248344e-05 -4.598700087399266e-09 3.9884948677126886e-09 -4.598700087399266e-09 -7.457948959199712e-05 3.884365717965466e-09 3.9884948677126886e-09 3.884365717965466e-09 -7.456897583324462e-05" pbc="T T T"
Au       2.18311468       1.54369525       3.78126568      -0.00000011      -0.00000031       0.00000017
Au       6.54934422       4.63108587      11.34379703       0.00000006       0.00000035      -0.00000016
S       -0.00000013       0.00000002       0.00000001      -0.00000026      -0.00000000      -0.00000030
I        2.33091535       1.64820624       7.56253138      -0.00192913      -0.00136423       0.00000042
I        6.40154352       4.52657497       7.56253131       0.00192907       0.00136366       0.00000020
I        5.38388631       1.64820629       5.79989783       0.00096484      -0.00136387      -0.00167078
I        3.34857253       4.52657475       9.32516476      -0.00096427       0.00136372       0.00167036
I        3.34857253       4.52657481       5.79989782      -0.00096478       0.00136429      -0.00167063
I        5.38388636       1.64820625       9.32516483       0.00096451      -0.00136366       0.00167054
