9
Lattice="6.67344597061581 4.905392042165886e-08 3.8529157102110583 2.2244820136166084 6.291785189064358 3.8529157497661544 -3.897305794407837e-08 2.0886824060139707e-08 7.705831487925419" Properties=species:S:1:pos:R:3:forces:R:3 energy=-15.487262725830078 free_energy=-15.487262725830078 stress="-9.322140977019444e-05 4.824892041455087e-09 8.60647442202378e-10 4.824892041455087e-09 -9.322394180344418e-05 5.242998257770637e-10 8.60647442202378e-10 5.242998257770637e-10 -9.322424739366397e-05" pbc="T T T"
Au       2.22448199       1.57294633       3.85291566       0.00000034       0.00000007       0.00000002
Au       6.67344596       4.71883890      11.55874721       0.00000016      -0.00000025       0.00000002
Se       0.00000015       0.00000006       0.00000003      -0.00000091      -0.00000045      -0.00000037
I        2.34686190       1.65948198       7.70583158      -0.00064030      -0.00045274      -0.00000029
I        6.55106606       4.63230326       7.70583149       0.00064096       0.00045347      -0.00000016
I        5.50001504       1.65948193       5.88535770       0.00032014      -0.00045280      -0.00055468
I        3.39791281       4.63230328       9.52630529      -0.00032061       0.00045326       0.00055476
I        3.39791283       4.63230346       5.88535744      -0.00031997       0.00045240      -0.00055443
I        5.50001500       1.65948184       9.52630539       0.00032021      -0.00045291       0.00055498
