9
Lattice="6.398989972705506 2.2031456094572135e-07 3.694458506633138 2.1329969106848043 6.0330252818647745 3.6944584279950705 1.5777408450112227e-07 1.525144535950154e-08 7.388916739993659" Properties=species:S:1:pos:R:3:forces:R:3 energy=-21.408061981201172 free_energy=-21.408061981201172 stress="-7.8087359725032e-05 4.337180392610662e-09 1.7222825832163835e-08 4.337180392610662e-09 -7.81404523877427e-05 -4.420678934025091e-09 1.7222825832163835e-08 -4.420678934025091e-09 -7.81039270805195e-05" pbc="T T T"
Au       2.13299695       1.50825626       3.69445808       0.00000003       0.00000006      -0.00000027
Au       6.39899033       4.52476889      11.08337514       0.00000003      -0.00000009       0.00000003
Si       0.00000013       0.00000006      -0.00000035      -0.00000112       0.00000068      -0.00000158
Br       1.96034145       1.38617064       7.38891748       0.00229982       0.00162677      -0.00000295
Br       6.57164553       4.64685487       7.38891710      -0.00229979      -0.00162627      -0.00000075
Br       5.41882033       1.38617043       5.39216352      -0.00115305       0.00162837       0.00199094
Br       3.11316720       4.64685480       9.38566979       0.00115003      -0.00162442      -0.00198901
Br       3.11316719       4.64685545       5.39216361       0.00115210      -0.00163031       0.00199208
Br       5.41881917       1.38617083       9.38567003      -0.00114779       0.00162514      -0.00198886
