9
Lattice="7.047242710139705 -1.606347401659451e-07 4.068726246276806 2.3490809554045105 6.644203916369978 4.068725893851928 -3.337931115512423e-07 -6.676577728779325e-07 8.137453070700241" Properties=species:S:1:pos:R:3:forces:R:3 energy=-29.781227111816406 free_energy=-29.781227111816406 stress="-9.175831655738875e-05 4.612166648598759e-09 -5.546269221667899e-09 4.612166648598759e-09 -9.17663419386372e-05 -4.394457686629494e-09 -5.546269221667899e-09 -4.394457686629494e-09 -9.176469029625878e-05" pbc="T T T"
Au       2.34907838       1.66105191       4.06872710      -0.00000032       0.00000009       0.00000025
Au       7.04724146       4.98315237      12.20618002      -0.00000046      -0.00000023       0.00000014
Ti      -0.00000052      -0.00000081       0.00000016       0.00000672       0.00000147       0.00000179
Cl       1.92179500       1.35891083       8.13745385       0.00473058       0.00334394       0.00000026
Cl       7.47452863       5.28529336       8.13745194      -0.00473273      -0.00334924      -0.00000033
Cl       6.08634749       1.35891411       5.73304760      -0.00236624       0.00334585       0.00410038
Cl       3.30997716       5.28528917      10.54185670       0.00236568      -0.00334561      -0.00409788
Cl       3.30997672       5.28528879       5.73304745       0.00236514      -0.00334513       0.00409746
Cl       6.08634834       1.35891287      10.54185655      -0.00236812       0.00334936      -0.00410229
