9
Lattice="7.018548720003599 -1.868175048209132e-07 4.052161056327956 2.339516121834149 6.61715089640953 4.052160955927398 3.569176972477104e-08 -9.772723489931925e-08 8.104322050836158" Properties=species:S:1:pos:R:3:forces:R:3 energy=-27.079607009887695 free_energy=-27.079607009887695 stress="0.0001709697680780664 -2.964114997894285e-08 1.628021095712029e-08 -2.964114997894285e-08 0.00017098811804316938 -1.9787115945746336e-08 1.628021095712029e-08 -1.9787115945746336e-08 0.000171023013535887" pbc="T T T"
Au       2.33951618       1.65428776       4.05216098      -0.00000024      -0.00000029       0.00000009
Au       7.01854878       4.96286301      12.15648322       0.00000030       0.00000014       0.00000067
Ta       0.00000085      -0.00000039       0.00000268      -0.00000724       0.00000233      -0.00002707
I        2.24676026       1.58869945       8.10432235      -0.00686323      -0.00485255      -0.00000121
I        7.11130383       5.02845081       8.10432173       0.00686754       0.00485645      -0.00000063
I        5.89516885       1.58869926       5.99791303       0.00342983      -0.00485091      -0.00594276
I        3.46289702       5.02845058      10.21072977      -0.00343759       0.00486073       0.00595339
I        3.46289643       5.02845147       5.99791332      -0.00343045       0.00485061      -0.00594258
I        5.89516724       1.58870052      10.21072917       0.00344105      -0.00486660       0.00596012
