9
Lattice="6.878244232721112 1.331086130725246e-07 3.971156027386392 2.2927480960379634 6.484870903805296 3.9711562127707687 -1.1473072981198638e-07 1.4592172298181794e-07 7.942312253492267" Properties=species:S:1:pos:R:3:forces:R:3 energy=-16.01087188720703 free_energy=-16.01087188720703 stress="5.3537776693701744e-05 1.290827977840081e-08 -1.2613719846399363e-08 1.290827977840081e-08 5.352750304155052e-05 1.5172560097198584e-08 -1.2613719846399363e-08 1.5172560097198584e-08 5.351490472094156e-05" pbc="T T T"
Au       2.29274812       1.62121756       3.97115629       0.00000006       0.00000025      -0.00000022
Au       6.87824416       4.86365351      11.91346816       0.00000036       0.00000014       0.00000000
Te       0.00000027       0.00000023      -0.00000049      -0.00000260      -0.00000127       0.00000360
I        2.41586350       1.70827379       7.94231230      -0.00391212      -0.00276669      -0.00000007
I        6.75512860       4.77659737       7.94231231       0.00391364       0.00276702      -0.00000020
I        5.67031247       1.70827354       6.06335531       0.00195674      -0.00276678      -0.00338881
I        3.50067958       4.77659773       9.82126944      -0.00195560       0.00276618       0.00338726
I        3.50067975       4.77659773       6.06335504      -0.00195570       0.00276622      -0.00338822
I        5.67031242       1.70827329       9.82126964       0.00195526      -0.00276506       0.00338665
