9
Lattice="6.925619206507293 1.4211765162797787e-07 3.9985077316518907 2.3085399060423084 6.529536410279587 3.99850766834558 1.1607332234228006e-07 4.542071638806555e-09 7.997015262258955" Properties=species:S:1:pos:R:3:forces:R:3 energy=-23.94734001159668 free_energy=-23.94734001159668 stress="-0.00014846846170257777 4.9444761174299856e-08 2.7999715879190035e-09 4.9444761174299856e-08 -0.00014849564468022436 -9.583486892950077e-09 2.7999715879190035e-09 -9.583486892950077e-09 -0.00014853780157864094" pbc="T T T"
Au       2.30853988       1.63238411       3.99850817       0.00000007      -0.00000026       0.00000036
Au       6.92561934       4.89715192      11.99552167      -0.00000039      -0.00000009      -0.00000121
Ti       0.00000059       0.00000026      -0.00000311      -0.00000318      -0.00000119       0.00001813
I        2.19984527       1.55552496       7.99701546       0.00500709       0.00353996       0.00000015
I        7.03431334       4.97401120       7.99701564      -0.00500333      -0.00353734       0.00000097
I        5.82569671       1.55552575       5.90362873      -0.00250261       0.00353827       0.00433490
I        3.40846152       4.97401259      10.09040349       0.00250857      -0.00354727      -0.00434467
I        3.40846252       4.97401097       5.90362904       0.00250158      -0.00353880       0.00433478
I        5.82569774       1.55552444      10.09040324      -0.00250775       0.00354679      -0.00434342
