9
Lattice="9.681316899345063 -1.306224875022855e-06 5.589509573797847 3.227105161250034 9.127631580133125 5.589508258034998 2.5587326649595283e-06 1.9782370066277552e-07 11.179014715740887" Properties=species:S:1:pos:R:3:forces:R:3 energy=-47.440643310546875 free_energy=-47.440643310546875 stress="-1.0242771168123e-05 -7.857958728152425e-09 -1.340661004434196e-08 -7.857958728152425e-09 -1.0265195669489913e-05 1.8351185460119268e-08 -1.340661004434196e-08 1.8351185460119268e-08 -1.0250380910292733e-05" pbc="T T T"
Au       3.22710206       2.28190048       5.58950625      -0.00000058      -0.00000048      -0.00000122
Au       9.68132146       6.84573851      16.76852190      -0.00000025      -0.00000048      -0.00000064
Ta       0.00003675      -0.00003236       0.00003409      -0.00158361       0.00137720      -0.00148049
F        1.58340792       1.11964077      11.17901595       0.00210816       0.00140142       0.00005358
F       11.32500962       8.00798454      11.17901757      -0.00167799      -0.00128213       0.00005160
F        8.88960449       1.11963682       6.96078645      -0.00082004       0.00120255       0.00158423
F        4.01881187       8.00799369      15.39725061       0.00106353      -0.00147149      -0.00168580
F        4.01880455       8.00800677       6.96076506       0.00140312      -0.00195551       0.00238335
F        8.88960366       1.11965462      15.39723509      -0.00049245       0.00072885      -0.00090438
