9
Lattice="7.148376535783019 8.550805549959765e-08 4.127116678464059 2.382792379519087 6.7395533947072055 4.127116470086423 2.6029868136759494e-07 -7.115047696857468e-08 8.254232906077695" Properties=species:S:1:pos:R:3:forces:R:3 energy=-34.50885009765625 free_energy=-34.50885009765625 stress="-7.320530858123675e-05 3.7631828320172644e-08 6.745774494554269e-10 3.7631828320172644e-08 -7.325877231778577e-05 -9.533033917819012e-09 6.745774494554269e-10 -9.533033917819012e-09 -7.325702608795837e-05" pbc="T T T"
Au       2.38279005       1.68488618       4.12711607      -0.00000025      -0.00000031       0.00000016
Au       7.14837689       5.05466367      12.38134875       0.00000019      -0.00000026      -0.00000031
Ta       0.00000016      -0.00000014      -0.00000036       0.00000309       0.00001148       0.00000868
Cl       1.92900138       1.36400932       8.25423334       0.00321248       0.00227268       0.00000066
Cl       7.60216830       5.37554585       8.25423341      -0.00322014      -0.00227842       0.00000052
Cl       6.18387742       1.36400966       5.79768048      -0.00160815       0.00227535       0.00278562
Cl       3.34729231       5.37554595      10.71078643       0.00161384      -0.00228387      -0.00279540
Cl       3.34729256       5.37554423       5.79767897       0.00161004      -0.00227705       0.00278981
Cl       6.18387759       1.36400918      10.71078684      -0.00161120       0.00228061      -0.00278974
