9
Lattice="7.356937209042024 -6.873445482749411e-07 4.247540989435891 2.4523116912211127 6.936189316087531 4.247541099869063 -7.559496983321147e-07 -3.99284903895653e-07 8.495083288213616" Properties=species:S:1:pos:R:3:forces:R:3 energy=-31.962465286254883 free_energy=-31.962465286254883 stress="6.558910172316246e-06 -2.872006348297873e-07 2.0281754586903844e-07 -2.872006348297873e-07 6.774402663722867e-06 -2.884633829580707e-07 2.0281754586903844e-07 -2.884633829580707e-07 6.943636435607914e-06" pbc="T T T"
Au       2.45230864       1.73404323       4.24754206      -0.00000062      -0.00000015      -0.00000023
Au       7.35694200       5.20215057      12.74262420      -0.00000050      -0.00000064      -0.00000031
Te       0.00000226      -0.00000329       0.00000915      -0.00021232       0.00016690      -0.00067424
F        1.53129260       1.08278704       8.49508358      -0.00054657      -0.00040035       0.00002630
F        8.27795246       5.85339978       8.49508048       0.00061309       0.00042028       0.00002633
F        6.59128940       1.08278697       5.57367934       0.00026425      -0.00036860      -0.00041407
F        3.21795816       5.85339722      11.41648162      -0.00033978       0.00048637       0.00062816
F        3.21795717       5.85339834       5.57368019      -0.00022407       0.00032258      -0.00037464
F        6.59128607       1.08279236      11.41647945       0.00044647      -0.00062643       0.00078274
