9
Lattice="5.051668933159946 1.0731435749474987e-07 2.9165824881988525 1.683889760482993 4.76275900053099 2.916582462357715 1.8046548442498235e-07 9.595959791144268e-08 5.833164663822279" Properties=species:S:1:pos:R:3:forces:R:3 energy=-40.791133880615234 free_energy=-40.791133880615234 stress="0.0004814093408640474 -2.1583144160786105e-08 1.3133518272923084e-08 -2.1583144160786105e-08 0.00048149804933927953 2.6809244602077342e-08 1.3133518272923084e-08 2.6809244602077342e-08 0.0004815722058992833" pbc="T T T"
Au       1.68389006       1.19068971       2.91658296       0.00000132      -0.00000004       0.00000292
Au       5.05166893       3.57206937       8.74974803      -0.00000039       0.00000003       0.00000461
Ti       0.00000013       0.00000020       0.00000085      -0.00000126      -0.00000616      -0.00001874
F        1.55010013       1.09608631       5.83316453       0.00184929       0.00130787      -0.00000206
F        5.18545855       3.66667288       5.83316453      -0.00184512      -0.00130463      -0.00000198
F        4.27661899       1.09608629       4.25900847      -0.00092682       0.00130972       0.00160068
F        2.45893997       3.66667255       7.40732032       0.00091743      -0.00129813      -0.00159144
F        2.45894000       3.66667286       4.25900833       0.00092441      -0.00130773       0.00159845
F        4.27661878       1.09608660       7.40732050      -0.00091904       0.00129902      -0.00159311
