9
Lattice="6.88438647087859 4.262390911247596e-08 3.97470259973008 2.294795585491898 6.490661775498973 3.9747025044449598 -1.972295246611337e-08 -1.306461436596135e-07 7.949405233621293" Properties=species:S:1:pos:R:3:forces:R:3 energy=-30.71769142150879 free_energy=-30.71769142150879 stress="-1.2481921658036299e-05 2.929463782663788e-08 -6.620024972647798e-09 2.929463782663788e-08 -1.2513986803242005e-05 6.715306977156388e-09 -6.620024972647798e-09 6.715306977156388e-09 -1.2565490578708705e-05" pbc="T T T"
Au       2.29479544       1.62266564       3.97470265      -0.00000002      -0.00000010      -0.00000003
Au       6.88438645       4.86799613      11.92410772      -0.00000015      -0.00000007      -0.00000007
Ta      -0.00000022       0.00000013       0.00000028      -0.00000080       0.00000253       0.00000014
Br       2.06392262       1.45941317       7.94940466       0.00046126       0.00032700       0.00000048
Br       7.11525962       5.03124786       7.94940491      -0.00046179      -0.00032596       0.00000056
Br       5.85242532       1.45941393       5.76211123      -0.00023178       0.00032749       0.00040286
Br       3.32675683       5.03124797      10.13669962       0.00023324      -0.00033017      -0.00040594
Br       3.32675675       5.03124800       5.76211084       0.00023285      -0.00033004       0.00040670
Br       5.85242534       1.45941401      10.13669959      -0.00023286       0.00032938      -0.00040475
