9
Lattice="6.477135162274201 -1.2227206976502905e-07 3.7395756974581804 2.1590450022396195 6.10670124963699 3.7395755875986354 7.644274601267599e-08 -8.049685295181168e-08 7.479151262513646" Properties=species:S:1:pos:R:3:forces:R:3 energy=-20.94391441345215 free_energy=-20.94391441345215 stress="0.00014242212637327611 7.4346862000140845e-09 -1.8810315083328533e-08 7.4346862000140845e-09 0.00014243014447856694 2.6959762422507083e-08 -1.8810315083328533e-08 2.6959762422507083e-08 0.00014243682380765676" pbc="T T T"
Au       2.15904505       1.52667500       3.73957554      -0.00000013      -0.00000016      -0.00000017
Au       6.47713543       4.58002579      11.21872647      -0.00000049       0.00000023       0.00000006
Te      -0.00000095      -0.00000081      -0.00000117       0.00001592       0.00001369       0.00001279
Cl       1.98769468       1.40551280       7.47915087      -0.00213577      -0.00151134       0.00000006
Cl       6.64848677       4.70118950       7.47915138       0.00212140       0.00150016      -0.00000007
Cl       5.48328819       1.40551237       5.46096984       0.00106585      -0.00150944      -0.00184889
Cl       3.15289186       4.70118970       9.49733394      -0.00106355       0.00150311       0.00184162
Cl       3.15289193       4.70118888       5.46096938      -0.00106478       0.00150609      -0.00184537
Cl       5.48328819       1.40551089       9.49733388       0.00106152      -0.00150232       0.00183995
