9
Lattice="6.425176670811769 -1.3941924692898755e-07 3.7095775507291493 2.1417254658671006 6.057714369976325 3.709577480796603 -5.229552641665694e-09 -8.934745601149379e-08 7.419155110516229" Properties=species:S:1:pos:R:3:forces:R:3 energy=-25.84916877746582 free_energy=-25.84916877746582 stress="-0.00014673075929749757 -1.89540578787728e-08 4.232742156773384e-09 -1.89540578787728e-08 -0.00014674018893856555 1.7426422527222485e-09 4.232742156773384e-09 1.7426422527222485e-09 -0.0001467078982386738" pbc="T T T"
Au       2.14172572       1.51442870       3.70957761       0.00000005      -0.00000014       0.00000003
Au       6.42517641       4.54328561      11.12873255      -0.00000005       0.00000010      -0.00000002
V       -0.00000052      -0.00000033       0.00000015       0.00000536       0.00000147      -0.00000001
Br       1.98764685       1.40547817       7.41915520      -0.00389931      -0.00275707       0.00000009
Br       6.57925544       4.65223625       7.41915505       0.00389519       0.00275272      -0.00000011
Br       5.43135323       1.40547824       5.43093011       0.00194958      -0.00275579      -0.00337499
Br       3.13554911       4.65223578       9.40737944      -0.00195001       0.00275692       0.00337818
Br       3.13554920       4.65223574       5.43093067      -0.00195023       0.00275728      -0.00337866
Br       5.43135293       1.40547835       9.40737977       0.00194943      -0.00275549       0.00337550
