9
Lattice="7.215459251349031 1.6351728879436496e-06 4.165843987157558 2.4051545260264215 6.802801768663397 4.16584415934413 -6.87282240166546e-07 -2.7509656131922013e-07 8.331689164723763" Properties=species:S:1:pos:R:3:forces:R:3 energy=-38.63190841674805 free_energy=-38.63190841674805 stress="-0.00010215592919848859 1.3778612029113901e-08 4.079508642007568e-08 1.3778612029113901e-08 -0.00010214513895334676 -1.2696853346483294e-08 4.079508642007568e-08 -1.2696853346483294e-08 -0.00010209681204287335" pbc="T T T"
Au       2.40518002       1.70070342       4.16582460      -0.00000072      -0.00000020       0.00000004
Au       7.21544797       5.10208601      12.49746758       0.00000017       0.00000064       0.00000214
V       -0.00000087       0.00000093       0.00001258      -0.00006325       0.00004449       0.00001961
F        1.46700953       1.03733298       8.33169880       0.00286135       0.00202420       0.00000245
F        8.15359983       5.76547243       8.33169895      -0.00284061      -0.00200677       0.00000633
F        6.48195568       1.03733841       5.43632737      -0.00141481       0.00199530       0.00244272
F        3.13865443       5.76547071      11.22707596       0.00144395      -0.00204217      -0.00249556
F        3.13865684       5.76546952       5.43632555       0.00143100      -0.00202364       0.00247496
F        6.48194882       1.03733741      11.22707747      -0.00141686       0.00200805      -0.00245228
