9
Lattice="6.66097667578996 -3.2182701143902467e-07 3.845716553744438 2.2203252541587166 6.28002880086034 3.8457165555049646 -4.7261576510310425e-08 -3.126279164665595e-08 7.691433189348074" Properties=species:S:1:pos:R:3:forces:R:3 energy=-23.215988159179688 free_energy=-23.215988159179688 stress="-0.00021210339036770165 -2.5745318765757474e-08 5.92087889828008e-09 -2.5745318765757474e-08 -0.00021207088138908148 -1.1353595397167737e-08 5.92087889828008e-09 -1.1353595397167737e-08 -0.00021205845405347645" pbc="T T T"
Au       2.22032495       1.57000657       3.84571652      -0.00000058      -0.00000026       0.00000007
Au       6.66097637       4.71002106      11.53714952       0.00000030      -0.00000039      -0.00000045
V        0.00000068       0.00000131       0.00000038      -0.00000617      -0.00001049      -0.00000425
I        2.15659272       1.52494124       7.69143310       0.00704163       0.00497913      -0.00000009
I        6.72470807       4.75508652       7.69143321      -0.00703105      -0.00497165      -0.00000092
I        5.58268017       1.52494138       5.71338173      -0.00351863       0.00497638       0.00609444
I        3.29862291       4.75508644       9.66948431       0.00351439      -0.00497110      -0.00608878
I        3.29862203       4.75508665       5.71338173       0.00351648      -0.00497328       0.00609021
I        5.58267943       1.52494268       9.66948455      -0.00351647       0.00497170      -0.00609019
