9
Lattice="6.914085927886228 3.209312489134095e-07 3.9918495540349825 2.304695405243491 6.518663834164854 3.991849911926687 -7.353649583013066e-08 3.863276582176197e-07 7.983699235439216" Properties=species:S:1:pos:R:3:forces:R:3 energy=-29.08427619934082 free_energy=-29.08427619934082 stress="-9.403934382135049e-05 2.5130564296205193e-08 -2.7438693095405142e-08 2.5130564296205193e-08 -9.403850708622485e-05 2.9553250513458806e-08 -2.7438693095405142e-08 2.9553250513458806e-08 -9.403888543602079e-05" pbc="T T T"
Au       2.30469540       1.62966595       3.99184967      -0.00000001       0.00000000       0.00000027
Au       6.91408618       4.88899865      11.97554822      -0.00000015       0.00000017      -0.00000013
W       -0.00000015       0.00000016      -0.00000005       0.00000616      -0.00000969      -0.00000227
Br       2.01702416       1.42625246       7.98369942       0.00167236       0.00118140      -0.00000045
Br       7.20175672       5.09241214       7.98369957      -0.00167121      -0.00118176      -0.00000005
Br       5.90557361       1.42625179       5.73864433      -0.00083864       0.00118496       0.00145200
Br       3.31320759       5.09241242      10.22875425       0.00083427      -0.00117853      -0.00144289
Br       3.31320735       5.09241231       5.73864480       0.00083743      -0.00118432       0.00144805
Br       5.90557412       1.42625223      10.22875452      -0.00084020       0.00118780      -0.00145444
