9
Lattice="10.870781228576753 -6.093597412018526e-06 6.276245710761849 3.6235874741846343 10.24905453056525 6.276246617626968 -1.7782952455134934e-06 -1.467663444084784e-07 12.55249450162684" Properties=species:S:1:pos:R:3:forces:R:3 energy=-33.17719268798828 free_energy=-33.17719268798828 stress="7.767945135128684e-06 -5.039005657181406e-08 -4.273513809494034e-08 -5.039005657181406e-08 7.881343663029838e-06 2.018636102718574e-08 -4.273513809494034e-08 2.018636102718574e-08 7.780673513479996e-06" pbc="T T T"
Au       3.62357180       2.56226143       6.27624493       0.00000000       0.00000000       0.00000000
Au      10.87077688       7.68678145      18.82873847       0.00000000       0.00000000       0.00000000
W        0.00000273       0.00000146       0.00000524       0.00000004      -0.00000963      -0.00002164
Cl       1.88549914       1.33324612      12.55248770      -0.00191167      -0.00136375       0.00001598
Cl      12.60887399       8.91580408      12.55249585       0.00191255       0.00136738       0.00000230
Cl       9.92803480       1.33325500       7.90913287       0.00098325      -0.00139359      -0.00167245
Cl       4.56633175       8.91580102      17.19585606      -0.00097293       0.00138338       0.00167724
Cl       4.56633746       8.91579703       7.90913203      -0.00096576       0.00138803      -0.00165805
Cl       9.92803815       1.33325015      17.19585710       0.00095464      -0.00137183       0.00165659
