9
Lattice="6.809124124557383 -2.8023780816447206e-07 3.931249907281325 2.2697077541980444 6.41970411119884 3.9312499473095572 -1.0491271249368248e-07 -2.516012412767824e-08 7.862499996276844" Properties=species:S:1:pos:R:3:forces:R:3 energy=-25.72039031982422 free_energy=-25.72039031982422 stress="5.8159315813099965e-05 -6.722176948414926e-08 -9.228662833926649e-10 -6.722176948414926e-08 5.820805745315738e-05 3.4846436847146833e-09 -9.228662833926649e-10 3.4846436847146833e-09 5.8261040976503864e-05" pbc="T T T"
Au       2.26970802       1.60492601       3.93124985      -0.00000022      -0.00000008       0.00000061
Au       6.80912400       4.81477776      11.79374948       0.00000002      -0.00000033       0.00000048
W       -0.00000051      -0.00000033       0.00000401       0.00000321       0.00000427      -0.00004888
I        2.21794539       1.56832450       7.86250034      -0.00229979      -0.00162667      -0.00000186
I        6.86088604       4.85137889       7.86250033       0.00229704       0.00162427      -0.00000223
I        5.70015138       1.56832413       5.85204743       0.00114413      -0.00161871      -0.00198503
I        3.37868214       4.85137773       9.87295048      -0.00116228       0.00164330       0.00201055
I        3.37868055       4.85137999       5.85204730      -0.00114422       0.00161824      -0.00198480
I        5.70015003       1.56832655       9.87295025       0.00116198      -0.00164437       0.00201112
