9
Lattice="6.223759924507749 1.467606847210479e-07 3.593289319669796 2.0745867680109487 5.867817140308962 3.5932893402100885 2.5854744805215768e-08 4.343868735496264e-08 7.186578594557873" Properties=species:S:1:pos:R:3:forces:R:3 energy=-15.660087585449219 free_energy=-15.660087585449219 stress="-0.00014742948405910283 9.518950072617827e-09 3.971207362951645e-09 9.518950072617827e-09 -0.00014743517385795712 -4.884442628139141e-09 3.971207362951645e-09 -4.884442628139141e-09 -0.00014745653606951237" pbc="T T T"
Au       2.07458674       1.46695467       3.59328954       0.00000032       0.00000058       0.00000043
Au       6.22375941       4.40086339      10.77986807      -0.00000161       0.00000038       0.00000006
Zn      -0.00000005      -0.00000008      -0.00000008      -0.00000015       0.00000018      -0.00000160
Br       2.08344342       1.47321685       7.18657852      -0.00036505      -0.00025809      -0.00000032
Br       6.21490365       4.39460043       7.18657872       0.00036457       0.00025696      -0.00000029
Br       5.18203853       1.47321651       5.39760351       0.00018132      -0.00025648      -0.00031418
Br       3.11630836       4.39460026       8.97555349      -0.00018136       0.00025776       0.00031531
Br       3.11630841       4.39460057       5.39760357      -0.00018086       0.00025645      -0.00031480
Br       5.18203844       1.47321674       8.97555348       0.00018278      -0.00025773       0.00031546
