9
Lattice="7.088491613164557 1.1199446487311367e-07 4.092542365106543 2.362830593777685 6.683094169831705 4.092542450900384 -1.7735291029219563e-08 9.253503085606821e-08 8.185084760931408" Properties=species:S:1:pos:R:3:forces:R:3 energy=-25.808204650878906 free_energy=-25.808204650878906 stress="-3.827076398010831e-06 5.207968101217375e-08 -9.895807728810269e-09 5.207968101217375e-08 -3.8603998291364405e-06 6.729450330311693e-09 -9.895807728810269e-09 6.729450330311693e-09 -3.89960723623517e-06" pbc="T T T"
Au       2.36283085       1.67077365       4.09254231      -0.00000012       0.00000004       0.00000029
Au       7.08849142       5.01232085      12.27762708       0.00000008      -0.00000015      -0.00000010
Zr       0.00000020      -0.00000021       0.00000218      -0.00000054       0.00000145      -0.00001552
I        2.32689273       1.64536157       8.18508467      -0.00357792      -0.00252943       0.00000086
I        7.12442990       5.03773304       8.18508483       0.00357762       0.00252958      -0.00000043
I        5.92504579       1.64536064       6.10768887       0.00178439      -0.00252298      -0.00309016
I        3.52627658       5.03773287      10.26247990      -0.00178795       0.00252842       0.00309674
I        3.52627569       5.03773359       6.10768893      -0.00178287       0.00252167      -0.00308767
I        5.92504560       1.64536152      10.26247952       0.00178746      -0.00252859       0.00309598
