9
Lattice="6.635281853441038 7.524899045559482e-08 3.830882049781273 2.211760688518028 6.25580404416653 3.8308820501988348 6.043213004948646e-08 4.324336299749269e-08 7.661763994890895" Properties=species:S:1:pos:R:3:forces:R:3 energy=-28.716873168945312 free_energy=-28.716873168945312 stress="-0.00018453269149176776 -2.378747332443254e-08 -1.2153373862844319e-09 -2.378747332443254e-08 -0.0001845205551944673 -9.991400595765754e-09 -1.2153373862844319e-09 -9.991400595765754e-09 -0.00018451122741680592" pbc="T T T"
Au       2.21176100       1.56395092       3.83088215       0.00000028       0.00000040       0.00000005
Au       6.63528173       4.69185342      11.49264617      -0.00000019       0.00000001       0.00000010
Zr       0.00000001       0.00000030       0.00000064      -0.00000068      -0.00000259      -0.00000469
Br       2.16911647       1.53379739       7.66176352       0.00175881       0.00124291       0.00000070
Br       6.67792623       4.72200692       7.66176388      -0.00175735      -0.00124244       0.00000027
Br       5.55072329       1.53379730       5.70939219      -0.00087868       0.00124273       0.00152263
Br       3.29631896       4.72200643       9.61413571       0.00087757      -0.00124043      -0.00151959
Br       3.29631912       4.72200629       5.70939242       0.00087787      -0.00124101       0.00152044
Br       5.55072360       1.53379765       9.61413575      -0.00087747       0.00124051      -0.00151996
