9
Lattice="6.577925469480891 3.7100215757789186e-08 3.7977670314599394 2.1926418326471877 6.20172770711691 3.7977670756126134 -4.0374810455533004e-08 2.5526415902609525e-08 7.595534132851079" Properties=species:S:1:pos:R:3:forces:R:3 energy=-14.212270736694336 free_energy=-14.212270736694336 stress="2.0387704353197478e-05 -1.0323102372922222e-08 -2.999203774223247e-09 -1.0323102372922222e-08 2.0376497559482232e-05 -2.453003578040125e-09 -2.999203774223247e-09 -2.453003578040125e-09 2.0379526176839136e-05" pbc="T T T"
Au       2.19264181       1.55043193       3.79776701       0.00000017       0.00000019      -0.00000005
Au       6.57792542       4.65129582      11.39330121      -0.00000007      -0.00000002      -0.00000032
Zn      -0.00000001       0.00000015       0.00000027       0.00000007       0.00000038      -0.00000115
I        2.25864559       1.59710359       7.59553406       0.00030516       0.00021574      -0.00000007
I        6.51192171       4.60462420       7.59553412      -0.00030637      -0.00021656       0.00000042
I        5.44860265       1.59710370       5.75381136      -0.00015249       0.00021642       0.00026476
I        3.32196461       4.60462392       9.43725657       0.00015257      -0.00021560      -0.00026436
I        3.32196454       4.60462406       5.75381156       0.00015353      -0.00021626       0.00026494
I        5.44860272       1.59710366       9.43725678      -0.00015259       0.00021586      -0.00026424
