9
Lattice="5.876973531030295 1.3490224446721012e-07 3.393072495291477 1.958991283734182 5.540864090196608 3.3930725307344622 -4.126863239788562e-08 1.4227272676815515e-08 6.786145062062444" Properties=species:S:1:pos:R:3:forces:R:3 energy=-16.62628173828125 free_energy=-16.62628173828125 stress="0.00040000028093345463 -2.6266337993519073e-09 -2.2479271777342547e-08 -2.6266337993519073e-09 0.0004000420158263296 -1.2850678743347999e-08 -2.2479271777342547e-08 -1.2850678743347999e-08 0.0004000305780209601" pbc="T T T"
Au       1.95899008       1.38521661       3.39307309      -0.00000359       0.00000136       0.00000166
Au       5.87697197       4.15564759      10.17921765      -0.00000390      -0.00000113      -0.00000141
Zn       0.00000018      -0.00000004      -0.00000050       0.00000074      -0.00000060       0.00000158
Cl       1.97697133       1.39792968       6.78614461       0.00054279       0.00038418      -0.00000084
Cl       5.85899409       4.14293411       6.78614550      -0.00054201      -0.00038511       0.00000016
Cl       4.88848852       1.39792992       5.10517988      -0.00027069       0.00038341       0.00047073
Cl       2.94747711       4.14293470       8.46711008       0.00027195      -0.00038424      -0.00046864
Cl       2.94747753       4.14293432       5.10517980       0.00027388      -0.00038382       0.00046727
Cl       4.88848840       1.39792983       8.46711027      -0.00026919       0.00038603      -0.00047049
