9
Lattice="5.133400992012246 1.3358818521865253e-07 2.963770479189436 1.7111338053959326 4.839816542652168 2.9637704524401784 8.273695570060058e-08 2.5742836625369893e-08 5.927540815074291" Properties=species:S:1:pos:R:3:forces:R:3 energy=-42.76018524169922 free_energy=-42.76018524169922 stress="1.841506855271291e-05 -2.5398989578206965e-08 7.468647034158948e-09 -2.5398989578206965e-08 1.846690611273516e-05 -4.3588070930411504e-09 7.468647034158948e-09 -4.3588070930411504e-09 1.8541768440627493e-05" pbc="T T T"
Au       1.71113331       1.20995407       2.96377068      -0.00000163      -0.00000107       0.00000132
Au       5.13340108       3.62986212       8.89131125      -0.00000095      -0.00000103       0.00000169
Zr       0.00000002       0.00000018       0.00000002      -0.00000199      -0.00000246      -0.00000100
F        1.66353617       1.17629757       5.92754077       0.00225657       0.00159559      -0.00000025
F        5.18099864       3.66351902       5.92754094      -0.00225297      -0.00159319      -0.00000058
F        4.30163307       1.17629806       4.40443506      -0.00112544       0.00159229       0.00194848
F        2.54290209       3.66351907       7.45064642       0.00112519      -0.00159056      -0.00194922
F        2.54290213       3.66351868       4.40443518       0.00112560      -0.00159030       0.00194710
F        4.30163306       1.17629801       7.45064659      -0.00112426       0.00159073      -0.00194776
