9
Lattice="4.660339834144141 -6.546687520498936e-09 2.690648778037589 1.5534465756899376 4.393810495463614 2.6906488291662685 -8.91535387999203e-08 -4.214645463312545e-10 5.381297710493606" Properties=species:S:1:pos:R:3:forces:R:3 energy=-26.46729278564453 free_energy=-26.46729278564453 stress="0.0003700529632624239 -2.638061680215742e-08 1.4236937850853337e-08 -2.638061680215742e-08 0.00037006381899118423 6.500174620782673e-09 1.4236937850853337e-08 6.500174620782673e-09 0.00036988017382100224" pbc="T T T"
Au       1.55344604       1.09845236       2.69064880      -0.00000408      -0.00000345       0.00000014
Au       4.66033994       3.29535848       8.07194619       0.00000021       0.00000535      -0.00000267
Zn      -0.00000005      -0.00000006      -0.00000005       0.00000214       0.00000376       0.00000094
F        1.58264243       1.11909681       5.38129753      -0.00502664      -0.00355786      -0.00000019
F        4.63114397       3.27471351       5.38129802       0.00502518       0.00355348       0.00000140
F        3.86901882       1.11909686       4.06125756       0.00251499      -0.00355542      -0.00435144
F        2.34476758       3.27471347       6.70133796      -0.00251333       0.00355539       0.00435135
F        2.34476756       3.27471356       4.06125748      -0.00251335       0.00355470      -0.00435132
F        3.86901887       1.11909697       6.70133772       0.00251484      -0.00355580       0.00435185
