9
Lattice="6.3625553913531645 -6.318341875595679e-08 3.6734230710366673 2.120851742399568 5.998674685292377 3.6734230626332462 -7.521999449277665e-08 -6.348064797794943e-08 7.346846272358173" Properties=species:S:1:pos:R:3:forces:R:3 energy=-29.972579956054688 free_energy=-29.972579956054688 stress="-0.0001919245842145756 3.733050757404044e-09 -7.962801973349087e-09 3.733050757404044e-09 -0.00019193324260413647 2.9596860517955292e-09 -7.962801973349087e-09 2.9596860517955292e-09 -0.00019193124899175018" pbc="T T T"
Ba       2.12085177       1.49966844       3.67342322      -0.00000010      -0.00000012      -0.00000024
Ba       6.36255556       4.49900634      11.02026903      -0.00000012      -0.00000021       0.00000002
Ag      -0.00000010       0.00000030      -0.00000064       0.00000070      -0.00000304       0.00000394
Br       2.18779896       1.54700758       7.34684622      -0.00542177      -0.00383408       0.00000015
Br       6.29560800       4.45166689       7.34684620       0.00542296       0.00383446       0.00000041
Br       5.26865565       1.54700754       5.56811257       0.00271127      -0.00383454      -0.00469537
Br       3.21475122       4.45166682       9.12557989      -0.00271066       0.00383425       0.00469513
Br       3.21475123       4.45166702       5.56811291      -0.00271200       0.00383618      -0.00469727
Br       5.26865592       1.54700733       9.12558029       0.00270975      -0.00383283       0.00469320
