9
Lattice="6.073286520310775 9.276789638591439e-08 3.5064135472756917 2.0244288936032127 5.725949435023632 3.5064136061009794 -6.187035061098168e-08 2.8297043017248872e-08 7.012827201714017" Properties=species:S:1:pos:R:3:forces:R:3 energy=-33.208492279052734 free_energy=-33.208492279052734 stress="-2.8324031518423e-05 -6.792153950385682e-09 4.400864561660001e-09 -6.792153950385682e-09 -2.8321495847194456e-05 -1.6450350415198045e-08 4.400864561660001e-09 -1.6450350415198045e-08 -2.830800076480955e-05" pbc="T T T"
Ba       2.02442889       1.43148731       3.50641359       0.00000017       0.00000065      -0.00000020
Ba       6.07328639       4.29446219      10.51924078      -0.00000033      -0.00000052      -0.00000046
Au       0.00000022       0.00000019       0.00000035      -0.00000252      -0.00000030      -0.00000263
Cl       2.06356516       1.45916103       7.01282716      -0.00464570      -0.00328468      -0.00000009
Cl       6.03415027       4.26678862       7.01282710       0.00464608       0.00328553       0.00000072
Cl       5.04150392       1.45916097       5.29351321       0.00232297      -0.00328517      -0.00402237
Cl       3.05621116       4.26678859       8.73214103      -0.00232230       0.00328516       0.00402303
Cl       3.05621135       4.26678846       5.29351314      -0.00232246       0.00328493      -0.00402193
Cl       5.04150404       1.45916085       8.73214105       0.00232409      -0.00328561       0.00402395
