9
Lattice="5.218431205348117 -5.485886702268588e-08 3.012862757172046 1.7394770651932976 4.9199840681300575 3.0128626732275636 1.8712771243030174e-08 -8.957861096507522e-08 6.025725481932561" Properties=species:S:1:pos:R:3:forces:R:3 energy=-42.87041091918945 free_energy=-42.87041091918945 stress="0.0005106964381411672 3.2663001192645424e-09 1.3876630511333587e-08 3.2663001192645424e-09 0.0005107213510200381 -2.866081594277148e-09 1.3876630511333587e-08 -2.866081594277148e-09 0.0005107490578666329" pbc="T T T"
Ba       1.73947721       1.22999597       3.01286265      -0.00000070       0.00000068       0.00000035
Ba       5.21843105       3.68998798       9.03858847       0.00000050      -0.00000049      -0.00000102
Au      -0.00000006       0.00000018      -0.00000035       0.00000526      -0.00000729       0.00001656
F        1.80625264       1.27721336       6.02572552      -0.00189738      -0.00134167       0.00000025
F        5.15165567       3.64277049       6.02572553       0.00189750       0.00134128      -0.00000018
F        4.31530496       1.27721321       4.57712331       0.00094951      -0.00134280      -0.00164436
F        2.64260334       3.64277053       7.47432756      -0.00094739       0.00133951       0.00164148
F        2.64260346       3.64277050       4.57712342      -0.00095239       0.00134711      -0.00164963
F        4.31530491       1.27721345       7.47432755       0.00094502      -0.00133623       0.00163653
