9
Lattice="6.056579845189836 -3.588940054506806e-08 3.496768006930894 2.018859934036515 5.710198165813808 3.4967679731961576 3.567876238801107e-09 -3.879359632698814e-08 6.993536007682012" Properties=species:S:1:pos:R:3:forces:R:3 energy=-33.36777114868164 free_energy=-33.36777114868164 stress="-0.00011551465286174789 -4.81913575711701e-09 1.1693332968576442e-09 -4.81913575711701e-09 -0.00011550082854228094 2.405759147450226e-09 1.1693332968576442e-09 2.405759147450226e-09 -0.00011552145588211715" pbc="T T T"
Ba       2.01885991       1.42754937       3.49676797       0.00000068       0.00000003      -0.00000005
Ba       6.05657994       4.28264895      10.49030393      -0.00000030       0.00000001       0.00000005
Ag       0.00000048      -0.00000026      -0.00000013      -0.00000392       0.00000331      -0.00000187
Cl       2.06798071       1.46228308       6.99353598      -0.00427102      -0.00302008      -0.00000005
Cl       6.00745876       4.24791481       6.99353597       0.00427195       0.00302096      -0.00000010
Cl       5.02258933       1.46228319       5.28769220       0.00213628      -0.00302131      -0.00370033
Cl       3.05285029       4.24791501       8.69938031      -0.00213576       0.00301994       0.00369832
Cl       3.05285035       4.24791492       5.28769178      -0.00213487       0.00301895      -0.00369756
Cl       5.02258935       1.46228325       8.69937997       0.00213683      -0.00302196       0.00370173
