9
Lattice="5.156839486154519 5.1116283963715164e-08 2.977302671930898 1.718946548111645 4.861914926159982 2.977302664077923 -9.87259999348196e-09 -1.659886697155434e-08 5.954605360961656" Properties=species:S:1:pos:R:3:forces:R:3 energy=-43.57024383544922 free_energy=-43.57024383544922 stress="0.0002570883953012526 1.5724198831890135e-08 8.673856299878935e-09 1.5724198831890135e-08 0.00025711904163472354 -1.134846527861555e-08 8.673856299878935e-09 -1.134846527861555e-08 0.0002571721561253071" pbc="T T T"
Ba       1.71894640       1.21547850       2.97730266       0.00000021       0.00000118       0.00000027
Ba       5.15683923       3.64643641       8.93190775      -0.00000037      -0.00000107       0.00000045
Ag      -0.00000020      -0.00000007      -0.00000036       0.00000280       0.00000432       0.00000570
F        1.77275714       1.25352854       5.95460537       0.00005883       0.00004077      -0.00000031
F        5.10302906       3.60838647       5.95460548      -0.00006312      -0.00004363       0.00000018
F        4.27046115       1.25352849       4.51255518      -0.00002980       0.00004143       0.00005162
F        2.60532499       3.60838657       7.39665566       0.00003201      -0.00004458      -0.00005510
F        2.60532502       3.60838649       4.51255534       0.00003019      -0.00004169       0.00005156
F        4.27046128       1.25352846       7.39665566      -0.00003070       0.00004339      -0.00005400
