9
Lattice="6.886105571742509 -1.2575186931450765e-07 3.9756950234120225 2.2953684453929486 6.492282699214488 3.975694954062801 5.978206474427764e-08 -4.266271823633801e-08 7.951389943278416" Properties=species:S:1:pos:R:3:forces:R:3 energy=-26.216354370117188 free_energy=-26.216354370117188 stress="-0.0001427121605956927 5.044724193936645e-09 2.153621725398125e-09 5.044724193936645e-09 -0.00014271237887442112 -5.173833028671027e-10 2.153621725398125e-09 -5.173833028671027e-10 -0.00014272250700742006" pbc="T T T"
Ba       2.29536889       1.62307067       3.97569533      -0.00000050      -0.00000052      -0.00000005
Ba       6.88610509       4.86921189      11.92708469       0.00000031      -0.00000003       0.00000073
Au      -0.00000020      -0.00000021      -0.00000004       0.00000093       0.00000011       0.00000040
I        2.35467069       1.66500316       7.95138988      -0.00444597      -0.00314453      -0.00000064
I        6.82680372       4.82727948       7.95138998       0.00444447       0.00314358       0.00000009
I        5.70877042       1.66500340       6.01489960       0.00222312      -0.00314339      -0.00385020
I        3.47270348       4.82727932       9.88788040      -0.00222296       0.00314370       0.00385021
I        3.47270356       4.82727920       6.01489948      -0.00222332       0.00314390      -0.00385027
I        5.70877068       1.66500322       9.88788037       0.00222393      -0.00314286       0.00384965
