9
Lattice="6.345343164118543 -3.869710135388941e-08 3.6634855435155353 2.1151143138605626 5.982447012664367 3.6634856088051473 -2.183923368815242e-08 6.452045513031727e-08 7.326971124857821" Properties=species:S:1:pos:R:3:forces:R:3 energy=-29.871143341064453 free_energy=-29.871143341064453 stress="-0.00012119085295125842 4.282145305012364e-09 -1.261581117351085e-10 4.282145305012364e-09 -0.00012120012252125889 3.866673647934249e-09 -1.261581117351085e-10 3.866673647934249e-09 -0.0001212126444443129" pbc="T T T"
Ba       2.11511442       1.49561175       3.66348553      -0.00000009       0.00000039      -0.00000024
Ba       6.34534319       4.48683526      10.99045678       0.00000003      -0.00000037       0.00000025
Au      -0.00000006       0.00000034      -0.00000012       0.00000219      -0.00000470       0.00000212
Br       2.17459045       1.53766775       7.32697113      -0.00359918      -0.00254462      -0.00000001
Br       6.28586702       4.44477924       7.32697117       0.00359809       0.00254481       0.00000040
Br       5.25804781       1.53766787       5.54673618       0.00179949      -0.00254411      -0.00311573
Br       3.20240958       4.44477908       9.10720596      -0.00179950       0.00254524       0.00311640
Br       3.20240964       4.44477913       5.54673623      -0.00179985       0.00254624      -0.00311772
Br       5.25804782       1.53766773       9.10720626       0.00179882      -0.00254291       0.00311450
