9
Lattice="6.870791652710281 5.73131065473862e-08 3.966853546250964 2.2902639598850185 6.477844384335621 3.9668535088162207 1.0103951272199768e-07 2.559772157068151e-08 7.933706917496385" Properties=species:S:1:pos:R:3:forces:R:3 energy=-26.321674346923828 free_energy=-26.321674346923828 stress="-0.00011930792970815673 -7.795803114163391e-09 1.5930195829128024e-08 -7.795803114163391e-09 -0.00011929553147638217 -2.532795306819935e-08 1.5930195829128024e-08 -2.532795306819935e-08 -0.00011930290202144533" pbc="T T T"
Ba       2.29026416       1.61946094       3.96685311      -0.00000117       0.00000159       0.00000063
Ba       6.87079142       4.85838353      11.90056069       0.00000175      -0.00000103      -0.00000034
Ag       0.00000017       0.00000030       0.00000034       0.00000027      -0.00000150      -0.00000195
I        2.35124287       1.66257965       7.93370727      -0.00228057      -0.00161311      -0.00000050
I        6.80981236       4.81526461       7.93370717       0.00228273       0.00161406       0.00000009
I        5.69517040       1.66257952       6.00308946       0.00113936      -0.00161122      -0.00197586
I        3.46588586       4.81526448       9.86432393      -0.00114266       0.00161349       0.00197821
I        3.46588519       4.81526512       6.00308957      -0.00114067       0.00161228      -0.00197580
I        5.69517039       1.66257970       9.86432436       0.00114094      -0.00161452       0.00197552
