9
Lattice="6.183124982499544 -1.4824724635026621e-08 3.569828897291239 2.0610416100591786 5.829506174402748 3.5698289610257348 -5.797364255940845e-08 3.706495850515799e-08 7.139657894995864" Properties=species:S:1:pos:R:3:forces:R:3 energy=-32.51301193237305 free_energy=-32.51301193237305 stress="-8.936945960158482e-06 4.736799841253969e-09 -1.536716753847145e-09 4.736799841253969e-09 -8.936743142839987e-06 2.3812227745168e-09 -1.536716753847145e-09 2.3812227745168e-09 -8.920486834540498e-06" pbc="T T T"
Ba       2.06104138       1.45737645       3.56982887      -0.00000001      -0.00000011       0.00000033
Ba       6.18312516       4.37212958      10.70948701      -0.00000008       0.00000010      -0.00000046
Be      -0.00000004      -0.00000001       0.00000008       0.00000022      -0.00000017      -0.00000003
Br       1.99995731       1.41418342       7.13965779      -0.00818361      -0.00578641       0.00000024
Br       6.24420914       4.41532280       7.13965781       0.00818343       0.00578649       0.00000004
Br       5.18314640       1.41418319       5.30184295       0.00409121      -0.00578574      -0.00708839
Br       3.06102013       4.41532326       8.97747267      -0.00409084       0.00578524       0.00708833
Br       3.06102019       4.41532294       5.30184316      -0.00409124       0.00578579      -0.00708828
Br       5.18314640       1.41418317       8.97747268       0.00409089      -0.00578530       0.00708833
