9
Lattice="6.7656208200404295 9.823989962816596e-08 3.906133027435744 2.2552069268548314 6.378688583562356 3.9061332106521953 -5.59705969764986e-08 1.8481629637129053e-07 7.812266151815407" Properties=species:S:1:pos:R:3:forces:R:3 energy=-27.761764526367188 free_energy=-27.761764526367188 stress="-3.7639294987457106e-06 -1.0683838702618687e-08 9.025580283150703e-09 -1.0683838702618687e-08 -3.74017508875113e-06 -8.760744130142939e-09 9.025580283150703e-09 -8.760744130142939e-09 -3.7407351101137465e-06" pbc="T T T"
Ba       2.25520631       1.59467181       3.90613357       0.00000060       0.00000000      -0.00000093
Ba       6.76562137       4.78401684      11.71839886      -0.00000043      -0.00000002       0.00000120
Be      -0.00000009      -0.00000001      -0.00000002       0.00000063       0.00000030      -0.00000068
I        2.17938633       1.54105935       7.81226626      -0.00046509      -0.00032938      -0.00000071
I        6.84144153       4.83762962       7.81226630       0.00046382       0.00032844      -0.00000019
I        5.67592763       1.54105912       5.79353722       0.00023206      -0.00032883      -0.00040265
I        3.34490000       4.83762976       9.83099498      -0.00023300       0.00032986       0.00040331
I        3.34490009       4.83762977       5.79353731      -0.00023149       0.00032900      -0.00040257
I        5.67592764       1.54105921       9.83099507       0.00023282      -0.00032934       0.00040323
