9
Lattice="4.9081278123718475 7.891924694928962e-09 2.8337089246530356 1.636042603106795 4.627427198541969 2.833708939302225 6.931709215720344e-09 2.2842957451942788e-08 5.667417837299954" Properties=species:S:1:pos:R:3:forces:R:3 energy=-50.86781311035156 free_energy=-50.86781311035156 stress="6.644546033385268e-07 2.6875433434270235e-08 2.830035095158223e-09 2.6875433434270235e-08 6.945030008864705e-07 3.0982072019014595e-08 2.830035095158223e-09 3.0982072019014595e-08 8.141611829159956e-07" pbc="T T T"
Ba       1.63604224       1.15685679       2.83370907       0.00000150       0.00000086      -0.00000046
Ba       4.90812802       3.47057064       8.50112597      -0.00000124      -0.00000105       0.00000243
Be      -0.00000031       0.00000007      -0.00000015       0.00000192      -0.00000067       0.00000015
F        1.45737801       1.03052186       5.66741791       0.00100598       0.00071144      -0.00000056
F        5.08679269       3.59690525       5.66741805      -0.00100482      -0.00070953      -0.00000077
F        4.17943890       1.03052174       4.09583550      -0.00050513       0.00071229       0.00086826
F        2.36473174       3.59690533       7.23900046       0.00050248      -0.00071132      -0.00086907
F        2.36473153       3.59690537       4.09583562       0.00050364      -0.00071307       0.00086877
F        4.17943888       1.03052198       7.23900036      -0.00050415       0.00071116      -0.00086844
