9
Lattice="6.029600300992922 -2.1940476591598535e-08 3.481191285280036 2.0098667562120998 5.68476162157207 3.4811912681324566 1.4457021237207284e-08 -1.0778634452022771e-08 6.962382545519629" Properties=species:S:1:pos:R:3:forces:R:3 energy=-42.349552154541016 free_energy=-42.349552154541016 stress="-2.829756112987525e-06 -9.840099401969837e-09 8.071555646083084e-10 -9.840099401969837e-09 -2.842376716216677e-06 -1.3267771326042066e-09 8.071555646083084e-10 -1.3267771326042066e-09 -2.853814976333524e-06" pbc="T T T"
Ba       2.00986654       1.42119049       3.48119136      -0.00000013       0.00000065      -0.00000069
Ba       6.02960043       4.26357124      10.44357374       0.00000026      -0.00000015      -0.00000034
Cr      -0.00000016      -0.00000135       0.00000087       0.00000346       0.00001609      -0.00000844
Cl       1.95671935       1.38360948       6.96238253      -0.00176708      -0.00124952       0.00000048
Cl       6.08274866       4.30115301       6.96238264       0.00175640       0.00124128      -0.00000065
Cl       5.05124065       1.38360928       5.17575958       0.00088275      -0.00124659      -0.00152600
Cl       2.98822645       4.30115201       8.74900527      -0.00088174       0.00124642       0.00152664
Cl       2.98822611       4.30115251       5.17575927      -0.00087824       0.00124264      -0.00152196
Cl       5.05124026       1.38360970       8.74900515       0.00088439      -0.00125080       0.00153098
