9
Lattice="6.122386894588323 -7.069845915113189e-09 3.5347616977576344 2.0407956564937906 5.772241620650702 3.534761642973164 6.095719037951415e-08 -2.3993750981157904e-08 7.0695232899342155" Properties=species:S:1:pos:R:3:forces:R:3 energy=-33.445865631103516 free_energy=-33.445865631103516 stress="-9.610645975044463e-06 -3.6314371509860166e-09 -2.9557807312841078e-09 -3.6314371509860166e-09 -9.611570931156166e-06 5.457807983333396e-09 -2.9557807312841078e-09 5.457807983333396e-09 -9.610109373170417e-06" pbc="T T T"
Ba       2.04079536       1.44306052       3.53476205       0.00000048      -0.00000090       0.00000051
Ba       6.12238691       4.32918119      10.60428474      -0.00000046       0.00000059      -0.00000008
Cd       0.00000016      -0.00000003      -0.00000046       0.00000086      -0.00000062       0.00000472
Cl       2.09272476       1.47977969       7.06952307      -0.00686458      -0.00485411      -0.00000003
Cl       6.07045782       4.29246196       7.06952308       0.00686528       0.00485326       0.00000163
Cl       5.07602440       1.47977990       5.34711415       0.00343299      -0.00485592      -0.00594503
Cl       3.08715793       4.29246213       8.79193251      -0.00343147       0.00485285       0.00594427
Cl       3.08715839       4.29246165       5.34711467      -0.00343414       0.00485588      -0.00594763
Cl       5.07602472       1.47977935       8.79193271       0.00343102      -0.00485111       0.00594173
