9
Lattice="6.791178419237701 2.39682719392838e-07 3.9208884165628373 2.263726346708117 6.402784675850919 3.9208884494938037 -1.7807345948600184e-08 2.774037182942942e-08 7.841776863968926" Properties=species:S:1:pos:R:3:forces:R:3 energy=-27.574796676635742 free_energy=-27.574796676635742 stress="0.00017975455557461828 3.990613617332883e-09 -8.908514814720547e-09 3.990613617332883e-09 0.00017976058006752282 1.0349813450716283e-08 -8.908514814720547e-09 1.0349813450716283e-08 0.00017973181093111634" pbc="T T T"
Ba       2.26372701       1.60069618       3.92088838       0.00000050      -0.00000041      -0.00000056
Ba       6.79117798       4.80208895      11.76266499      -0.00000072       0.00000013       0.00000044
Cu      -0.00000006       0.00000002       0.00000006      -0.00000008      -0.00000041       0.00000012
I        2.26384551       1.60077997       7.84177679       0.00720714       0.00509585      -0.00000036
I        6.79105909       4.80200481       7.84177722      -0.00720668      -0.00509603      -0.00000031
I        5.65925579       1.60078053       5.88143631      -0.00360362       0.00509730       0.00624173
I        3.39564911       4.80200456       9.80211722       0.00360325      -0.00509591      -0.00624113
I        3.39564930       4.80200428       5.88143649       0.00360379      -0.00509700       0.00624108
I        5.65925526       1.60078049       9.80211743      -0.00360363       0.00509649      -0.00624100
