9
Lattice="5.209301206386819 -7.930472198655521e-08 3.0075915183831055 1.7364336595284215 4.911376375957367 3.0075915204003096 -7.5308548884442e-10 1.938082789464623e-09 6.015183038070584" Properties=species:S:1:pos:R:3:forces:R:3 energy=-44.19309616088867 free_energy=-44.19309616088867 stress="0.00016551304724998772 -4.580566326239932e-08 -7.293706527633503e-09 -4.580566326239932e-08 0.00016556447371840477 5.803343583465903e-09 -7.293706527633503e-09 5.803343583465903e-09 0.0001656037347856909" pbc="T T T"
Ba       1.73643386       1.22784396       3.00759176      -0.00000154       0.00000133       0.00000023
Ba       5.20930112       3.68353219       9.02277438       0.00000136      -0.00000123      -0.00000059
Cd       0.00000003       0.00000001       0.00000004       0.00000249      -0.00000026      -0.00000096
F        1.77657819       1.25623059       6.01518298       0.00060061       0.00042437      -0.00000022
F        5.16915663       3.65514581       6.01518304      -0.00060165      -0.00042544      -0.00000007
F        4.32101186       1.25623079       4.54615364      -0.00029955       0.00042325       0.00051802
F        2.62472292       3.65514570       7.48421242       0.00029846      -0.00042249      -0.00051692
F        2.62472280       3.65514569       4.54615354       0.00029939      -0.00042327       0.00051863
F        4.32101201       1.25623051       7.48421248      -0.00029967       0.00042379      -0.00051853
