9
Lattice="5.949648345897504 -1.4447984430737674e-07 3.4350310864797575 1.9832160077300571 5.609382212146251 3.435031036860328 -1.9565051750290373e-08 -7.460569489741677e-08 6.87006220684716" Properties=species:S:1:pos:R:3:forces:R:3 energy=-35.14804458618164 free_energy=-35.14804458618164 stress="-3.3370258734066738e-06 9.921397925438669e-09 -5.908094458106916e-09 9.921397925438669e-09 -3.34362357534701e-06 6.646561523382388e-09 -5.908094458106916e-09 6.646561523382388e-09 -3.3361454825353576e-06" pbc="T T T"
Ba       1.98321591       1.40234571       3.43503107      -0.00000195       0.00000220       0.00000041
Ba       5.94964818       4.20703635      10.30509345       0.00000070      -0.00000025       0.00000262
Cu       0.00000006       0.00000005      -0.00000007       0.00000011       0.00000035      -0.00000112
Cl       1.95859723       1.38493737       6.87006218      -0.00068216      -0.00048327      -0.00000057
Cl       5.97426727       4.22444458       6.87006213       0.00068283       0.00048350      -0.00000016
Cl       4.97034965       1.38493726       5.13122616       0.00034095      -0.00048254      -0.00059211
Cl       2.96251477       4.22444465       8.60889827      -0.00034000       0.00048178       0.00059055
Cl       2.96251465       4.22444473       5.13122603      -0.00034110       0.00048193      -0.00059114
Cl       4.97034963       1.38493724       8.60889821       0.00034064      -0.00048380       0.00059159
