9
Lattice="6.7923943475342226 -2.1547053230415088e-07 3.9215909156383053 2.2641312380498553 6.403930891960855 3.921590929461065 1.4044550845504703e-08 2.686039040344959e-08 7.8431818069507" Properties=species:S:1:pos:R:3:forces:R:3 energy=-30.221248626708984 free_energy=-30.221248626708984 stress="-1.4292640116764233e-05 1.116595704786505e-09 1.3109429097823977e-09 1.116595704786505e-09 -1.4291960724222008e-05 5.626428656313465e-09 1.3109429097823977e-09 5.626428656313465e-09 -1.4270378414948937e-05" pbc="T T T"
Ba       2.26413126       1.60098253       3.92159080      -0.00000034      -0.00000023      -0.00000011
Ba       6.79239424       4.80294837      11.76477259      -0.00000026       0.00000031       0.00000022
Co       0.00000010      -0.00000023       0.00000022      -0.00000026       0.00000126      -0.00000027
I        2.21464275       1.56598912       7.84318174      -0.00269945      -0.00190855      -0.00000001
I        6.84188281       4.83794168       7.84318198       0.00269934       0.00190787      -0.00000048
I        5.68507273       1.56598851       5.83952818       0.00134942      -0.00190730      -0.00233757
I        3.37145305       4.83794210       9.84683555      -0.00134875       0.00190763       0.00233754
I        3.37145271       4.83794211       5.83952802      -0.00134865       0.00190705      -0.00233730
I        5.68507275       1.56598865       9.84683555       0.00134897      -0.00190806       0.00233788
