9
Lattice="5.214231955852935 -4.4832617656349316e-08 3.0104382374448053 1.7380772902818198 4.916025006798841 3.010438213312476 -9.161204308488242e-09 -3.603389662881379e-08 6.02087649075732" Properties=species:S:1:pos:R:3:forces:R:3 energy=-49.663780212402344 free_energy=-49.663780212402344 stress="0.00016267546743620187 -9.538895007210613e-09 -8.928978445510438e-09 -9.538895007210613e-09 0.000162659227498807 -1.3422686961916952e-08 -8.928978445510438e-09 -1.3422686961916952e-08 0.00016266411694232374" pbc="T T T"
Ba       1.73807743       1.22900591       3.01043815      -0.00000043       0.00000002       0.00000121
Ba       5.21423188       3.68701859       9.03131470       0.00000029       0.00000050      -0.00000203
Ca      -0.00000010       0.00000014       0.00000014       0.00000327      -0.00000420       0.00000094
F        1.76671915       1.24925913       6.02087655       0.00102846       0.00072721       0.00000016
F        5.18559008       3.66676601       6.02087654      -0.00102909      -0.00072762      -0.00000018
F        4.33087235       1.24925900       4.54046188      -0.00051397       0.00072740       0.00089060
F        2.62143698       3.66676592       7.50129078       0.00051318      -0.00072501      -0.00088810
F        2.62143674       3.66676612       4.54046190       0.00051424      -0.00072686       0.00089010
F        4.33087234       1.24925889       7.50129104      -0.00051606       0.00072856      -0.00089269
