9
Lattice="5.05978854456976 -9.195153347555703e-08 2.9212703269575515 1.6865961354309207 4.770414193523305 2.921270256635605 5.39497537816245e-08 -4.797819106040945e-08 5.842540560471251" Properties=species:S:1:pos:R:3:forces:R:3 energy=-49.40557098388672 free_energy=-49.40557098388672 stress="0.0003078818554058671 1.425481954697716e-08 -1.2716436792459263e-08 1.425481954697716e-08 0.0003078624722547829 2.2027450974348994e-09 -1.2716436792459263e-08 2.2027450974348994e-09 0.00030787414289079607" pbc="T T T"
Ba       1.68659635       1.19260353       2.92127037      -0.00000098      -0.00000043      -0.00000026
Ba       5.05978834       3.57781020       8.76381091       0.00000087       0.00000091      -0.00000020
Co      -0.00000019      -0.00000028       0.00000047       0.00000013       0.00000421      -0.00001141
F        1.61824752       1.14427397       5.84254043       0.00060792       0.00042983      -0.00000005
F        5.12813721       3.62614034       5.84254049      -0.00060923      -0.00043091       0.00000079
F        4.25066502       1.14427357       4.32271363      -0.00030641       0.00043270       0.00052986
F        2.49571999       3.62614037       7.36236746       0.00030376      -0.00042972      -0.00052666
F        2.49571990       3.62614072       4.32271351       0.00030702      -0.00043522       0.00053250
F        4.25066485       1.14427373       7.36236740      -0.00030307       0.00042863      -0.00052467
