9
Lattice="6.560298985900883 -3.0663546573096773e-09 3.787590389921207 2.186766293432737 6.18510928124523 3.787590445883598 -4.994852387554748e-08 3.322070439321491e-08 7.575180866355791" Properties=species:S:1:pos:R:3:forces:R:3 energy=-33.79496765136719 free_energy=-33.79496765136719 stress="-0.0001124534901464358 1.6642461853066948e-09 -8.947316665341987e-09 1.6642461853066948e-09 -0.00011244950292166322 6.663914753346489e-09 -8.947316665341987e-09 6.663914753346489e-09 -0.00011243916378589347" pbc="T T T"
Ba       2.18676637       1.54627733       3.78759044       0.00000014      -0.00000083       0.00000049
Ba       6.56029885       4.63883199      11.36277125      -0.00000015       0.00000032      -0.00000082
Ca      -0.00000015       0.00000011      -0.00000002       0.00000146      -0.00000247      -0.00000199
Br       2.26819358       1.60385517       7.57518085       0.00012899       0.00009079      -0.00000036
Br       6.47887163       4.58125415       7.57518086      -0.00012832      -0.00009091      -0.00000003
Br       5.42620218       1.60385512       5.75190359      -0.00006531       0.00009192       0.00011252
Br       3.32086313       4.58125415       9.39845799       0.00006309      -0.00008901      -0.00010913
Br       3.32086314       4.58125414       5.75190371       0.00006514      -0.00009152       0.00011190
Br       5.42620217       1.60385507       9.39845813      -0.00006508       0.00009166      -0.00011259
