9
Lattice="7.060656937083392 -1.674508909452418e-07 4.076472350664036 2.353552189252991 6.656851164416597 4.076472290447442 2.392654730656372e-08 -5.683138458277977e-08 8.152944659886083" Properties=species:S:1:pos:R:3:forces:R:3 energy=-29.187358856201172 free_energy=-29.187358856201172 stress="-2.3974795112735592e-05 -1.355994427854057e-08 8.402460949241686e-09 -1.355994427854057e-08 -2.3967137167346664e-05 -8.451925381791625e-09 8.402460949241686e-09 -8.451925381791625e-09 -2.3947504814714193e-05" pbc="T T T"
Ba       2.35355256       1.66421296       4.07647278      -0.00000090      -0.00000189      -0.00000018
Ba       7.06065646       4.99263803      12.22941646       0.00000147       0.00000160      -0.00000030
Ca      -0.00000013      -0.00000019      -0.00000027       0.00000037       0.00000142       0.00000329
I        2.45664780       1.73711194       8.15294465      -0.00048764      -0.00034322      -0.00000033
I        6.95756172       4.91973924       8.15294449       0.00048451       0.00034315       0.00000005
I        5.83233304       1.73711191       6.20399168       0.00024395      -0.00034346      -0.00042272
I        3.58187602       4.91973918      10.10189786      -0.00024190       0.00034200       0.00041932
I        3.58187597       4.91973895       6.20399193      -0.00024345       0.00034353      -0.00042142
I        5.83233318       1.73711175      10.10189761       0.00024363      -0.00034314       0.00042223
