9
Lattice="6.262788107110179 5.318592593860917e-08 3.6158222677534253 2.0875959925740797 5.904613318282614 3.6158224293077286 -4.431717202598241e-08 1.6652586068024683e-07 7.23164461226645" Properties=species:S:1:pos:R:3:forces:R:3 energy=-31.501731872558594 free_energy=-31.501731872558594 stress="9.776520892046392e-05 2.0583139637153636e-09 -3.440809859256433e-09 2.0583139637153636e-09 9.776637307368219e-05 -2.2373125574404185e-09 -3.440809859256433e-09 -2.2373125574404185e-09 9.77653544396162e-05" pbc="T T T"
Ba       2.08759631       1.47615331       3.61582184       0.00000055      -0.00000000      -0.00000003
Ba       6.26278849       4.42846082      10.84746710      -0.00000029      -0.00000006      -0.00000010
Cu      -0.00000037      -0.00000015       0.00000011       0.00000102       0.00000044      -0.00000105
Br       2.08605932       1.47506650       7.23164467       0.00046399       0.00032856       0.00000034
Br       6.26432478       4.42954650       7.23164487      -0.00046440      -0.00032732      -0.00000071
Br       5.21975825       1.47506692       5.42240232      -0.00023182       0.00032796       0.00040234
Br       3.13062546       4.42954669       9.04088693       0.00023111      -0.00032837      -0.00040230
Br       3.13062537       4.42954664       5.42240259       0.00023223      -0.00032817       0.00040326
Br       5.21975859       1.47506693       9.04088668      -0.00023240       0.00032694      -0.00040163
