9
Lattice="6.215769006979268 -3.606262314978767e-08 3.5886758921293436 2.071922941489166 5.8602832425734075 3.5886759386125107 -4.044190208958443e-09 5.407039137600868e-08 7.177351791263353" Properties=species:S:1:pos:R:3:forces:R:3 energy=-37.86509704589844 free_energy=-37.86509704589844 stress="0.00010132017632713541 2.491592931974651e-09 5.721542128966917e-10 2.491592931974651e-09 0.00010133482282981277 -1.0316246523700556e-08 5.721542128966917e-10 -1.0316246523700556e-08 0.00010131608723895624" pbc="T T T"
Ba       2.07192302       1.46507081       3.58867532      -0.00000031      -0.00000063       0.00000026
Ba       6.21576882       4.39521244      10.76602822      -0.00000040      -0.00000050      -0.00000047
Ca       0.00000053       0.00000023       0.00000006      -0.00000671      -0.00000195       0.00000245
Cl       2.14265100       1.51508282       7.17735185      -0.00399620      -0.00282572       0.00000034
Cl       6.14504031       4.34519977       7.17735187       0.00400278       0.00283092      -0.00000010
Cl       5.14444342       1.51508349       5.44426621       0.00200053      -0.00282898      -0.00346456
Cl       3.14324868       4.34519987       8.91043751      -0.00199931       0.00282678       0.00346172
Cl       3.14324875       4.34520011       5.44426609      -0.00199955       0.00282829      -0.00346346
Cl       5.14444326       1.51508350       8.91043740       0.00199920      -0.00282818       0.00346385
