9
Lattice="5.041107862223129 -5.670378298579707e-08 2.9104849128029273 1.6803692545079858 4.752801919874856 2.910484877190032 5.074123497131524e-09 -4.00287447911799e-08 5.8209698168172155" Properties=species:S:1:pos:R:3:forces:R:3 energy=-46.53757095336914 free_energy=-46.53757095336914 stress="0.00038968969602137804 9.659831157193821e-09 1.1346070749596038e-08 9.659831157193821e-09 0.0003897204005625099 1.5354223448227344e-09 1.1346070749596038e-08 1.5354223448227344e-09 0.00038965282146818936" pbc="T T T"
Ba       1.68036916       1.18820048       2.91048505       0.00000067       0.00000011       0.00000021
Ba       5.04110783       3.56460145       8.73145440      -0.00000071      -0.00000040      -0.00000013
Cu      -0.00000028      -0.00000020      -0.00000019       0.00000770       0.00000488       0.00000048
F        1.62987811       1.15249769       5.82096977      -0.00038455      -0.00027259       0.00000039
F        5.09159941       3.60030426       5.82096983       0.00037608       0.00026607      -0.00000055
F        4.22616880       1.15249765       4.32200064       0.00019125      -0.00026942      -0.00032991
F        2.49530827       3.60030415       7.31993925      -0.00019033       0.00026971       0.00033018
F        2.49530827       3.60030416       4.32200050      -0.00019038       0.00027032      -0.00032999
F        4.22616892       1.15249764       7.31993915       0.00019015      -0.00026891       0.00032938
