9
Lattice="6.782729963269319 -5.102999317318827e-08 3.9160108341125017 2.2609098696253267 6.394819107661188 3.9160109553899733 -9.187616458891826e-08 8.356765524101205e-08 7.832021827359179" Properties=species:S:1:pos:R:3:forces:R:3 energy=-27.5864315032959 free_energy=-27.5864315032959 stress="1.1990466191491578e-05 3.179907670514126e-09 4.713776036169293e-09 3.179907670514126e-09 1.198179234052077e-05 -4.503149408918716e-09 4.713776036169293e-09 -4.503149408918716e-09 1.1969702427450102e-05" pbc="T T T"
Ba       2.26091026       1.59870552       3.91601119      -0.00000026      -0.00000130       0.00000011
Ba       6.78272970       4.79611384      11.74803233      -0.00000071       0.00000085       0.00000020
C        0.00000002      -0.00000012      -0.00000007      -0.00000053       0.00000054       0.00000004
I        2.24069664       1.58441239       7.83202202      -0.00445335      -0.00314923      -0.00000017
I        6.80294317       4.81040717       7.83202185       0.00445248       0.00314840      -0.00000010
I        5.66238124       1.58441207       5.85651113       0.00222721      -0.00314924      -0.00385612
I        3.38125851       4.81040686       9.80753245      -0.00222634       0.00314993       0.00385653
I        3.38125837       4.81040663       5.85651134      -0.00222635       0.00314944      -0.00385672
I        5.66238103       1.58441221       9.80753232       0.00222777      -0.00314935       0.00385634
