9
Lattice="6.3371772538052555 1.970750336051092e-07 3.6587710839230114 2.1123926364494334 5.9747480814863945 3.6587710272672016 4.4552827810483975e-08 -3.7885305942976316e-08 7.3175420906781925" Properties=species:S:1:pos:R:3:forces:R:3 energy=-38.29426574707031 free_energy=-38.29426574707031 stress="6.367152673192322e-05 1.0801133321081124e-08 -6.793358320322795e-09 1.0801133321081124e-08 6.367330206558108e-05 1.155448714484919e-08 -6.793358320322795e-09 1.155448714484919e-08 6.364870932884514e-05" pbc="T T T"
Ba       2.11239269       1.49368704       3.65877140      -0.00000065       0.00000037       0.00000045
Ba       6.33717723       4.48106113      10.97631282       0.00000062      -0.00000041      -0.00000049
Cr       0.00000157       0.00000031       0.00000040      -0.00001638      -0.00000336      -0.00000009
Br       2.07641126       1.46824434       7.31754199      -0.00062005      -0.00043811      -0.00000036
Br       6.37315730       4.50650316       7.31754187       0.00063220       0.00044698       0.00000019
Br       5.29897177       1.46824489       5.45699596       0.00031328      -0.00044337      -0.00054128
Br       3.15059802       4.50650374       9.17808844      -0.00031049       0.00043982       0.00053884
Br       3.15059835       4.50650372       5.45699558      -0.00031098       0.00043967      -0.00053744
Br       5.29897162       1.46824467       9.17808831       0.00031231      -0.00044158       0.00054026
