9
Lattice="6.9789841492719855 2.0719451753455041e-07 4.029318241919204 2.326328215589366 6.579849228609652 4.029318293036852 -8.621588083103041e-09 5.6509753234554096e-08 8.058636498771387" Properties=species:S:1:pos:R:3:forces:R:3 energy=-25.395252227783203 free_energy=-25.395252227783203 stress="-5.119234265293926e-05 7.308191385391183e-09 -8.410832585958872e-10 7.308191385391183e-09 -5.119206616654992e-05 2.6237743089296828e-09 -8.410832585958872e-10 2.6237743089296828e-09 -5.119461638969369e-05" pbc="T T T"
Ba       2.32632758       1.64496206       4.02931738       0.00000108       0.00000012      -0.00000190
Ba       6.97898470       4.93488730      12.08795576      -0.00000158      -0.00000082       0.00000082
Cd       0.00000030      -0.00000001      -0.00000011      -0.00000268       0.00000007      -0.00000095
I        2.39307818       1.69216193       8.05863651      -0.00098602      -0.00069717      -0.00000020
I        6.91223407       4.88768770       8.05863645       0.00098775       0.00069857       0.00000061
I        5.78244533       1.69216189       6.10178483       0.00049288      -0.00069739      -0.00085313
I        3.52286688       4.88768764      10.01548831      -0.00049295       0.00069794       0.00085327
I        3.52286724       4.88768751       6.10178467      -0.00049271       0.00069755      -0.00085358
I        5.78244515       1.69216194      10.01548832       0.00049424      -0.00069888       0.00085508
