9
Lattice="5.986297175569856 -6.969917366913097e-08 3.4561903277055994 1.9954323286534035 5.643935096996546 3.4561903233585256 1.8925418658239593e-08 8.058218220915618e-09 6.912380622631508" Properties=species:S:1:pos:R:3:forces:R:3 energy=-38.363285064697266 free_energy=-38.363285064697266 stress="0.00010455198207637295 -2.7407676128632374e-09 1.816702691059824e-11 -2.7407676128632374e-09 0.00010455733718117699 -6.438791722018777e-09 1.816702691059824e-11 -6.438791722018777e-09 0.000104580118204467" pbc="T T T"
Ba       1.99543236       1.41098348       3.45619026       0.00000031       0.00000031      -0.00000021
Ba       5.98629709       4.23295117      10.36857103       0.00000043       0.00000044       0.00000023
Co      -0.00000024      -0.00000094       0.00000082       0.00000363       0.00001090      -0.00000969
Cl       1.94138071       1.37276318       6.91238075      -0.00827068      -0.00584658      -0.00000145
Cl       6.04035010       4.27117285       6.91238058       0.00825736       0.00583850      -0.00000007
Cl       5.01560708       1.37276256       5.13747495       0.00413286      -0.00584117      -0.00715763
Cl       2.96612223       4.27117222       8.68728637      -0.00413223       0.00584515       0.00715794
Cl       2.96612230       4.27117246       5.13747466      -0.00412905       0.00583969      -0.00715298
Cl       5.01560650       1.37276314       8.68728567       0.00413741      -0.00584713       0.00716415
