9
Lattice="6.450137320835315 4.713812094628875e-09 3.723988402975378 2.1500457208405113 6.08124785580262 3.7239885020756187 -1.277355034307477e-07 3.104985297626312e-08 7.447977027195269" Properties=species:S:1:pos:R:3:forces:R:3 energy=-29.6826229095459 free_energy=-29.6826229095459 stress="-4.575575439957902e-05 -4.19875156865146e-09 -4.5030952300351146e-09 -4.19875156865146e-09 -4.5751854486297816e-05 -8.486457758749566e-09 -4.5030952300351146e-09 -8.486457758749566e-09 -4.574841295834631e-05" pbc="T T T"
Ba       2.15004560       1.52031223       3.72398837      -0.00000086       0.00000101       0.00000004
Ba       6.45013738       4.56093548      11.17196569       0.00000065      -0.00000131       0.00000019
Cd       0.00000021       0.00000010       0.00000041       0.00000039       0.00000009      -0.00000305
Br       2.22134252       1.57072626       7.44797693      -0.00733510      -0.00518674      -0.00000026
Br       6.37883981       4.51052127       7.44797687       0.00733645       0.00518771      -0.00000015
Br       5.33946599       1.57072673       5.64772747       0.00366744      -0.00518715      -0.00635242
Br       3.26071717       4.51052129       9.24822616      -0.00366952       0.00518851       0.00635465
Br       3.26071712       4.51052141       5.64772774      -0.00366827       0.00518693      -0.00635321
Br       5.33946582       1.57072682       9.24822609       0.00366887      -0.00518904       0.00635424
