9
Lattice="6.821792787487544 -9.84266168854694e-08 3.93856397397069 2.273930837078591 6.431647710184848 3.938563972734661 9.570270185187213e-08 6.615822255978827e-08 7.87712778217939" Properties=species:S:1:pos:R:3:forces:R:3 energy=-31.5288028717041 free_energy=-31.5288028717041 stress="-0.0002212523395428434 -1.214714995256827e-08 1.4175478568745348e-09 -1.214714995256827e-08 -0.00022123988310340792 -6.192663715154367e-09 1.4175478568745348e-09 -6.192663715154367e-09 -0.0002212348917964846" pbc="T T T"
Ba       2.27393180       1.60791166       3.93856590      -0.00000086      -0.00000048      -0.00000002
Ba       6.82179176       4.82373591      11.81568955       0.00000093      -0.00000001       0.00000019
Fe       0.00000006      -0.00000008      -0.00000024       0.00000060      -0.00000011       0.00000108
I        2.24969582       1.59077483       7.87712787       0.00201489       0.00142501      -0.00000006
I        6.84602801       4.84087279       7.87712809      -0.00201491      -0.00142477      -0.00000004
I        5.69694505       1.59077510       5.88685782      -0.00100766       0.00142442       0.00174411
I        3.39877859       4.84087285       9.86739827       0.00100770      -0.00142499      -0.00174527
I        3.39877857       4.84087256       5.88685759       0.00100764      -0.00142473       0.00174525
I        5.69694522       1.59077508       9.86739806      -0.00100829       0.00142570      -0.00174526
