9
Lattice="5.989861346001942 -1.326296305436489e-07 3.4582481010282335 1.996620379908223 5.647295493729101 3.4582480035391807 5.749683121847889e-08 -7.874285364450813e-08 6.9164961024690195" Properties=species:S:1:pos:R:3:forces:R:3 energy=-40.13080978393555 free_energy=-40.13080978393555 stress="-0.00017233307880815119 -1.2952658501319547e-08 6.241138272855551e-09 -1.2952658501319547e-08 -0.0001723184686852619 -6.484245140825351e-09 6.241138272855551e-09 -6.484245140825351e-09 -0.0001723380119074136" pbc="T T T"
Ba       1.99662012       1.41182357       3.45824781       0.00000001       0.00000037      -0.00000001
Ba       5.98986158       4.23547181      10.37474455      -0.00000019       0.00000004      -0.00000018
Fe      -0.00000043       0.00000015      -0.00000195       0.00000467      -0.00000131       0.00001776
Cl       1.94216647       1.37331912       6.91649603       0.00082649       0.00058358       0.00000187
Cl       6.04431559       4.27397629       6.91649592      -0.00083066      -0.00058638       0.00000200
Cl       5.01877790       1.37331947       5.14021392      -0.00040988       0.00057948       0.00071236
Cl       2.96770334       4.27397655       8.69277927       0.00041764      -0.00058846      -0.00072183
Cl       2.96770410       4.27397560       5.14021394       0.00040881      -0.00057724       0.00071067
Cl       5.01877845       1.37331863       8.69277944      -0.00041693       0.00058987      -0.00072251
