9
Lattice="6.3188762980222615 -8.7435101696681e-08 3.6482049236638363 2.1062920472609505 5.9574937818055425 3.648204871088009 1.017019159811861e-07 7.52203096041905e-09 7.296409671174814" Properties=species:S:1:pos:R:3:forces:R:3 energy=-36.01139450073242 free_energy=-36.01139450073242 stress="0.00024168276286218315 -2.1857382570544814e-09 -5.936120928140554e-09 -2.1857382570544814e-09 0.00024169517564587295 6.11358130786499e-10 -5.936120928140554e-09 6.11358130786499e-10 0.00024167817900888622" pbc="T T T"
Ba       2.10629211       1.48937357       3.64820474      -0.00000085       0.00000043       0.00000019
Ba       6.31887653       4.46812027      10.94461474       0.00000069      -0.00000047      -0.00000017
Fe      -0.00000013      -0.00000040      -0.00000045       0.00000104       0.00000312       0.00000350
Br       2.08190101       1.47212635       7.29640977      -0.00039699      -0.00028127       0.00000047
Br       6.34326768       4.48536746       7.29640965       0.00039531       0.00028004       0.00000098
Br       5.27792573       1.47212650       5.45118424       0.00019891      -0.00028275      -0.00034484
Br       3.14724240       4.48536756       9.14163595      -0.00019676       0.00027854       0.00034115
Br       3.14724256       4.48536727       5.45118375      -0.00019872       0.00028156      -0.00034376
Br       5.27792590       1.47212618       9.14163558       0.00019739      -0.00027915       0.00034243
