9
Lattice="5.093041959119919 3.376719922532171e-08 2.9404691312800955 1.6976806590509521 4.80176606032815 2.940469176010406 -4.81097391702727e-09 5.138134133655502e-08 5.880938270893007" Properties=species:S:1:pos:R:3:forces:R:3 energy=-50.495635986328125 free_energy=-50.495635986328125 stress="6.652259617112577e-05 2.9740620632878745e-08 -9.514477206096217e-09 2.9740620632878745e-08 6.649746501352638e-05 2.0869135752832335e-08 -9.514477206096217e-09 2.0869135752832335e-08 6.647519330726936e-05" pbc="T T T"
Ba       1.69768080       1.20044150       2.94046921      -0.00000047       0.00000060      -0.00000057
Ba       5.09304213       3.60132462       8.82140732       0.00000041      -0.00000023       0.00000020
Fe       0.00000009       0.00000021      -0.00000032      -0.00000071      -0.00000228       0.00000690
F        1.66295881       1.17588932       5.88093827       0.00023397       0.00016575       0.00000121
F        5.12776365       3.62587668       5.88093832      -0.00023241      -0.00016457      -0.00000015
F        4.26156255       1.17588915       4.38063351      -0.00011614       0.00016487       0.00020199
F        2.52915982       3.62587704       7.38124321       0.00011846      -0.00016777      -0.00020538
F        2.52915992       3.62587692       4.38063356       0.00011640      -0.00016459       0.00020182
F        4.26156271       1.17588915       7.38124320      -0.00011951       0.00016819      -0.00020592
