9
Lattice="6.48152242081046 -8.643194187708116e-08 3.7421087315551333 2.160507411904918 6.110837904662941 3.7421086972773976 2.5624394671158086e-09 -4.016953482408906e-08 7.484217458671978" Properties=species:S:1:pos:R:3:forces:R:3 energy=-32.34329605102539 free_energy=-32.34329605102539 stress="0.00011779225314967334 -8.760692615794596e-09 2.712877478217024e-09 -8.760692615794596e-09 0.00011780810746131465 -1.0652296822399876e-08 2.712877478217024e-09 -1.0652296822399876e-08 0.00011780685599660501" pbc="T T T"
Ba       2.16050757       1.52770952       3.74210868       0.00000013      -0.00000048      -0.00000010
Ba       6.48152226       4.58312830      11.22632621       0.00000035       0.00000091       0.00000018
Ge      -0.00000013      -0.00000015      -0.00000004       0.00000186       0.00000134      -0.00000034
Br       2.22069211       1.57026639       7.48421747      -0.00016163      -0.00011420      -0.00000037
Br       6.42133793       4.54057152       7.48421743       0.00016011       0.00011273       0.00000026
Br       5.37117622       1.57026651       5.66528477       0.00008048      -0.00011392      -0.00013966
Br       3.27085357       4.54057127       9.30315019      -0.00008138       0.00011395       0.00014015
Br       3.27085358       4.54057130       5.66528466      -0.00008076       0.00011390      -0.00014009
Br       5.37117624       1.57026647       9.30315018       0.00008072      -0.00011418       0.00014003
