9
Lattice="5.242743607535874 -1.3814653149355474e-07 3.0268994211256537 1.7475811007606774 4.942906329691196 3.0268993717716346 3.970265533903323e-08 -3.2372030790372184e-08 6.053798773484273" Properties=species:S:1:pos:R:3:forces:R:3 energy=-46.92781448364258 free_energy=-46.92781448364258 stress="0.00012357252126093954 -1.39806735077741e-08 6.387772089055943e-09 -1.39806735077741e-08 0.00012359771062619984 6.3831269159209114e-09 6.387772089055943e-09 6.3831269159209114e-09 0.00012357797822915018" pbc="T T T"
Ba       1.74758138       1.23572651       3.02689955       0.00000071       0.00000059       0.00000108
Ba       5.24274364       3.70717982       9.08069802      -0.00000058       0.00000000       0.00000129
Ge       0.00000003       0.00000015       0.00000061       0.00000037      -0.00000205      -0.00000050
F        1.77979632       1.25850593       6.05379868      -0.00097663      -0.00069078      -0.00000050
F        5.21052813       3.68440013       6.05379887       0.00097713       0.00069103      -0.00000050
F        4.35284526       1.25850608       4.56824844       0.00048797      -0.00069107      -0.00084638
F        2.63747966       3.68439978       7.53934878      -0.00048897       0.00069139       0.00084694
F        2.63747938       3.68439974       4.56824850      -0.00048828       0.00069059      -0.00084582
F        4.35284517       1.25850635       7.53934904       0.00048815      -0.00068976       0.00084487
