9
Lattice="6.182135550030811 -1.453796137168694e-08 3.569257558313563 2.060711935340294 5.828573165178636 3.5692573867771906 7.961850983104914e-08 -1.5378946353257643e-07 7.138514978723881" Properties=species:S:1:pos:R:3:forces:R:3 energy=-36.040489196777344 free_energy=-36.040489196777344 stress="0.0001714597747195512 -2.3994315423436774e-09 3.80100662056293e-09 -2.3994315423436774e-09 0.00017146975733339787 -2.619025440964151e-09 3.80100662056293e-09 -2.619025440964151e-09 0.00017145446327049285" pbc="T T T"
Ba       2.06071178       1.45714321       3.56925777      -0.00000003       0.00000010       0.00000091
Ba       6.18213566       4.37142985      10.70777227      -0.00000003      -0.00000006      -0.00000101
Ge       0.00000009      -0.00000018      -0.00000064       0.00000084      -0.00000011       0.00000368
Cl       2.08770104       1.47622719       7.13851492      -0.00342761      -0.00242351      -0.00000056
Cl       6.15514651       4.35234593       7.13851502       0.00342704       0.00242333       0.00000050
Cl       5.13828499       1.47622748       5.37725916       0.00171342      -0.00242303      -0.00296733
Cl       3.10456222       4.35234598       8.89977103      -0.00171235       0.00242174       0.00296567
Cl       3.10456262       4.35234553       5.37725911      -0.00171403       0.00242312      -0.00296801
Cl       5.13828537       1.47622696       8.89977110       0.00171273      -0.00242153       0.00296599
