9
Lattice="6.975285280686528 3.237512162723166e-07 4.027182516751696 2.325095335900173 6.576361984665924 4.027182625693485 -8.730547906220489e-08 7.169159656701069e-08 8.054365184720892" Properties=species:S:1:pos:R:3:forces:R:3 energy=-28.314815521240234 free_energy=-28.314815521240234 stress="-4.543592149275355e-05 6.683778508431715e-08 -4.278326137807653e-09 6.683778508431715e-08 -4.5486063754651695e-05 3.1796578703335854e-09 -4.278326137807653e-09 3.1796578703335854e-09 -4.5539152779383585e-05" pbc="T T T"
Ba       2.32509531       1.64409052       4.02718218       0.00000106      -0.00000006       0.00000018
Ba       6.97528542       4.93227185      12.08154820      -0.00000021       0.00000013      -0.00000003
Ge       0.00000012      -0.00000000      -0.00000006       0.00000017      -0.00000002      -0.00000111
I        2.39949677       1.69670025       8.05436506      -0.00622027      -0.00439870      -0.00000011
I        6.90088383       4.87966242       8.05436522       0.00622037       0.00439853      -0.00000043
I        5.77553698       1.69670030       6.10520706       0.00310945      -0.00439713      -0.00538598
I        3.52484344       4.87966185      10.00352325      -0.00311025       0.00439797       0.00538637
I        3.52484329       4.87966189       6.10520714      -0.00310986       0.00439729      -0.00538578
I        5.77553693       1.69670043      10.00352326       0.00310955      -0.00439800       0.00538689
