9
Lattice="6.523911014939797 -7.08680078682852e-08 3.7665818145875787 2.17463695441803 6.150802235484575 3.766581786436349 2.4701221452019776e-08 -1.7011694168358627e-08 7.533163586391357" Properties=species:S:1:pos:R:3:forces:R:3 energy=-27.467790603637695 free_energy=-27.467790603637695 stress="-2.2009578970028087e-05 -2.54279086675524e-09 -5.636738631409344e-09 -2.54279086675524e-09 -2.2004802303854376e-05 1.8186665506902955e-09 -5.636738631409344e-09 1.8186665506902955e-09 -2.2004192942404188e-05" pbc="T T T"
Ba       2.17463733       1.53770007       3.76658197      -0.00000004      -0.00000007       0.00000022
Ba       6.52391092       4.61310179      11.29974525      -0.00000013      -0.00000016       0.00000010
Hg       0.00000069       0.00000043       0.00000088      -0.00000458      -0.00000221      -0.00000779
Br       2.27209170       1.60661145       7.53316375      -0.00086232      -0.00060881      -0.00000099
Br       6.42645517       4.54419021       7.53316376       0.00086912       0.00061445      -0.00000071
Br       5.38786496       1.60661145       5.73427094       0.00043068      -0.00061020      -0.00074769
Br       3.31068328       4.54419037       9.33205565      -0.00043526       0.00061355       0.00075094
Br       3.31068318       4.54419081       5.73427101      -0.00043219       0.00060926      -0.00074722
Br       5.38786477       1.60661201       9.33205555       0.00043474      -0.00061577       0.00075313
