9
Lattice="6.209949526140427 -4.823536397659474e-08 3.5853161625357446 2.069983103379422 5.854796636745502 3.5853162084766454 -9.567251379196058e-09 4.950080768317831e-08 7.170632341642357" Properties=species:S:1:pos:R:3:forces:R:3 energy=-30.925668716430664 free_energy=-30.925668716430664 stress="5.815480835735798e-05 4.373152062697727e-09 -7.404420188095173e-09 4.373152062697727e-09 5.814229734824039e-05 8.608338930571335e-09 -7.404420188095173e-09 8.608338930571335e-09 5.814906398882158e-05" pbc="T T T"
Ba       2.06998315       1.46369900       3.58531626       0.00000067      -0.00000076       0.00000045
Ba       6.20994962       4.39109769      10.75594877      -0.00000046       0.00000019       0.00000040
Hg       0.00000029       0.00000042       0.00000012      -0.00000249      -0.00000152      -0.00000106
Cl       2.14579600       1.51730701       7.17063257      -0.00407623      -0.00288208      -0.00000048
Cl       6.13413600       4.33748918       7.17063227       0.00407959       0.00288542      -0.00000038
Cl       5.13705176       1.51730676       5.44363005       0.00203811      -0.00288315      -0.00353162
Cl       3.14288113       4.33748973       8.89763436      -0.00203948       0.00288370       0.00353172
Cl       3.14288104       4.33748989       5.44362999      -0.00203834       0.00288238      -0.00353099
Cl       5.13705146       1.51730689       8.89763444       0.00203867      -0.00288425       0.00353194
