9
Lattice="7.010697450821131 -2.2698406198592136e-07 4.047628114391555 2.336899136138489 6.609748657894112 4.047627768211134 1.5314958651805993e-07 -3.156895953211354e-07 8.095255963520206" Properties=species:S:1:pos:R:3:forces:R:3 energy=-23.559261322021484 free_energy=-23.559261322021484 stress="-9.368316386826336e-05 -8.522929917376132e-09 -1.3751554339691552e-09 -8.522929917376132e-09 -9.36765645747073e-05 3.9014378394597315e-09 -1.3751554339691552e-09 3.9014378394597315e-09 -9.367115126224235e-05" pbc="T T T"
Ba       2.33689922       1.65243748       4.04762849      -0.00000032       0.00000257       0.00000211
Ba       7.01069765       4.95731004      12.14288325       0.00000034      -0.00000278      -0.00000240
Hg      -0.00000012      -0.00000015      -0.00000010      -0.00000006      -0.00000025       0.00000169
I        2.43448904       1.72144350       8.09525598      -0.00336890      -0.00238178       0.00000063
I        6.91310802       4.88830488       8.09525603       0.00336844       0.00238204      -0.00000041
I        5.79345286       1.72144317       6.15595693       0.00168482      -0.00238249      -0.00291688
I        3.55414380       4.88830522      10.03455501      -0.00168363       0.00238149       0.00291597
I        3.55414338       4.88830489       6.15595681      -0.00168519       0.00238279      -0.00291715
I        5.79345309       1.72144343      10.03455501       0.00168451      -0.00238154       0.00291644
