9
Lattice="5.27417785448468 -4.688638978271259e-08 3.045048061460746 1.7580592719028343 4.9725425508235 3.045048007282989 4.6690232485907065e-08 -3.333888917940858e-08 6.090096042051596" Properties=species:S:1:pos:R:3:forces:R:3 energy=-41.006160736083984 free_energy=-41.006160736083984 stress="6.927666981937364e-05 -1.0873895561758218e-08 -7.603356139140871e-11 -1.0873895561758218e-08 6.926309288246557e-05 -7.647806832267179e-09 -7.603356139140871e-11 -7.647806832267179e-09 6.927823415026069e-05" pbc="T T T"
Ba       1.75805914       1.24313543       3.04504807       0.00000024      -0.00000018       0.00000137
Ba       5.27417791       3.72940674       9.13514403      -0.00000058      -0.00000001      -0.00000038
Hg      -0.00000008       0.00000027      -0.00000015      -0.00000259      -0.00000628       0.00000011
F        1.82836503       1.29284936       6.09009606       0.00080895       0.00057178       0.00000033
F        5.20387194       3.67969301       6.09009609      -0.00080265      -0.00056795      -0.00000047
F        4.35999532       1.29284954       4.62845891      -0.00040299       0.00057010       0.00069864
F        2.67224211       3.67969298       7.55173332       0.00040143      -0.00056882      -0.00069642
F        2.67224198       3.67969299       4.62845887       0.00040173      -0.00056861       0.00069690
F        4.35999535       1.29284963       7.55173327      -0.00040372       0.00057017      -0.00070006
