9
Lattice="7.032451563239199 1.0403109796544598e-07 4.060187757955303 2.344150583598422 6.630258976659632 4.060187819551833 -2.153042944749261e-09 7.391760376603778e-08 8.120375519639817" Properties=species:S:1:pos:R:3:forces:R:3 energy=-26.920568466186523 free_energy=-26.920568466186523 stress="-7.309290958801284e-05 9.08704400615079e-09 -1.049474374070769e-08 9.08704400615079e-09 -7.308999192900956e-05 1.0237885206265673e-08 -1.049474374070769e-08 1.0237885206265673e-08 -7.309166539926082e-05" pbc="T T T"
Ba       2.34415021       1.65756384       4.06018665       0.00000025      -0.00000122      -0.00000092
Ba       7.03245198       4.97269523      12.18056426       0.00000025       0.00000081       0.00000058
In      -0.00000011      -0.00000015      -0.00000042       0.00000134       0.00000094       0.00000267
I        2.39971938       1.69685794       8.12037561      -0.00623206      -0.00440735       0.00000038
I        6.97688296       4.93340141       8.12037544       0.00622968       0.00440578       0.00000011
I        5.83259188       1.69685808       6.13840593       0.00311626      -0.00440636      -0.00539641
I        3.54401012       4.93340125      10.10234541      -0.00311586       0.00440603       0.00539612
I        3.54401041       4.93340103       6.13840611      -0.00311613       0.00440859      -0.00539843
I        5.83259175       1.69685798      10.10234541       0.00311627      -0.00440720       0.00539592
