9
Lattice="5.289879136437183 -1.708517871573242e-07 3.054113351378643 1.7632929319608701 4.987345958829939 3.05411326899819 2.0088244323920615e-08 -8.669053996280595e-08 6.10822666796342" Properties=species:S:1:pos:R:3:forces:R:3 energy=-46.30076217651367 free_energy=-46.30076217651367 stress="0.0003245858533773571 -1.3266536758038683e-09 1.762820112105601e-08 -1.3266536758038683e-09 0.00032456550979986787 -2.9799966938526268e-08 1.762820112105601e-08 -2.9799966938526268e-08 0.00032451364677399397" pbc="T T T"
Ba       1.76329309       1.24683650       3.05411340      -0.00000169      -0.00000156      -0.00000027
Ba       5.28987906       3.74050923       9.16233998       0.00000097       0.00000148       0.00000043
In      -0.00000003      -0.00000010      -0.00000006       0.00000081      -0.00000039       0.00000129
F        1.75075536       1.23797081       6.10822657       0.00061512       0.00043464       0.00000001
F        5.30241691       3.74937506       6.10822665      -0.00061524      -0.00043496      -0.00000015
F        4.41450149       1.23797073       4.57031193      -0.00030711       0.00043538       0.00053293
F        2.63867046       3.74937502       7.64614160       0.00030833      -0.00043476      -0.00053316
F        2.63867057       3.74937488       4.57031189       0.00030589      -0.00043374       0.00053054
F        4.41450143       1.23797064       7.64614135      -0.00030711       0.00043404      -0.00053123
