9
Lattice="6.885514024327764 -1.655202685783859e-08 3.9753535711486863 2.2951712300387235 6.491725034282487 3.9753537370766168 2.3566124322404593e-08 2.198830952011701e-07 7.9507071014796145" Properties=species:S:1:pos:R:3:forces:R:3 energy=-33.53269958496094 free_energy=-33.53269958496094 stress="6.682984530925751e-05 -1.5249980833687005e-08 2.3314064012680547e-09 -1.5249980833687005e-08 6.683718675049022e-05 1.80559889262355e-09 2.3314064012680547e-09 1.80559889262355e-09 6.683416722808033e-05" pbc="T T T"
Ba       2.29517162       1.62293214       3.97535382      -0.00000043      -0.00000236      -0.00000040
Ba       6.88551363       4.86879337      11.92606043       0.00000140       0.00000302       0.00000030
Mn      -0.00000025       0.00000001       0.00000034       0.00000172       0.00000025      -0.00000150
I        2.29584309       1.62340659       7.95070734       0.00236613       0.00167318      -0.00000034
I        6.88484232       4.86831855       7.95070739      -0.00236782      -0.00167480      -0.00000075
I        5.73759240       1.62340623       5.96361214      -0.00118331       0.00167444       0.00205101
I        3.44309313       4.86831863       9.93780202       0.00118174      -0.00167290      -0.00204965
I        3.44309296       4.86831866       5.96361210       0.00118330      -0.00167355       0.00205094
I        5.73759223       1.62340676       9.93780205      -0.00118274       0.00167270      -0.00204958
