9
Lattice="6.925365479804873 3.206664749265383e-07 3.998361329154063 2.3084553687224267 6.529297142243054 3.998361491169681 -1.2207624536381198e-07 1.1210689796979483e-07 7.996722869750314" Properties=species:S:1:pos:R:3:forces:R:3 energy=-27.58795928955078 free_energy=-27.58795928955078 stress="-9.526143549010158e-05 2.320298086999628e-08 8.368924220292229e-09 2.320298086999628e-08 -9.526561916572973e-05 -1.8008293523053e-08 8.368924220292229e-09 -1.8008293523053e-08 -9.529440285405144e-05" pbc="T T T"
Ba       2.30845541       1.63232315       3.99836087      -0.00000004       0.00000081      -0.00000121
Ba       6.92536532       4.89697433      11.99508446      -0.00000018      -0.00000028       0.00000107
Mg       0.00000008      -0.00000006      -0.00000145       0.00000089      -0.00000088       0.00001148
I        2.34635491       1.65912367       7.99672263      -0.00726251      -0.00513568       0.00000206
I        6.88746579       4.87017395       7.99672280       0.00726249       0.00513527       0.00000156
I        5.75218751       1.65912400       6.03036478       0.00363332      -0.00513883      -0.00629163
I        3.48163245       4.87017458       9.96308198      -0.00362777       0.00513053       0.00628491
I        3.48163310       4.87017350       6.03036478      -0.00363353       0.00513880      -0.00629190
I        5.75218835       1.65912317       9.96308189       0.00362732      -0.00512977       0.00628363
