9
Lattice="5.036414236954817 6.736318666707971e-09 2.9077750335366748 1.6788047128731984 4.748376860350483 2.907775101310891 -8.286867202655252e-08 2.4409087219982816e-08 5.8155502106061645" Properties=species:S:1:pos:R:3:forces:R:3 energy=-49.841957092285156 free_energy=-49.841957092285156 stress="0.00012547368532977998 2.3716397734574457e-09 1.3680409693961337e-08 2.3716397734574457e-09 0.0001254399976460263 -2.020443012895612e-08 1.3680409693961337e-08 -2.020443012895612e-08 0.00012547639198601246" pbc="T T T"
Ba       1.67880475       1.18709439       2.90777518      -0.00000042       0.00000037      -0.00000034
Ba       5.03641403       3.56128278       8.72332530      -0.00000052      -0.00000090      -0.00000053
Mg      -0.00000010       0.00000009       0.00000017       0.00000091      -0.00000033      -0.00000046
F        1.60319079       1.13362703       5.81555023      -0.00062970      -0.00044594      -0.00000028
F        5.11202799       3.61474976       5.81555017       0.00062967       0.00044490      -0.00000055
F        4.23481878       1.13362700       4.29617890       0.00031429      -0.00044405      -0.00054414
F        2.48040016       3.61474972       7.33492122      -0.00031503       0.00044636       0.00054687
F        2.48040026       3.61474970       4.29617911      -0.00031468       0.00044573      -0.00054683
F        4.23481861       1.13362706       7.33492115       0.00031547      -0.00044600       0.00054630
