9
Lattice="5.12762585790544 -8.728942312920815e-08 2.96043606487618 1.7092085413306495 4.834371738029399 2.9604360573831774 -1.128205989899112e-09 -9.974783678501292e-09 5.920872131706435" Properties=species:S:1:pos:R:3:forces:R:3 energy=-52.87674331665039 free_energy=-52.87674331665039 stress="0.00022949915728531778 -9.55246903799889e-09 -1.1160692370282277e-09 -9.55246903799889e-09 0.00022948184050619602 2.549917788030598e-08 -1.1160692370282277e-09 2.549917788030598e-08 0.00022945704404264688" pbc="T T T"
Ba       1.70920857       1.20859289       2.96043601       0.00000107      -0.00000017       0.00000012
Ba       5.12762601       3.62577873       8.88130865      -0.00000042       0.00000124      -0.00000029
Mn       0.00000014       0.00000018      -0.00000016      -0.00000122      -0.00000443      -0.00000217
F        1.69168326       1.19620057       5.92087206       0.00015874       0.00011271      -0.00000007
F        5.14515092       3.63817084       5.92087201      -0.00015666      -0.00011145      -0.00000002
F        4.28178402       1.19620078       4.42547667      -0.00007901       0.00011186       0.00013751
F        2.55505025       3.63817107       7.41626739       0.00007712      -0.00010991      -0.00013484
F        2.55505028       3.63817091       4.42547667       0.00007910      -0.00011171       0.00013690
F        4.28178411       1.19620065       7.41626772      -0.00007886       0.00011183      -0.00013728
