9
Lattice="6.376494671769131 6.39681487479512e-08 3.681470827973841 2.125498265661668 6.011816981302209 3.68147086013998 -3.5447262901264864e-08 1.4330272943621543e-08 7.362941717344192" Properties=species:S:1:pos:R:3:forces:R:3 energy=-32.36347579956055 free_energy=-32.36347579956055 stress="-4.347656431491487e-05 -2.4075843541027098e-09 -2.6503310657233214e-09 -2.4075843541027098e-09 -4.347234425949864e-05 2.3118387204590363e-09 -2.6503310657233214e-09 2.3118387204590363e-09 -4.348039146861993e-05" pbc="T T T"
Ba       2.12549825       1.50295446       3.68147094      -0.00000053       0.00000053       0.00000050
Ba       6.37649460       4.50886274      11.04441278       0.00000039      -0.00000052      -0.00000022
Mg      -0.00000008       0.00000022       0.00000068      -0.00000091      -0.00000189      -0.00000728
Br       2.14562591       1.51718693       7.36294183      -0.00116107      -0.00082173      -0.00000026
Br       6.35636659       4.49462993       7.36294150       0.00116331       0.00082318      -0.00000039
Br       5.30368205       1.51718661       5.53963721       0.00057947      -0.00082003      -0.00100372
Br       3.19831140       4.49462996       9.18624565      -0.00058243       0.00082401       0.00100825
Br       3.19831121       4.49463041       5.53963724      -0.00058002       0.00082004      -0.00100427
Br       5.30368169       1.51718698       9.18624581       0.00058185      -0.00082362       0.00100732
