9
Lattice="6.050667050987665 5.8508432632867697e-08 3.493354210802168 2.0168891277885828 5.7046235602141175 3.493354114447485 4.024344065368976e-08 -8.955353820272873e-08 6.98670835190064" Properties=species:S:1:pos:R:3:forces:R:3 energy=-42.090118408203125 free_energy=-42.090118408203125 stress="0.0003128258395008743 -4.213124071839047e-09 1.834510676701484e-08 -4.213124071839047e-09 0.0003128220560029149 -6.700091592648505e-09 1.834510676701484e-08 -6.700091592648505e-09 0.0003128152166027576" pbc="T T T"
Ba       2.01688902       1.42615569       3.49335434       0.00000023      -0.00000042       0.00000043
Ba       6.05066727       4.27846768      10.48006247      -0.00000026       0.00000044       0.00000011
Mn      -0.00000003      -0.00000030      -0.00000046       0.00000002       0.00000460       0.00000265
Cl       1.99214705       1.40866048       6.98670819       0.00359868       0.00254514       0.00000029
Cl       6.07540946       4.29596314       6.98670830      -0.00360120      -0.00254674       0.00000071
Cl       5.05459344       1.40866092       5.21860429      -0.00179836       0.00254337       0.00311513
Cl       3.01296233       4.29596330       8.75481278       0.00180135      -0.00254802      -0.00312043
Cl       3.01296257       4.29596283       5.21860408       0.00179892      -0.00254421       0.00311773
Cl       5.05459379       1.40866038       8.75481269      -0.00179933       0.00254585      -0.00311660
