9
Lattice="5.031007381668126 7.064608091998442e-09 2.9046535586582696 1.6770024927567815 4.743279301425708 2.9046535144213994 4.886296864051022e-08 -1.9627583023210455e-08 5.8093070326834155" Properties=species:S:1:pos:R:3:forces:R:3 energy=-47.113258361816406 free_energy=-47.113258361816406 stress="0.0001050994178513065 1.2260954918019706e-08 3.806513326765071e-09 1.2260954918019706e-08 0.00010511980508454144 1.718300879360868e-08 3.806513326765071e-09 1.718300879360868e-08 0.0001050890568876639" pbc="T T T"
Ba       1.67700261       1.18581977       2.90465366      -0.00000047      -0.00000007      -0.00000000
Ba       5.03100719       3.55745921       8.71396064       0.00000093       0.00000120      -0.00000057
Ni       0.00000036       0.00000023      -0.00000077      -0.00000515      -0.00000574       0.00001791
F        1.61889134       1.14472898       5.80930702       0.00022333       0.00015809      -0.00000024
F        5.08911839       3.59855022       5.80930706      -0.00021891      -0.00015453      -0.00000057
F        4.22156164       1.14472922       4.30665469      -0.00010781       0.00015333       0.00018798
F        2.48644807       3.59855050       7.31195976       0.00011314      -0.00015916      -0.00019586
F        2.48644820       3.59855011       4.30665468       0.00010850      -0.00015320       0.00018809
F        4.22156187       1.14472894       7.31195970      -0.00011371       0.00016016      -0.00019673
