9
Lattice="6.241130132155708 -4.015620124933697e-08 3.6033182214489976 2.0803767769869896 5.884193776271733 3.6033180410938073 6.434492465893139e-08 -1.7539030465345858e-07 7.206636331449165" Properties=species:S:1:pos:R:3:forces:R:3 energy=-33.423587799072266 free_energy=-33.423587799072266 stress="0.00010058724001282826 1.5965708755061314e-08 2.3759292311353875e-09 1.5965708755061314e-08 0.00010057754116132855 1.0806098377225126e-10 2.3759292311353875e-09 1.0806098377225126e-10 0.00010058467887574807" pbc="T T T"
Ba       2.08037650       1.47104831       3.60331798       0.00000056      -0.00000061       0.00000018
Ba       6.24113033       4.41314524      10.80995462      -0.00000050       0.00000065      -0.00000007
Ni       0.00000061       0.00000002       0.00000048      -0.00000895      -0.00000067      -0.00000487
Br       2.05141640       1.45057014       7.20663635       0.00212277       0.00150234      -0.00000019
Br       6.27008971       4.43362281       7.20663636      -0.00211481      -0.00149481      -0.00000024
Br       5.21542224       1.45057031       5.37989711      -0.00106126       0.00149982       0.00183444
Br       3.10608517       4.43362346       9.03337538       0.00105953      -0.00150000      -0.00183636
Br       3.10608490       4.43362359       5.37989686       0.00106138      -0.00150260       0.00183874
Br       5.21542207       1.45057042       9.03337524      -0.00105868       0.00149592      -0.00183167
