9
Lattice="7.03822456395056 -1.3254087043802422e-07 4.063520888478862 2.346074520743921 6.635701884284838 4.0635212503831 -2.0895680979447443e-07 2.9548559119067003e-07 8.127042138881537" Properties=species:S:1:pos:R:3:forces:R:3 energy=-33.30415344238281 free_energy=-33.30415344238281 stress="-2.1025502064730972e-05 -6.082726322631515e-09 1.3296486578440181e-08 -6.082726322631515e-09 -2.1032787117292173e-05 -6.156272824853204e-09 1.3296486578440181e-08 -6.156272824853204e-09 -2.1028241462772712e-05" pbc="T T T"
Ba       2.34607397       1.65892599       4.06352133      -0.00000262       0.00000056       0.00000225
Ba       7.03822473       4.97677618      12.19056300       0.00000185      -0.00000030      -0.00000168
Nb       0.00000012      -0.00000038       0.00000017      -0.00000109       0.00000539      -0.00000118
I        2.35158939       1.66282528       8.12704209      -0.00103366      -0.00073043      -0.00000007
I        7.03270954       4.97287684       8.12704208       0.00103161       0.00072990      -0.00000005
I        5.86242946       1.66282528       6.10005771       0.00051767      -0.00073163      -0.00089705
I        3.52186942       4.97287686      10.15402659      -0.00051641       0.00072984       0.00089370
I        3.52186950       4.97287680       6.10005767      -0.00051583       0.00072862      -0.00089285
I        5.86242941       1.66282531      10.15402649       0.00051848      -0.00073195       0.00089687
