9
Lattice="6.147205193254918 8.40227589411969e-08 3.5490905996980397 2.049068469869631 5.795640672722067 3.549090611994636 -8.447485904818339e-09 9.086877265916421e-09 7.098181214027588" Properties=species:S:1:pos:R:3:forces:R:3 energy=-41.52013397216797 free_energy=-41.52013397216797 stress="0.0003544480714481324 1.5320672730467777e-08 1.3417257527237325e-08 1.5320672730467777e-08 0.00035443040542304516 -2.1759131385579167e-08 1.3417257527237325e-08 -2.1759131385579167e-08 0.0003544181236065924" pbc="T T T"
Ba       2.04906828       1.44891009       3.54909035       0.00000047       0.00000015       0.00000057
Ba       6.14720526       4.34673063      10.64727199      -0.00000020      -0.00000007       0.00000013
Nb      -0.00000041      -0.00000003      -0.00000039       0.00000413       0.00000022       0.00000182
Cl       2.06671736       1.46138987       7.09818111      -0.00597715      -0.00422654       0.00000004
Cl       6.12955639       4.33425103       7.09818128       0.00597507       0.00422391       0.00000021
Cl       5.11384676       1.46138957       5.33891981       0.00298685      -0.00422335      -0.00517157
Cl       3.08242693       4.33425146       8.85744283      -0.00298685       0.00422305       0.00517210
Cl       3.08242714       4.33425092       5.33892008      -0.00298783       0.00422540      -0.00517458
Cl       5.11384687       1.46138955       8.85744264       0.00298566      -0.00422263       0.00517118
