9
Lattice="5.94843302587363 4.5149065120233085e-08 3.4343294225411056 1.9828110434954846 5.608236497365962 3.4343294358709704 3.69515818158635e-08 4.245438820166481e-08 6.868658781080162" Properties=species:S:1:pos:R:3:forces:R:3 energy=-37.176239013671875 free_energy=-37.176239013671875 stress="3.6282763176131994e-05 5.4991713405172504e-09 2.1364259250589157e-09 5.4991713405172504e-09 3.622072472353466e-05 9.531889055836018e-09 2.1364259250589157e-09 9.531889055836018e-09 3.627268597483635e-05" pbc="T T T"
Ba       1.98281106       1.40205888       3.43432972       0.00000013       0.00000171      -0.00000061
Ba       5.94843310       4.20617759      10.30298790      -0.00000096      -0.00000128       0.00000108
Ni       0.00000037       0.00000005      -0.00000020      -0.00000426       0.00000178       0.00000238
Cl       1.93454751       1.36793162       6.86865894      -0.00831854      -0.00588242      -0.00000045
Cl       5.99669653       4.24030488       6.86865861       0.00832017       0.00588368       0.00000078
Cl       4.98115918       1.36793181       5.10969664       0.00416058      -0.00588488      -0.00720608
Cl       2.95008472       4.24030492       8.62762130      -0.00415792       0.00588174       0.00720187
Cl       2.95008467       4.24030477       5.10969643      -0.00415931       0.00588239      -0.00720279
Cl       4.98115929       1.36793184       8.62762118       0.00416012      -0.00588258       0.00720391
