9
Lattice="6.753265092766005 7.947122004326967e-08 3.8989992921000862 2.2510884930999744 6.3670391773918436 3.898999198710633 6.670408555073846e-08 -6.72114232097113e-08 7.797998468665351" Properties=species:S:1:pos:R:3:forces:R:3 energy=-29.31041717529297 free_energy=-29.31041717529297 stress="2.5836218355834717e-06 4.939872955134206e-09 -2.1658912441324674e-09 4.939872955134206e-09 2.587388280517189e-06 -2.044560964975517e-09 -2.1658912441324674e-09 -2.044560964975517e-09 2.5843994535534875e-06" pbc="T T T"
Ba       2.25108794       1.59175992       3.89899923      -0.00000006      -0.00000006       0.00000016
Ba       6.75326573       4.77527918      11.69699784      -0.00000013       0.00000032      -0.00000032
Ni       0.00000006       0.00000004      -0.00000011       0.00000065      -0.00000008      -0.00000047
I        2.22142548       1.57078501       7.79799848      -0.00646431      -0.00457091       0.00000048
I        6.78292826       4.79625421       7.79799859       0.00646345       0.00457060      -0.00000047
I        5.64255237       1.57078473       5.82280991       0.00323189      -0.00457023      -0.00559825
I        3.36180119       4.79625441       9.77318706      -0.00323137       0.00457028       0.00559837
I        3.36180114       4.79625438       5.82280980      -0.00323142       0.00457027      -0.00559751
I        5.64255245       1.57078486       9.77318706       0.00323135      -0.00457023       0.00559813
