9
Lattice="7.138055728851337 2.870919336782482e-08 4.121158391492946 2.379352055719251 6.7298233957689035 4.12115818531845 5.780008424417265e-08 -2.1164028433091873e-07 8.242316682873222" Properties=species:S:1:pos:R:3:forces:R:3 energy=-27.64206886291504 free_energy=-27.64206886291504 stress="-3.367634417372756e-05 2.9167797066520507e-08 1.68291247604202e-08 2.9167797066520507e-08 -3.368966281414032e-05 -1.8539180857146675e-08 1.68291247604202e-08 -1.8539180857146675e-08 -3.3714775781845674e-05" pbc="T T T"
Ba       2.37935147       1.68245525       4.12115881      -0.00000069       0.00000010      -0.00000026
Ba       7.13805664       5.04736792      12.36347441       0.00000058       0.00000025       0.00000028
Pb      -0.00000013      -0.00000005      -0.00000097      -0.00000087      -0.00000057       0.00000798
I        2.53131615       1.78991072       8.24231649      -0.00665970      -0.00470954       0.00000061
I        6.98609125       4.93991262       8.24231666       0.00666117       0.00470993       0.00000102
I        5.87239744       1.78991107       6.31334248       0.00333048      -0.00471019      -0.00576729
I        3.64501011       4.93991259      10.17129123      -0.00332725       0.00470570       0.00576298
I        3.64501032       4.93991223       6.31334273      -0.00333130       0.00471114      -0.00576932
I        5.87239810       1.78991051      10.17129119       0.00332757      -0.00470683       0.00576391
