9
Lattice="6.097095915483154 -2.9337392253171702e-08 3.520159947098851 2.0323652889608383 5.748397071946296 3.5201599272507105 -1.790112526730338e-09 -2.5574734858208293e-08 7.040319897298333" Properties=species:S:1:pos:R:3:forces:R:3 energy=-36.549888610839844 free_energy=-36.549888610839844 stress="-1.8500777514418587e-06 -2.401680809782647e-08 -5.633293831408537e-09 -2.401680809782647e-08 -1.8479339587429422e-06 1.3097615436663546e-08 -5.633293831408537e-09 1.3097615436663546e-08 -1.822978219934157e-06" pbc="T T T"
Ba       2.03236519       1.43709941       3.52015957      -0.00000017       0.00000004      -0.00000046
Ba       6.09709596       4.31129767      10.56048017      -0.00000012       0.00000008       0.00000063
Pt       0.00000019      -0.00000016      -0.00000042      -0.00000052       0.00000433       0.00000806
Cl       1.98328524       1.40239428       7.04031988      -0.00232631      -0.00164524      -0.00000031
Cl       6.14617649       4.34600292       7.04031983       0.00232303       0.00164226      -0.00000068
Cl       5.10545308       1.40239463       5.23773520       0.00116616      -0.00164771      -0.00201645
Cl       3.02400771       4.34600255       8.84290486      -0.00116202       0.00164373       0.00201100
Cl       3.02400792       4.34600233       5.23773501      -0.00116369       0.00164647      -0.00201407
Cl       5.10545306       1.40239445       8.84290502       0.00116356      -0.00164394       0.00201243
