9
Lattice="6.338044605644833 9.719281913024094e-09 3.6592718481964766 2.1126815570855353 5.975565666468027 3.6592718261870365 5.475775533881062e-08 1.1763568046066696e-08 7.318543601549808" Properties=species:S:1:pos:R:3:forces:R:3 energy=-33.29543685913086 free_energy=-33.29543685913086 stress="-3.470301817287691e-05 2.6540813991005052e-08 5.273844694286822e-10 2.6540813991005052e-08 -3.4730506740743294e-05 1.2568921903266528e-08 5.273844694286822e-10 1.2568921903266528e-08 -3.472985190455802e-05" pbc="T T T"
Ba       2.11268119       1.49389138       3.65927156      -0.00000004      -0.00000010      -0.00000046
Ba       6.33804506       4.48167430      10.97781552      -0.00000013      -0.00000014       0.00000042
Pt       0.00000048       0.00000120       0.00000044      -0.00001058      -0.00002304      -0.00000970
Br       2.06799394       1.46229256       7.31854396      -0.00044343      -0.00031367      -0.00000075
Br       6.38273139       4.51327232       7.31854388       0.00045961       0.00032538      -0.00000069
Br       5.30404807       1.46229220       5.45020723       0.00022087      -0.00031190      -0.00038344
Br       3.14667859       4.51327273       9.18687942      -0.00022730       0.00032227       0.00039530
Br       3.14667847       4.51327330       5.45020732      -0.00022319       0.00031719      -0.00038898
Br       5.30404767       1.46229271       9.18687972       0.00022420      -0.00031599       0.00038838
