9
Lattice="6.022638520831127 3.473072451760435e-08 3.477172021478364 2.007546198192936 5.678198085724415 3.4771720356151317 3.040484331778866e-08 3.8813397172482724e-08 6.954343990293987" Properties=species:S:1:pos:R:3:forces:R:3 energy=-36.273590087890625 free_energy=-36.273590087890625 stress="8.804125536698848e-05 7.674865742934855e-10 -1.752276879152248e-09 7.674865742934855e-10 8.804678509477526e-05 2.5108519707828236e-09 -1.752276879152248e-09 2.5108519707828236e-09 8.805668039713055e-05" pbc="T T T"
Ba       2.00754599       1.41954929       3.47717226       0.00000014       0.00000015      -0.00000044
Ba       6.02263876       4.25864874      10.43151579      -0.00000022      -0.00000028       0.00000044
Pd      -0.00000009       0.00000052       0.00000100       0.00000118      -0.00000438      -0.00001386
Cl       1.97007797       1.39305561       6.95434391      -0.00685063      -0.00484441       0.00000030
Cl       6.06010688       4.28514268       6.95434405       0.00685143       0.00484451      -0.00000046
Cl       5.03759951       1.39305559       5.18330979       0.00342368      -0.00484074      -0.00592920
Cl       2.99258541       4.28514205       8.72537766      -0.00342852       0.00484895       0.00593811
Cl       2.99258520       4.28514234       5.18330975      -0.00342437       0.00484303      -0.00593098
Cl       5.03759938       1.39305582       8.72537798       0.00342731      -0.00484692       0.00593605
