9
Lattice="6.307493782919256 -9.321911651765399e-08 3.641633264851412 2.1024978655789694 5.946761999357375 3.641633220117597 4.473179342339298e-08 -2.315730633116767e-08 7.2832664522251145" Properties=species:S:1:pos:R:3:forces:R:3 energy=-32.92205810546875 free_energy=-32.92205810546875 stress="-3.4947373933391646e-05 -4.545765097674348e-09 -8.302578180519049e-09 -4.545765097674348e-09 -3.4945696825161576e-05 5.65431390597837e-09 -8.302578180519049e-09 5.65431390597837e-09 -3.494162592687644e-05" pbc="T T T"
Ba       2.10249778       1.48669041       3.64163302       0.00000011       0.00000076       0.00000023
Ba       6.30749391       4.46007146      10.92489983      -0.00000017      -0.00000085      -0.00000018
Pd      -0.00000050       0.00000056      -0.00000009       0.00000624      -0.00000750       0.00000026
Br       2.07359953       1.46625650       7.28326640      -0.00320901      -0.00226989       0.00000054
Br       6.33639194       4.48050538       7.28326648       0.00320950       0.00226954       0.00000021
Br       5.27069391       1.46625644       5.43742324       0.00160395      -0.00226906      -0.00277764
Br       3.13929791       4.48050529       9.12910922      -0.00160637       0.00227232       0.00278346
Br       3.13929798       4.48050537       5.43742367      -0.00160658       0.00227229      -0.00278288
Br       5.27069432       1.46625609       9.12910998       0.00160240      -0.00226755       0.00277591
