9
Lattice="6.848015733253385 -2.929234285737725e-07 3.9537039841162853 2.2826716421183497 6.456371207842132 3.9537039716371956 2.3725754848708856e-08 1.4929473133965404e-09 7.907407927138337" Properties=species:S:1:pos:R:3:forces:R:3 energy=-29.540929794311523 free_energy=-29.540929794311523 stress="-1.97643821593374e-05 -2.8288944520227233e-09 -3.6891421029139337e-09 -2.8288944520227233e-09 -1.975533814402297e-05 2.354747952182379e-09 -3.6891421029139337e-09 2.354747952182379e-09 -1.9762090232688934e-05" pbc="T T T"
Ba       2.28267194       1.61409265       3.95370359       0.00000023       0.00000005       0.00000038
Ba       6.84801557       4.84227810      11.86111204       0.00000010      -0.00000047      -0.00000052
Pt       0.00000018      -0.00000013      -0.00000002      -0.00000157      -0.00000003       0.00000397
I        2.24874819       1.59010507       7.90740788      -0.00024426      -0.00017266       0.00000101
I        6.88193914       4.86626590       7.90740803       0.00024500       0.00017333      -0.00000066
I        5.72364154       1.59010501       5.90117730       0.00012332      -0.00017358      -0.00021283
I        3.40704575       4.86626607       9.91363878      -0.00012204       0.00017187       0.00021023
I        3.40704561       4.86626594       5.90117726      -0.00012214       0.00017411      -0.00021234
I        5.72364171       1.59010508       9.91363868       0.00012141      -0.00017257       0.00021073
