9
Lattice="5.226573354761827 2.1281293145460656e-07 3.017563468589564 1.74219130257255 4.927660463529305 3.017563496862575 8.099272884522985e-08 9.189770704754076e-08 6.035126796895569" Properties=species:S:1:pos:R:3:forces:R:3 energy=-45.841552734375 free_energy=-45.841552734375 stress="0.0004052347503602505 -1.3808977961105029e-08 1.7912141103693102e-08 -1.3808977961105029e-08 0.00040524385985918343 5.9463212132016e-09 1.7912141103693102e-08 5.9463212132016e-09 0.00040526685188524425" pbc="T T T"
Ba       1.74219123       1.23191533       3.01756357      -0.00000038      -0.00000148      -0.00000055
Ba       5.22657354       3.69574548       9.05269034       0.00000087       0.00000066       0.00000043
Pt      -0.00000002      -0.00000009      -0.00000011      -0.00000337      -0.00000068      -0.00000503
F        1.74622653       1.23476839       6.03512702      -0.00226694      -0.00160301      -0.00000039
F        5.22253822       3.69289223       6.03512706       0.00227004       0.00160438      -0.00000059
F        4.35346058       1.23476821       4.52983929       0.00113350      -0.00160247      -0.00196284
F        2.61530440       3.69289264       7.54041445      -0.00113502       0.00160414       0.00196582
F        2.61530397       3.69289275       4.52983905      -0.00113374       0.00160301      -0.00196314
F        4.35346065       1.23476804       7.54041457       0.00113460      -0.00160462       0.00196648
