9
Lattice="6.81811952201943 -7.086454891002746e-08 3.93644307726556 2.272706445583895 6.428184615775188 3.936443068508457 -3.417387685147973e-08 -3.4889748478007767e-08 7.872886213722023" Properties=species:S:1:pos:R:3:forces:R:3 energy=-29.12186050415039 free_energy=-29.12186050415039 stress="-1.2895779946120456e-05 9.640983122949365e-09 5.292366545006644e-10 9.640983122949365e-09 -1.2906136362289544e-05 4.10083167423636e-09 5.292366545006644e-10 4.10083167423636e-09 -1.290617547056172e-05" pbc="T T T"
Ba       2.27270652       1.60704605       3.93644310      -0.00000023      -0.00000022      -0.00000190
Ba       6.81811971       4.82113848      11.80932931       0.00000005       0.00000035       0.00000177
Pd      -0.00000020       0.00000035      -0.00000037       0.00000116      -0.00000250       0.00000381
I        2.24772383       1.58938116       7.87288606      -0.00019168      -0.00013594       0.00000017
I        6.84310196       4.83880356       7.87288618       0.00019199       0.00013492       0.00000031
I        5.69425749       1.58938081       5.88302898       0.00009623      -0.00013574      -0.00016574
I        3.39656825       4.83880376       9.86274308      -0.00009497       0.00013486       0.00016604
I        3.39656853       4.83880339       5.88302953      -0.00009695       0.00013782      -0.00016835
I        5.69425761       1.58938048       9.86274359       0.00009442      -0.00013355       0.00016391
