9
Lattice="5.3601413492543415 -1.8620621836312346e-08 3.0946790617066915 1.786713765398834 5.05358972325302 3.0946790619323354 -5.554261408176253e-08 -3.8998205964034004e-08 6.189358219615986" Properties=species:S:1:pos:R:3:forces:R:3 energy=-45.98478698730469 free_energy=-45.98478698730469 stress="0.00022172725584823638 1.092565948823676e-08 -1.6335171437731333e-08 1.092565948823676e-08 0.00022173933393787593 2.9974781767805325e-08 -1.6335171437731333e-08 2.9974781767805325e-08 0.0002217506553279236" pbc="T T T"
Ba       1.78671391       1.26339727       3.09467903      -0.00000118      -0.00000016       0.00000098
Ba       5.36014120       3.79019224       9.28403726       0.00000015       0.00000002      -0.00000027
Pb       0.00000014      -0.00000007       0.00000066       0.00000079      -0.00000217      -0.00000798
F        1.87602999       1.32655351       6.18935809       0.00051372       0.00036288       0.00000017
F        5.27082507       3.72703624       6.18935818      -0.00051240      -0.00036179       0.00000043
F        4.42212648       1.32655354       4.71936852      -0.00025699       0.00036384       0.00044549
F        2.72472888       3.72703615       7.65934760       0.00025448      -0.00036063      -0.00044125
F        2.72472849       3.72703648       4.71936832       0.00025821      -0.00036503       0.00044682
F        4.42212616       1.32655353       7.65934780      -0.00025678       0.00036299      -0.00044467
