9
Lattice="5.169851581724235 2.7210625188077698e-08 2.984815198453193 1.7232838910833883 4.874182788746114 2.9848151900454805 2.0146960506186207e-08 3.948730466213729e-09 5.969630362010801" Properties=species:S:1:pos:R:3:forces:R:3 energy=-45.99909591674805 free_energy=-45.99909591674805 stress="0.0001561393146403134 -5.350231369050107e-09 7.538464075196316e-09 -5.350231369050107e-09 0.00015627579705324024 6.506170713294068e-09 7.538464075196316e-09 6.506170713294068e-09 0.00015624098887201399" pbc="T T T"
Ba       1.72328388       1.21854581       2.98481531      -0.00000008      -0.00000051      -0.00000034
Ba       5.16985163       3.65563711       8.95444542       0.00000041       0.00000013       0.00000062
Pd      -0.00000000      -0.00000000      -0.00000004       0.00000036       0.00000199       0.00000432
F        1.74559769       1.23432391       5.96963042       0.00131397       0.00092949      -0.00000011
F        5.14753797       3.63985893       5.96963045      -0.00131598      -0.00093085      -0.00000005
F        4.29705284       1.23432375       4.49654682      -0.00065632       0.00092890       0.00113731
F        2.59608251       3.63985903       7.44271384       0.00065828      -0.00093112      -0.00114027
F        2.59608258       3.63985894       4.49654690       0.00065707      -0.00092901       0.00113785
F        4.29705281       1.23432383       7.44271383      -0.00065764       0.00093082      -0.00113942
