9
Lattice="5.1661253764359145 4.1145085405704817e-07 2.9826639292585284 1.7220419656700892 4.870670496064617 2.98266430060119 -1.7671872381765193e-07 3.2984106537474537e-07 5.965328164602837" Properties=species:S:1:pos:R:3:forces:R:3 energy=-42.70201873779297 free_energy=-42.70201873779297 stress="5.013725967728533e-05 2.8747244584792497e-08 8.920574146031868e-08 2.8747244584792497e-08 5.0097271014237776e-05 -3.6304601991332675e-08 8.920574146031868e-08 -3.6304601991332675e-08 4.999214434064925e-05" pbc="T T T"
Ba       1.72204162       1.21766770       2.98266424       0.00000056      -0.00000111      -0.00000130
Ba       5.16612517       3.65300351       8.94799177      -0.00000041      -0.00000002       0.00000226
S        0.00000044      -0.00000048       0.00000080      -0.00001274       0.00001644      -0.00002574
F        1.73763133       1.22869180       5.96532809      -0.00214815      -0.00152099       0.00000135
F        5.15053587       3.64197975       5.96532834       0.00214911       0.00151801       0.00000251
F        4.29730952       1.22869166       4.48749746       0.00107443      -0.00151896      -0.00185657
F        2.59085777       3.64197947       7.44315878      -0.00107259       0.00151873       0.00186300
F        2.59085709       3.64198024       4.48749690      -0.00107104       0.00151634      -0.00185490
F        4.29731006       1.22869122       7.44315942       0.00108051      -0.00152659       0.00186944
