9
Lattice="7.162321820868945 1.0278446739564648e-07 4.13516819004757 2.3874406678136144 6.752701741025674 4.1351682524860465 -9.119475525100376e-08 1.198682684624708e-08 8.270336538049055" Properties=species:S:1:pos:R:3:forces:R:3 energy=-28.621408462524414 free_energy=-28.621408462524414 stress="-2.1752570319222286e-05 3.60448240144251e-08 2.6377051653980743e-09 3.60448240144251e-08 -2.177726673835423e-05 -5.031081329320841e-09 2.6377051653980743e-09 -5.031081329320841e-09 -2.1803074560011737e-05" pbc="T T T"
Ba       2.38744076       1.68817558       4.13516831      -0.00000181      -0.00000170       0.00000003
Ba       7.16232177       5.06452613      12.40550445       0.00000094       0.00000127      -0.00000076
Sr       0.00000007       0.00000027       0.00000003      -0.00000138      -0.00000162       0.00000152
I        2.53914576       1.79544707       8.27033649      -0.00103451      -0.00073225       0.00000033
I        7.01061631       4.95725464       8.27033657       0.00103724       0.00073409       0.00000001
I        5.89274896       1.79544739       6.33413289       0.00051714      -0.00073172      -0.00089692
I        3.65701357       4.95725436      10.20654008      -0.00051736       0.00073100       0.00089648
I        3.65701342       4.95725441       6.33413289      -0.00051735       0.00073199      -0.00089615
I        5.89274900       1.79544757      10.20654015       0.00051713      -0.00073104       0.00089541
