9
Lattice="6.95554471365625 2.3138128498607568e-07 4.015785530158729 2.3185149949522663 6.5577506611924825 4.015785751425129 -5.653139654883136e-08 2.3102116941401514e-07 8.031571158232616" Properties=species:S:1:pos:R:3:forces:R:3 energy=-25.488407135009766 free_energy=-25.488407135009766 stress="-8.602914022048935e-05 -1.4910551016100726e-08 -1.0851461951233432e-08 -1.4910551016100726e-08 -8.602152956882492e-05 1.4585430641034236e-08 -1.0851461951233432e-08 1.4585430641034236e-08 -8.600826549809426e-05" pbc="T T T"
Ba       2.31851519       1.63943777       4.01578612      -0.00000016      -0.00000206       0.00000088
Ba       6.95554443       4.91831335      12.04735592       0.00000034       0.00000197      -0.00000105
Se       0.00000014      -0.00000020      -0.00000024      -0.00000102       0.00000092       0.00000020
I        2.43563399       1.72225356       8.03157126      -0.00093083      -0.00065809      -0.00000023
I        6.83842572       4.83549757       8.03157136       0.00093083       0.00065866       0.00000051
I        5.73772769       1.72225368       6.12510639       0.00046531      -0.00065869      -0.00080690
I        3.53633196       4.83549768       9.93803654      -0.00046464       0.00065793       0.00080584
I        3.53633181       4.83549749       6.12510629      -0.00046565       0.00065818      -0.00080605
I        5.73772767       1.72225360       9.93803612       0.00046580      -0.00065884       0.00080678
