9
Lattice="5.34300314655443 1.1851382937063155e-08 3.084784265449532 1.7810010804259098 5.037431552782636 3.0847842301142485 1.0678547323191398e-09 -4.2521606023433506e-08 6.169568529049469" Properties=species:S:1:pos:R:3:forces:R:3 energy=-48.020042419433594 free_energy=-48.020042419433594 stress="4.8668629460735247e-05 -4.4072829830099636e-09 9.596229588737515e-09 -4.4072829830099636e-09 4.865530354436487e-05 1.8475944330020866e-08 9.596229588737515e-09 1.8475944330020866e-08 4.866311064688489e-05" pbc="T T T"
Ba       1.78100111       1.25935791       3.08478441      -0.00000074       0.00000032       0.00000074
Ba       5.34300330       3.77807379       9.25435263      -0.00000043      -0.00000077       0.00000091
Sr      -0.00000008      -0.00000004       0.00000003      -0.00000151      -0.00000205       0.00000015
F        1.85569502       1.31217470       6.16956849       0.00172888       0.00122309      -0.00000005
F        5.26830923       3.72525689       6.16956859      -0.00172624      -0.00122064       0.00000023
F        4.41515552       1.31217466       4.69186345      -0.00086337       0.00122091       0.00149518
F        2.70884863       3.72525678       7.64727346       0.00086375      -0.00122105      -0.00149547
F        2.70884866       3.72525669       4.69186348       0.00086318      -0.00122055       0.00149446
F        4.41515558       1.31217463       7.64727349      -0.00086361       0.00122061      -0.00149586
