9
Lattice="6.46775072203813 -1.222197694042061e-07 3.734157653779266 2.155916830136343 6.097854046211899 3.734157587926365 8.266312138196327e-09 -7.48078125480717e-08 7.4683152932409715" Properties=species:S:1:pos:R:3:forces:R:3 energy=-38.07405090332031 free_energy=-38.07405090332031 stress="-2.404090810159687e-05 -2.8038215305059566e-08 -1.2720446029845789e-08 -2.8038215305059566e-08 -2.4032826331676915e-05 1.5470455139166006e-08 -1.2720446029845789e-08 1.5470455139166006e-08 -2.40125045820605e-05" pbc="T T T"
Ba       2.15591733       1.52446414       3.73415638       0.00000067      -0.00000104      -0.00000002
Ba       6.46775048       4.57338993      11.20247413      -0.00000052       0.00000107      -0.00000008
Sc       0.00000012      -0.00000002       0.00000049       0.00000075       0.00000126      -0.00000459
Br       2.15680999       1.52509450       7.46831569      -0.00168574      -0.00119227      -0.00000060
Br       6.46685767       4.57275925       7.46831535       0.00168359       0.00119093      -0.00000041
Br       5.38934572       1.52509495       5.60201006       0.00084306      -0.00119194      -0.00146055
Br       3.23432200       4.57275843       9.33462008      -0.00084476       0.00119543       0.00146306
Br       3.23432158       4.57275917       5.60200980      -0.00084215       0.00119054      -0.00145891
Br       5.38934531       1.52509506       9.33462032       0.00084506      -0.00119397       0.00146225
