9
Lattice="5.308792069252496 -1.0400933391452548e-07 3.0650324529189477 1.7695972096963903 5.005177259303246 3.0650325372008544 -1.7208733200658138e-07 -1.846029470647974e-08 6.130065203901865" Properties=species:S:1:pos:R:3:forces:R:3 energy=-54.365882873535156 free_energy=-54.365882873535156 stress="0.000530988210812211 1.6161372684564412e-08 -2.4337470705404485e-08 1.6161372684564412e-08 0.0005310300621204078 1.3152058997434324e-08 -2.4337470705404485e-08 1.3152058997434324e-08 0.0005310476408340037" pbc="T T T"
Ba       1.76959744       1.25129439       3.06503268       0.00000018       0.00000037      -0.00000011
Ba       5.30879187       3.75388306       9.19509733      -0.00000128      -0.00000046       0.00000001
Sc       0.00000009      -0.00000026       0.00000041       0.00000062       0.00000076      -0.00000464
F        1.69158062       1.19612824       6.13006515      -0.00126457      -0.00089401      -0.00000043
F        5.38680825       3.80904879       6.13006514       0.00126404       0.00089395       0.00000031
F        4.46300181       1.19612787       4.52998432       0.00063100      -0.00089353      -0.00109529
F        2.61538741       3.80904878       7.73014609      -0.00063244       0.00089544       0.00109583
F        2.61538742       3.80904932       4.52998404      -0.00063112       0.00089300      -0.00109369
F        4.46300149       1.19612822       7.73014551       0.00063336      -0.00089586       0.00109750
