9
Lattice="6.178139542022928 -1.0850994862703114e-07 3.5669506515623444 2.0593796630384182 5.824805901752443 3.5669507935878024 2.8311544398954154e-09 1.7594688372497776e-07 7.133901298221002" Properties=species:S:1:pos:R:3:forces:R:3 energy=-31.977535247802734 free_energy=-31.977535247802734 stress="8.890486788004637e-05 -1.573843100288741e-08 4.388444274638914e-09 -1.573843100288741e-08 8.891904872143641e-05 2.7350514741897314e-08 4.388444274638914e-09 2.7350514741897314e-08 8.891828474588692e-05" pbc="T T T"
Ba       2.05937984       1.45620131       3.56695121      -0.00000018       0.00000087       0.00000008
Ba       6.17813951       4.36860472      10.70085150       0.00000005      -0.00000101       0.00000053
S        0.00000045       0.00000106      -0.00000051      -0.00000570      -0.00000897       0.00001079
Cl       2.07224812       1.46530100       7.13390117      -0.00093323      -0.00065917       0.00000027
Cl       6.16527015       4.35950414       7.13390150       0.00093943       0.00066549      -0.00000048
Cl       5.14201482       1.46530152       5.36157083       0.00047022      -0.00066304      -0.00081462
Cl       3.09550438       4.35950484       8.90623238      -0.00046799       0.00066128       0.00080830
Cl       3.09550429       4.35950433       5.36157097      -0.00046885       0.00066426      -0.00081247
Cl       5.14201543       1.46530108       8.90623226       0.00046593      -0.00065967       0.00080782
