9
Lattice="6.578284142298283 -2.1866124839819196e-08 3.7979740724505855 2.192761364759902 6.202065662545053 3.797974064466898 4.455426008944566e-08 2.1726642105914335e-08 7.595948067730908" Properties=species:S:1:pos:R:3:forces:R:3 energy=-31.99197769165039 free_energy=-31.99197769165039 stress="0.0001893381413538009 5.702940786278532e-09 6.3526108817768545e-09 5.702940786278532e-09 0.00018932187231257558 -8.420266262021414e-09 6.3526108817768545e-09 -8.420266262021414e-09 0.00018933492538053542" pbc="T T T"
Ba       2.19276108       1.55051662       3.79797402       0.00000006      -0.00000064       0.00000082
Ba       6.57828440       4.65154908      11.39392215      -0.00000006       0.00000050      -0.00000050
Sn       0.00000010       0.00000013      -0.00000026       0.00000021       0.00000009       0.00000101
Br       2.28710267       1.61722578       7.59594817       0.00123253       0.00087172      -0.00000031
Br       6.48394280       4.58483988       7.59594815      -0.00123277      -0.00087162      -0.00000012
Br       5.43473284       1.61722558       5.77866280      -0.00061664       0.00087187       0.00106883
Br       3.33631270       4.58483998       9.41323335       0.00061671      -0.00087223      -0.00106843
Br       3.33631276       4.58483991       5.77866314       0.00061592      -0.00087139       0.00106698
Br       5.43473287       1.61722568       9.41323330      -0.00061600       0.00087170      -0.00106835
