9
Lattice="7.0883934678213985 1.8857053002734637e-07 4.0924856602410316 2.362797943371943 6.683001396666858 4.092485759004575 -7.38336092312213e-08 6.875190396829172e-08 8.184971448365655" Properties=species:S:1:pos:R:3:forces:R:3 energy=-27.840200424194336 free_energy=-27.840200424194336 stress="-2.0565907107084058e-05 -7.619704867067867e-09 -1.11513518419315e-08 -7.619704867067867e-09 -2.0579534975695424e-05 1.7133299223814902e-08 -1.11513518419315e-08 1.7133299223814902e-08 -2.0575760572683066e-05" pbc="T T T"
Ba       2.36279770       1.67075076       4.09248615      -0.00000049      -0.00000058       0.00000103
Ba       7.08839352       5.01225102      12.27745635       0.00000102       0.00000081      -0.00000131
Sn       0.00000032       0.00000065       0.00000024      -0.00000223      -0.00000496      -0.00000284
I        2.46834264       1.74538175       8.18497131      -0.00058986      -0.00041733      -0.00000003
I        6.98284847       4.93761984       8.18497176       0.00059284       0.00041851       0.00000008
I        5.85422208       1.74538181       6.23013274       0.00029513      -0.00041660      -0.00051060
I        3.59696938       4.93761934      10.13980976      -0.00029639       0.00041964       0.00051476
I        3.59696894       4.93761985       6.23013300      -0.00029450       0.00041696      -0.00051100
I        5.85422226       1.74538157      10.13981015       0.00029445      -0.00041642       0.00050988
