9
Lattice="6.155464180022373 9.092758051258412e-08 3.553858706032952 2.05182147524654 5.803427189694808 3.553858712652063 1.4061317214545817e-08 1.8049611719842283e-08 7.107717387710992" Properties=species:S:1:pos:R:3:forces:R:3 energy=-42.56523895263672 free_energy=-42.56523895263672 stress="6.443709571612999e-05 4.5183675467797e-08 1.852799913493186e-09 4.5183675467797e-08 6.4394625951536e-05 1.5557023447243523e-09 1.852799913493186e-09 1.5557023447243523e-09 6.43513776594773e-05" pbc="T T T"
Ba       2.05182148       1.45085681       3.55385879       0.00000091      -0.00000003      -0.00000031
Ba       6.15546423       4.35257068      10.66157578      -0.00000102      -0.00000073      -0.00000008
Sc      -0.00000010      -0.00000118      -0.00000078       0.00000131       0.00001080       0.00001006
Cl       2.04060511       1.44292563       7.10771730      -0.00475621      -0.00336280       0.00000013
Cl       6.16668086       4.36050208       7.10771751       0.00475156       0.00335824       0.00000042
Cl       5.13516181       1.44292547       5.32107376       0.00237688      -0.00336057      -0.00411522
Cl       3.07212359       4.36050257       8.89436169      -0.00237185       0.00335303       0.00410730
Cl       3.07212374       4.36050202       5.32107385      -0.00237608       0.00335872      -0.00411370
Cl       5.13516201       1.44292506       8.89436118       0.00237435      -0.00335672       0.00411141
