9
Lattice="6.366407504805295 -1.0256352473580438e-07 3.675647168507309 2.1221357430305274 6.002306527771607 3.6756471602051017 5.947598402422025e-09 -5.962496085620089e-09 7.351294326713114" Properties=species:S:1:pos:R:3:forces:R:3 energy=-36.881771087646484 free_energy=-36.881771087646484 stress="0.00011487987649161369 -1.8611808982882394e-08 1.8161017134588064e-09 -1.8611808982882394e-08 0.00011490360338939354 -4.5418926397644555e-09 1.8161017134588064e-09 -4.5418926397644555e-09 0.00011490208999020979" pbc="T T T"
Ba       2.12213568       1.50057633       3.67564686       0.00000049      -0.00000025      -0.00000088
Ba       6.36640755       4.50173004      11.02694171      -0.00000000       0.00000054       0.00000026
Sr      -0.00000005       0.00000032      -0.00000101       0.00000486      -0.00000585       0.00001198
Cl       2.24302248       1.58605647       7.35129426      -0.00176225      -0.00124732       0.00000061
Cl       6.24552070       4.41625002       7.35129438       0.00176246       0.00124638       0.00000049
Cl       5.24489635       1.58605632       5.61816186       0.00088214      -0.00124744      -0.00152731
Cl       3.24364687       4.41625006       9.08442710      -0.00088156       0.00124501       0.00152552
Cl       3.24364708       4.41625009       5.61816192      -0.00088397       0.00125008      -0.00153190
Cl       5.24489638       1.58605603       9.08442755       0.00087773      -0.00124109       0.00152125
