9
Lattice="6.43347027076027 -5.80815804496762e-08 3.714365762150763 2.1444899956304413 6.065533909422468 3.7143658311957872 -8.800238345881658e-08 2.233539383125835e-08 7.4287316767261355" Properties=species:S:1:pos:R:3:forces:R:3 energy=-29.333877563476562 free_energy=-29.333877563476562 stress="0.00019920880731660873 1.2816923911085354e-10 3.2032627661493507e-09 1.2816923911085354e-10 0.00019922724459320307 -7.565340354176442e-09 3.2032627661493507e-09 -7.565340354176442e-09 0.00019921401690226048" pbc="T T T"
Ba       2.14449011       1.51638377       3.71436583      -0.00000035      -0.00000067       0.00000035
Ba       6.43347018       4.54915008      11.14309724       0.00000003       0.00000044      -0.00000034
S       -0.00000023      -0.00000013       0.00000001      -0.00000049       0.00000001       0.00000295
Br       2.17164139       1.53558239       7.42873158      -0.00728127      -0.00514847       0.00000002
Br       6.40631895       4.52995157       7.42873154       0.00728086       0.00514790       0.00000019
Br       5.34764948       1.53558227       5.59506262       0.00364122      -0.00514928      -0.00630686
Br       3.23031068       4.52995155       9.26240094      -0.00363980       0.00514871       0.00630561
Br       3.23031069       4.52995162       5.59506262      -0.00364074       0.00514916      -0.00630701
Br       5.34764947       1.53558236       9.26240065       0.00364061      -0.00514784       0.00630528
