9
Lattice="6.693372382665048 6.121069540937142e-08 3.864420244655883 2.2311242066007066 6.310572036279709 3.8644202077013796 2.826551019699e-08 -2.5273129972997863e-08 7.728840440354482" Properties=species:S:1:pos:R:3:forces:R:3 energy=-33.07447052001953 free_energy=-33.07447052001953 stress="4.881084169028327e-05 1.722038334150966e-08 8.911476889750247e-09 1.722038334150966e-08 4.880417691310868e-05 -4.399871134097566e-09 8.911476889750247e-09 -4.399871134097566e-09 4.879635525867343e-05" pbc="T T T"
Ba       2.23112424       1.57764359       3.86442031       0.00000027       0.00000262       0.00000141
Ba       6.69337236       4.73292882      11.59326110      -0.00000029      -0.00000184       0.00000008
Sr       0.00000016      -0.00000012      -0.00000092      -0.00000073      -0.00000207       0.00001054
Br       2.36299616       1.67089040       7.72884026      -0.00070714      -0.00050035       0.00000086
Br       6.56150068       4.63968145       7.72884031       0.00070903       0.00050087      -0.00000006
Br       5.51187431       1.67089064       5.91083451       0.00035516      -0.00050153      -0.00061361
Br       3.41262164       4.63968227       9.54684670      -0.00035134       0.00049596       0.00060890
Br       3.41262202       4.63968142       5.91083441      -0.00035463       0.00050117      -0.00061416
Br       5.51187493       1.67088987       9.54684687       0.00034971      -0.00049482       0.00060607
