9
Lattice="6.856048066836596 -1.7194008668764907e-07 3.9583413109850416 2.285349165655043 6.4639442420698385 3.9583413592235592 -3.9000878377226024e-08 3.150203315340944e-08 7.916682689521614" Properties=species:S:1:pos:R:3:forces:R:3 energy=-25.755117416381836 free_energy=-25.755117416381836 stress="-0.00010005552758229896 4.507772211059802e-10 7.413229585750969e-09 4.507772211059802e-10 -0.00010006653610616922 -1.5994929825069448e-08 7.413229585750969e-09 -1.5994929825069448e-08 -0.00010004577779909596" pbc="T T T"
Ba       2.28534992       1.61598564       3.95834138      -0.00000086       0.00000056       0.00000051
Ba       6.85604739       4.84795835      11.87502394       0.00000109      -0.00000017      -0.00000095
S        0.00000010       0.00000005       0.00000002      -0.00000014       0.00000052      -0.00000031
I        2.37922101       1.68236275       7.91668270      -0.00095902      -0.00067784       0.00000054
I        6.76217597       4.78158115       7.91668264       0.00095953       0.00067797      -0.00000041
I        5.66643728       1.68236312       6.01880732       0.00047885      -0.00067780      -0.00083090
I        3.47495992       4.78158109       9.81455799      -0.00047912       0.00067741       0.00083120
I        3.47495954       4.78158096       6.01880759      -0.00047970       0.00067713      -0.00083068
I        5.66643763       1.68236329       9.81455789       0.00047933      -0.00067779       0.00083100
