9
Lattice="7.0160721596806415 1.5890514770812592e-08 4.050730990232946 2.338690650506279 6.614816274448636 4.050731136364365 -1.1240279584305572e-07 9.949291144739903e-08 8.101462175153237" Properties=species:S:1:pos:R:3:forces:R:3 energy=-33.08653259277344 free_energy=-33.08653259277344 stress="-3.351487248437479e-05 1.4720228591613704e-08 3.624090583187467e-09 1.4720228591613704e-08 -3.3529391657793894e-05 3.9525704931264727e-10 3.624090583187467e-09 3.9525704931264727e-10 -3.353611828060821e-05" pbc="T T T"
Ba       2.33869101       1.65370422       4.05073087      -0.00000027      -0.00000231       0.00000035
Ba       7.01607174       4.96111205      12.15219350       0.00000006       0.00000209      -0.00000081
Sc       0.00000021       0.00000021      -0.00000153      -0.00000164      -0.00000058       0.00001240
I        2.35633735       1.66618241       8.10146195      -0.00095978      -0.00067902       0.00000086
I        6.99842516       4.94863398       8.10146184       0.00096145       0.00067937       0.00000176
I        5.83790313       1.66618267       6.09137933       0.00048125      -0.00068153      -0.00083333
I        3.51685902       4.94863465      10.11154599      -0.00047570       0.00067416       0.00082672
I        3.51685964       4.94863357       6.09137942      -0.00048286       0.00068189      -0.00083441
I        5.83790356       1.66618178      10.11154585       0.00047748      -0.00067419       0.00082652
