9
Lattice="6.30376303271358 6.754848222172757e-08 3.6394791491743406 2.101254274803443 5.943244852701447 3.6394793797444493 -1.608486553998125e-07 1.686524731187115e-07 7.278958576946744" Properties=species:S:1:pos:R:3:forces:R:3 energy=-35.564292907714844 free_energy=-35.564292907714844 stress="0.00018110503151547164 -3.8253071821259255e-09 -1.3825824929369901e-08 -3.8253071821259255e-09 0.0001811161928344518 5.067689379245621e-09 -1.3825824929369901e-08 5.067689379245621e-09 0.00018111066310666502" pbc="T T T"
Ba       2.10125421       1.48581127       3.63947926       0.00000025       0.00000017      -0.00000005
Ba       6.30376300       4.45743364      10.91843790       0.00000003      -0.00000058      -0.00000069
Sn       0.00000075      -0.00000056       0.00000000      -0.00000922       0.00000811      -0.00000089
Cl       2.18227021       1.54309848       7.27895866      -0.00440888      -0.00311784      -0.00000021
Cl       6.22274668       4.40014654       7.27895860       0.00441045       0.00311904       0.00000014
Cl       5.21262750       1.54309831       5.52938096       0.00220603      -0.00311922      -0.00382078
Cl       3.19238926       4.40014692       9.02853639      -0.00220270       0.00311603       0.00381611
Cl       3.19238917       4.40014736       5.52938042      -0.00220202       0.00311412      -0.00381389
Cl       5.21262783       1.54309837       9.02853621       0.00220608      -0.00311975       0.00382032
