9
Lattice="5.176959158288404 -5.7405266372546996e-08 2.9889186363904896 1.7256530056321109 4.880883711632651 2.9889186242808945 -3.1698140409886134e-08 -3.7245196312163315e-08 5.977837327683792" Properties=species:S:1:pos:R:3:forces:R:3 energy=-53.5550422668457 free_energy=-53.5550422668457 stress="0.0003655695472843945 8.827059083671429e-09 7.444224792152454e-08 8.827059083671429e-09 0.0003657046181615442 2.0546986334579742e-08 7.444224792152454e-08 2.0546986334579742e-08 0.000365476036677137" pbc="T T T"
Ba       1.72565302       1.22022078       2.98891838      -0.00000118       0.00000084       0.00000177
Ba       5.17695911       3.66066249       8.96675595       0.00000172       0.00000129      -0.00000007
Ti      -0.00000019       0.00000025       0.00000016       0.00000238      -0.00000218      -0.00000086
F        1.67199673       1.18228025       5.97783745       0.00068969       0.00048688      -0.00000050
F        5.23061545       3.69860345       5.97783724      -0.00069079      -0.00048804       0.00000001
F        4.34096089       1.18228021       4.43691048      -0.00034529       0.00048727       0.00059643
F        2.56165146       3.69860324       7.51876407       0.00034420      -0.00048584      -0.00059551
F        2.56165131       3.69860361       4.43691024       0.00034498      -0.00048816       0.00059694
F        4.34096094       1.18228013       7.51876443      -0.00034590       0.00048801      -0.00059783
