9
Lattice="6.093921360997843 6.738186514097561e-08 3.5183269559831594 2.0313071443829624 5.745404002317473 3.5183270243608007 -3.1762806462335916e-08 6.128549513029825e-08 7.0366539669812775" Properties=species:S:1:pos:R:3:forces:R:3 energy=-41.7296257019043 free_energy=-41.7296257019043 stress="6.208671493368456e-06 3.123953096206833e-09 -1.3443035129512282e-08 3.123953096206833e-09 6.20178388999193e-06 1.0559689123113003e-08 -1.3443035129512282e-08 1.0559689123113003e-08 6.21648132437258e-06" pbc="T T T"
Ba       2.03130731       1.43635123       3.51832702      -0.00000068      -0.00000045       0.00000120
Ba       6.09392111       4.30905291      10.55498098       0.00000056       0.00000111      -0.00000130
Ti       0.00000028       0.00000016       0.00000148      -0.00000206       0.00000291      -0.00001087
Cl       2.01041056       1.42157457       7.03665353      -0.00338688      -0.00239369       0.00000058
Cl       6.11481883       4.32382918       7.03665395       0.00338414       0.00239292      -0.00000053
Cl       5.08871542       1.42157474       5.25939317       0.00169286      -0.00239238      -0.00293162
Cl       3.03651234       4.32382938       8.81391451      -0.00169340       0.00239536       0.00293502
Cl       3.03651198       4.32382998       5.25939323      -0.00168957       0.00238994      -0.00292829
Cl       5.08871620       1.42157442       8.81391411       0.00169507      -0.00239584       0.00293586
