9
Lattice="6.994677329542037 -1.3775977332585877e-07 4.038378884562238 2.3315590203283807 6.594645053578279 4.03837881465303 3.453337049227856e-08 -6.12021875811242e-08 8.076757709310936" Properties=species:S:1:pos:R:3:forces:R:3 energy=-32.77739334106445 free_energy=-32.77739334106445 stress="-9.733822480484378e-06 1.5085223070698817e-09 -2.266861010014054e-08 1.5085223070698817e-09 -9.739602319314145e-06 1.6744246877919977e-08 -2.266861010014054e-08 1.6744246877919977e-08 -9.737422260513995e-06" pbc="T T T"
Ba       2.33155723       1.64866107       4.03837997      -0.00000281       0.00000000       0.00000240
Ba       6.99467909       4.94598395      12.11513540       0.00000279       0.00000007      -0.00000192
Ti      -0.00000018       0.00000010      -0.00000131       0.00000082      -0.00000045       0.00001111
I        2.32661868       1.64516772       8.07675759      -0.00629914      -0.00445347       0.00000034
I        6.99961785       4.94947710       8.07675772       0.00629874       0.00445251       0.00000094
I        5.83136764       1.64516800       6.05329004       0.00315167      -0.00445639      -0.00545716
I        3.49486830       4.94947742      10.10022601      -0.00314758       0.00445104       0.00545160
I        3.49486858       4.94947675       6.05329018      -0.00315281       0.00445769      -0.00545821
I        5.83136838       1.64516732      10.10022600       0.00314828      -0.00445107       0.00545102
