9
Lattice="6.4115312038858425 5.822321435399822e-08 3.7016991898674605 2.1371772020585222 6.044849381154494 3.701699052683489 2.4868163882429263e-08 -1.504308869280527e-07 7.403398336661975" Properties=species:S:1:pos:R:3:forces:R:3 energy=-37.44863510131836 free_energy=-37.44863510131836 stress="-3.4494274586904794e-05 -8.333015166783753e-09 4.742259918089076e-09 -8.333015166783753e-09 -3.448321876931004e-05 -1.0156517404880105e-08 4.742259918089076e-09 -1.0156517404880105e-08 -3.446986374910921e-05" pbc="T T T"
Ba       2.13717687       1.51121274       3.70169932       0.00000023       0.00000093      -0.00000014
Ba       6.41153156       4.53363657      11.10509746      -0.00000032      -0.00000094       0.00000006
Ti       0.00000028      -0.00000046       0.00000001      -0.00000030       0.00000096      -0.00000142
Br       2.13468324       1.50944884       7.40339823      -0.00123149      -0.00087097       0.00000010
Br       6.41402494       4.53540064       7.40339825       0.00123146       0.00087065       0.00000085
Br       5.34418961       1.50944894       5.55038893       0.00061673      -0.00087094      -0.00106597
Br       3.20451864       4.53540058       9.25640771      -0.00061604       0.00087069       0.00106604
Br       3.20451881       4.53540048       5.55038897      -0.00061613       0.00087109      -0.00106700
Br       5.34418975       1.50944884       9.25640747       0.00061606      -0.00087151       0.00106746
