9
Lattice="6.914516615579954 2.1780597389599838e-07 3.992097820469452 2.3048389814368497 6.519068869908758 3.9920979863523356 -8.328870645030633e-08 1.4427023649812868e-07 7.984195785199266" Properties=species:S:1:pos:R:3:forces:R:3 energy=-33.419036865234375 free_energy=-33.419036865234375 stress="0.00017971298075281084 -4.3497854207430464e-09 -5.590788720866158e-09 -4.3497854207430464e-09 0.00017972463683690876 1.9243717730432763e-09 -5.590788720866158e-09 1.9243717730432763e-09 0.00017971823399420828" pbc="T T T"
Ba       2.30483852       1.62976781       3.99209726      -0.00000071       0.00000162      -0.00000163
Ba       6.91451724       4.88930188      11.97629375       0.00000073      -0.00000064       0.00000130
V       -0.00000015       0.00000040       0.00000019       0.00000084      -0.00000356      -0.00000160
I        2.28290562       1.61425839       7.98419575      -0.00220073      -0.00155671       0.00000012
I        6.93644947       4.90481058       7.98419615       0.00220279       0.00155798      -0.00000003
I        5.77306407       1.61425823       5.96915218       0.00109949      -0.00155546      -0.00190489
I        3.44629184       4.90481051       9.99923921      -0.00110234       0.00155761       0.00190765
I        3.44629179       4.90481054       5.96915257      -0.00110083       0.00155688      -0.00190741
I        5.77306366       1.61425858       9.99923931       0.00110073      -0.00155778       0.00190648
