9
Lattice="5.152118049302717 -8.067906365561825e-08 2.974576787885115 1.7173726031415555 4.857463281346367 2.97457679463048 -3.902444466983003e-08 -1.9333139714900982e-08 5.949153643362603" Properties=species:S:1:pos:R:3:forces:R:3 energy=-53.134613037109375 free_energy=-53.134613037109375 stress="0.00026206826441921294 -1.7101902116678502e-08 5.944265524249204e-09 -1.7101902116678502e-08 0.0002620157029014081 5.258562474352857e-09 5.944265524249204e-09 5.258562474352857e-09 0.0002620446612127125" pbc="T T T"
Ba       1.71737276       1.21436590       2.97457665      -0.00000023      -0.00000091       0.00000104
Ba       5.15211797       3.64309746       8.92373044      -0.00000030       0.00000083      -0.00000064
V       -0.00000004      -0.00000016       0.00000064      -0.00000215       0.00000547      -0.00000718
F        1.65898489       1.17307928       5.94915363       0.00132671       0.00093856       0.00000000
F        5.21050583       3.68438375       5.94915353      -0.00132811      -0.00093964       0.00000018
F        4.32262541       1.17307944       4.41130004      -0.00066301       0.00093839       0.00114912
F        2.54686519       3.68438357       7.48700701       0.00066316      -0.00093773      -0.00114900
F        2.54686504       3.68438389       4.41129986       0.00066520      -0.00094068       0.00115240
F        4.32262535       1.17307959       7.48700699      -0.00066106       0.00093579      -0.00114605
