9
Lattice="7.1220148303747655 6.059765386639162e-08 4.111897213760008 2.374005023445796 6.714699934678641 4.111897174173128 6.643452523039071e-08 -1.5075299480829902e-09 8.223794312452165" Properties=species:S:1:pos:R:3:forces:R:3 energy=-33.694252014160156 free_energy=-33.694252014160156 stress="9.016432159114629e-06 1.311632225053927e-08 -4.065490166738073e-09 1.311632225053927e-08 9.006059372040909e-06 4.880795767547852e-09 -4.065490166738073e-09 4.880795767547852e-09 8.997960321721621e-06" pbc="T T T"
Ba       2.37400480       1.67867453       4.11189705      -0.00000116      -0.00000104       0.00000149
Ba       7.12201508       5.03602528      12.33569112       0.00000163       0.00000032      -0.00000164
Y        0.00000008      -0.00000003      -0.00000031      -0.00000085       0.00000187       0.00000195
I        2.43956214       1.72503075       8.22379435      -0.00641067      -0.00453247      -0.00000012
I        7.05645776       4.98966929       8.22379472       0.00640965       0.00453265       0.00000040
I        5.90223389       1.72503060       6.22461969       0.00320578      -0.00453265      -0.00555193
I        3.59378585       4.98966958      10.22296942      -0.00320426       0.00453137       0.00554922
I        3.59378588       4.98966928       6.22461954      -0.00320454       0.00453235      -0.00555095
I        5.90223419       1.72503068      10.22296927       0.00320449      -0.00453237       0.00555167
