9
Lattice="6.61661274630136 1.5533495448329495e-07 3.820103079654477 2.205537801861522 6.2382025178537175 3.8201029526780688 8.325282300677321e-08 -9.66450814748839e-08 7.64020601511076" Properties=species:S:1:pos:R:3:forces:R:3 energy=-38.595069885253906 free_energy=-38.595069885253906 stress="0.00011810785508714616 2.3287210382250123e-08 -3.512669044525296e-09 2.3287210382250123e-08 0.00011811912554549053 5.118050427910248e-09 -3.512669044525296e-09 5.118050427910248e-09 0.00011809048010036349" pbc="T T T"
Ba       2.20553837       1.55955043       3.82010261       0.00000088       0.00000137      -0.00000053
Ba       6.61661232       4.67865226      11.46030960      -0.00000073      -0.00000080       0.00000062
Y       -0.00000051       0.00000009      -0.00000238       0.00000322      -0.00000198       0.00002233
Br       2.25984863       1.59795373       7.64020624      -0.00531587      -0.00375897       0.00000104
Br       6.56230228       4.64024863       7.64020618       0.00531438       0.00375813       0.00000007
Br       5.48668857       1.59795447       5.77718893       0.00265993      -0.00376135      -0.00460592
Br       3.33546170       4.64024895       9.50322411      -0.00265378       0.00375181       0.00459534
Br       3.33546214       4.64024831       5.77718881      -0.00265980       0.00376225      -0.00460616
Br       5.48668907       1.59795343       9.50322424       0.00265180      -0.00375044       0.00459316
