9
Lattice="6.295944321278305 4.220823985027586e-09 3.6349650629104464 2.0986481470127103 5.935873150898615 3.6349650006596557 -2.78124824238203e-08 -9.590774654973126e-08 7.2699301739934645" Properties=species:S:1:pos:R:3:forces:R:3 energy=-42.97007369995117 free_energy=-42.97007369995117 stress="7.602084951940924e-05 3.650857949288877e-10 -1.486386985716237e-10 3.650857949288877e-10 7.602506229886785e-05 1.0914606107803593e-08 -1.486386985716237e-10 1.0914606107803593e-08 7.60244220145978e-05" pbc="T T T"
Ba       2.09864823       1.48396817       3.63496521      -0.00000082       0.00000017      -0.00000007
Ba       6.29594440       4.45190532      10.90489496       0.00000058      -0.00000032      -0.00000041
Y       -0.00000022      -0.00000018      -0.00000027       0.00000232       0.00000340       0.00000289
Cl       2.14140839       1.51420386       7.26993006      -0.00081250      -0.00057521       0.00000013
Cl       6.25318417       4.42166900       7.26992996       0.00080928       0.00057247       0.00000048
Cl       5.22524024       1.51420405       5.48947890       0.00040691      -0.00057545      -0.00070414
Cl       3.16935180       4.42166904       9.05038166      -0.00040488       0.00057355       0.00070217
Cl       3.16935229       4.42166905       5.48947875      -0.00040592       0.00057384      -0.00070238
Cl       5.22524048       1.51420390       9.05038162       0.00040506      -0.00057247       0.00070164
