9
Lattice="6.869966865593157 2.548175338295576e-07 3.966377098384336 2.2899891376670505 6.47706693470634 3.966377198453442 -1.0204665222677515e-07 5.040121307105203e-08 7.932754373518635" Properties=species:S:1:pos:R:3:forces:R:3 energy=-25.713390350341797 free_energy=-25.713390350341797 stress="-3.7529682685999433e-06 9.223245278633385e-09 9.711670578838039e-09 9.223245278633385e-09 -3.758772663786658e-06 -6.018226805792892e-09 9.711670578838039e-09 -6.018226805792892e-09 -3.7591817090287805e-06" pbc="T T T"
Ba       2.28998901       1.61926729       3.96637612      -0.00000063      -0.00000021       0.00000041
Ba       6.86996693       4.85780011      11.89913246       0.00000035      -0.00000034      -0.00000001
Zn      -0.00000004      -0.00000005       0.00000013      -0.00000047       0.00000031      -0.00000011
I        2.29349654       1.62174691       7.93275453       0.00150063       0.00106178      -0.00000018
I        6.86645948       4.85532035       7.93275421      -0.00150157      -0.00106267       0.00000027
I        5.72321862       1.62174700       5.95260312      -0.00075020       0.00106248       0.00130028
I        3.43673720       4.85532008       9.91290546       0.00075146      -0.00106177      -0.00130062
I        3.43673738       4.85532023       5.95260320       0.00075102      -0.00106220       0.00130074
I        5.72321848       1.62174706       9.91290545      -0.00075059       0.00106258      -0.00130079
