9
Lattice="6.327121778589159 2.857278465694902e-08 3.652965554147117 2.109040621822379 5.965267730999956 3.652965550647319 4.1884462079918625e-08 2.5330426550234015e-08 7.305931035748168" Properties=species:S:1:pos:R:3:forces:R:3 energy=-30.14469337463379 free_energy=-30.14469337463379 stress="-8.611691737314686e-05 -2.378118812984553e-09 7.121322642689165e-09 -2.378118812984553e-09 -8.610627992311493e-05 4.662442876224304e-09 7.121322642689165e-09 4.662442876224304e-09 -8.610063378000632e-05" pbc="T T T"
Ba       2.10904058       1.49131693       3.65296565      -0.00000130      -0.00000041      -0.00000006
Ba       6.32712171       4.47395080      10.95889634       0.00000109       0.00000094      -0.00000025
Zn       0.00000002      -0.00000009      -0.00000038       0.00000051       0.00000059       0.00000159
Br       2.11074519       1.49252243       7.30593099      -0.00433110      -0.00306274       0.00000051
Br       6.32541746       4.47274568       7.30593093       0.00432941       0.00306132       0.00000043
Br       5.27174902       1.49252241       5.48092479       0.00216605      -0.00306255      -0.00375102
Br       3.16441308       4.47274572       9.13093762      -0.00216370       0.00306034       0.00374977
Br       3.16441326       4.47274534       5.48092469      -0.00216534       0.00306275      -0.00375107
Br       5.27174945       1.49252196       9.13093784       0.00216441      -0.00306024       0.00375001
