9
Lattice="5.992132086838364 -4.109967844810704e-08 3.459559018238314 1.997377352001861 5.649436280918557 3.4595589689242225 1.7954882999981934e-08 -4.7701241655232586e-08 6.919118005377926" Properties=species:S:1:pos:R:3:forces:R:3 energy=-34.12266540527344 free_energy=-34.12266540527344 stress="9.238164057023823e-05 -2.1727268872950845e-08 -1.4439421214262893e-08 -2.1727268872950845e-08 9.237446647603065e-05 1.3987911273716236e-08 -1.4439421214262893e-08 1.3987911273716236e-08 9.23985498957336e-05" pbc="T T T"
Ba       1.99737711       1.41235918       3.45955912       0.00000008       0.00000022      -0.00000130
Ba       5.99213226       4.23707729      10.37867689      -0.00000025       0.00000043       0.00000053
Zn      -0.00000021       0.00000010      -0.00000020       0.00000103      -0.00000067      -0.00000120
Cl       1.97333158       1.39535637       6.91911799      -0.00113826      -0.00080479       0.00000061
Cl       6.01617790       4.25407975       6.91911793       0.00113800       0.00080459       0.00000018
Cl       5.00546615       1.39535629       5.16851423       0.00056957      -0.00080557      -0.00098558
Cl       2.98404330       4.25407994       8.66972184      -0.00056978       0.00080577       0.00098724
Cl       2.98404327       4.25407982       5.16851427      -0.00056918       0.00080578      -0.00098620
Cl       5.00546646       1.39535606       8.66972189       0.00056893      -0.00080552       0.00098567
