9
Lattice="5.0581047245932265 -5.62677824943227e-09 2.9202981343310648 1.686034905424775 4.768827007480375 2.9202981299454454 9.887892149196541e-09 1.620549213822853e-09 5.840596251535756" Properties=species:S:1:pos:R:3:forces:R:3 energy=-45.98760986328125 free_energy=-45.98760986328125 stress="0.0003152723074890673 -3.33639849081635e-09 -1.128368865010998e-08 -3.33639849081635e-09 0.00031531049171462655 1.399441673655133e-09 -1.128368865010998e-08 1.399441673655133e-09 0.0003153075813315809" pbc="T T T"
Ba       1.68603486       1.19220690       2.92029828      -0.00000047      -0.00000046      -0.00000103
Ba       5.05810476       3.57662009       8.76089471      -0.00000049       0.00000024      -0.00000029
Zn       0.00000001       0.00000000       0.00000005      -0.00000022      -0.00000069      -0.00000335
F        1.64425390       1.16266323       5.84059616      -0.00081886      -0.00057980      -0.00000022
F        5.09988568       3.60616369       5.84059623       0.00082149       0.00058074      -0.00000014
F        4.23597781       1.16266332       4.34426396       0.00040966      -0.00058027      -0.00071114
F        2.50816188       3.60616374       7.33692841      -0.00041204       0.00058207       0.00071397
F        2.50816183       3.60616376       4.34426395      -0.00041019       0.00058018      -0.00071116
F        4.23597780       1.16266326       7.33692831       0.00041094      -0.00058216       0.00071335
