9
Lattice="6.333135400271679 -7.852465904302566e-08 3.656437541014117 2.111045065485451 5.970937389002104 3.656437530456663 -1.4901029047123818e-08 -2.3466803311073906e-08 7.312875107837571" Properties=species:S:1:pos:R:3:forces:R:3 energy=-16.50288963317871 free_energy=-16.50288963317871 stress="-2.1443889636429958e-05 1.0016357521180907e-08 -1.082589240475329e-09 1.0016357521180907e-08 -2.1424593796837144e-05 -7.617923181157948e-09 -1.082589240475329e-09 -7.617923181157948e-09 -2.144517384294886e-05" pbc="T T T"
Be       2.11104514       1.49273369       3.65643783       0.00000021      -0.00000113       0.00000058
Be       6.33313497       4.47820336      10.96931288      -0.00000091       0.00000037       0.00000006
C       -0.00000015      -0.00000028       0.00000014      -0.00000063      -0.00000162       0.00000048
I        2.15764230       1.52568348       7.31287512      -0.00044382      -0.00031456      -0.00000010
I        6.28653830       4.44525441       7.31287497       0.00044453       0.00031501      -0.00000006
I        5.25431429       1.52568364       5.52501034       0.00022182      -0.00031418      -0.00038373
I        3.18986636       4.44525379       9.10073971      -0.00022149       0.00031540       0.00038427
I        3.18986625       4.44525358       5.52501038      -0.00022250       0.00031394      -0.00038496
I        5.25431432       1.52568337       9.10073933       0.00022277      -0.00031334       0.00038329
