9
Lattice="5.928567771853397 -8.432438601810013e-08 3.4228604213032963 1.9761893111733062 5.589507494150251 3.42286019026388 -5.133874822884399e-08 -3.1926628203903905e-07 6.845720931527767" Properties=species:S:1:pos:R:3:forces:R:3 energy=-18.5980224609375 free_energy=-18.5980224609375 stress="-9.874286479316652e-05 8.423167940918574e-09 3.9517238370478935e-09 8.423167940918574e-09 -9.877745469566435e-05 7.612058539052668e-09 3.9517238370478935e-09 7.612058539052668e-09 -9.879894059849903e-05" pbc="T T T"
Be       1.97618701       1.39737767       3.42285766      -0.00000793       0.00000465      -0.00001144
Be       5.92856743       4.19213119      10.26857871      -0.00000468       0.00000628      -0.00001267
C       -0.00000961       0.00001137      -0.00001760      -0.00004120       0.00004934      -0.00007731
Br       1.93611763       1.36904049       6.84572280       0.00184752       0.00129996       0.00000991
Br       5.96864221       4.22046471       6.84572265      -0.00183566      -0.00130653       0.00000908
Br       4.96051039       1.36903976       5.09958953      -0.00091784       0.00129797       0.00160719
Br       2.94424866       4.22046534       8.59185766       0.00092602      -0.00130717      -0.00158486
Br       2.94425142       4.22046207       5.09959312       0.00093837      -0.00132340       0.00162491
Br       4.96051300       1.36903560       8.59186155      -0.00090470       0.00127888      -0.00156486
