9
Lattice="5.400426566282326 -6.464110704133413e-08 3.1179376766235563 1.8001421274255462 5.0915710122697915 3.1179376773008074 1.9854363807160523e-08 1.4868586320527967e-08 6.23587531885836" Properties=species:S:1:pos:R:3:forces:R:3 energy=-21.291227340698242 free_energy=-21.291227340698242 stress="0.00010103914246428758 1.3502380546981385e-08 2.067888615897573e-08 1.3502380546981385e-08 0.00010108180140377954 2.4923464181370036e-08 2.067888615897573e-08 2.4923464181370036e-08 0.00010104832472279668" pbc="T T T"
Be       1.80014170       1.27289217       3.11793805      -0.00000485      -0.00001035       0.00000415
Be       5.40042649       3.81867725       9.35381294      -0.00000326      -0.00001209       0.00000443
C       -0.00000819      -0.00001938       0.00000845      -0.00018031      -0.00043613       0.00019468
Cl       1.73605693       1.22757867       6.23587513      -0.00109661      -0.00076433      -0.00000982
Cl       5.46452442       3.86400246       6.23587528       0.00137633       0.00098440      -0.00000637
Cl       4.53240131       1.22757480       4.62140182       0.00061740      -0.00084716      -0.00106604
Cl       2.66816754       3.86399855       7.85034904      -0.00061812       0.00090246       0.00107643
Cl       2.66816573       3.86400184       4.62139760      -0.00066380       0.00096720      -0.00116895
Cl       4.53239894       1.22757744       7.85034439       0.00057313      -0.00078404       0.00097179
