9
Lattice="4.192297470430278 1.0709157343206635e-08 2.420423597579746 1.3974324321641693 3.9525357914940007 2.4204237154907595 -3.922723027689167e-07 -1.329675024986824e-07 4.840847874594994" Properties=species:S:1:pos:R:3:forces:R:3 energy=-37.353363037109375 free_energy=-37.353363037109375 stress="8.109581540338695e-05 -4.749516335778026e-08 5.087890713184606e-07 -4.749516335778026e-08 8.18688640720211e-05 3.762600044865394e-07 5.087890713184606e-07 3.762600044865394e-07 8.114377124002203e-05" pbc="T T T"
Be       1.39743266       0.98813628       2.42042289       0.00000133       0.00000802      -0.00000717
Be       4.19229808       2.96439743       7.26128352       0.00000366      -0.00001609       0.00004176
C        0.00000123      -0.00000129      -0.00000047       0.00000882      -0.00000962       0.00000562
F        1.30060098       0.91966536       4.84084647       0.00413752       0.00292930      -0.00000225
F        4.28912787       3.03287054       4.84084509      -0.00414068      -0.00292522      -0.00000722
F        3.54199562       0.91966546       3.54677649      -0.00207090       0.00292575       0.00357932
F        2.04773302       3.03287151       6.13491624       0.00207128      -0.00292629      -0.00359160
F        2.04773320       3.03287249       3.54677604       0.00206649      -0.00291619       0.00357747
F        3.54199519       0.91966480       6.13491454      -0.00207686       0.00292996      -0.00359514
