9
Lattice="6.0353567360312494 -1.9790656082388957e-08 3.484514856571581 2.0117854949973077 5.690188907190033 3.484514969191244 -1.7034401163095105e-07 1.7478937550091383e-08 6.969030008187677" Properties=species:S:1:pos:R:3:forces:R:3 energy=-24.747325897216797 free_energy=-24.747325897216797 stress="0.00021249358542263508 -1.4049674312843763e-08 -3.237806245337538e-09 -1.4049674312843763e-08 0.00021247105905786157 -7.699615167666707e-09 -3.237806245337538e-09 -7.699615167666707e-09 0.00021259719505906105" pbc="T T T"
Br       2.01178679       1.42254775       3.48451517      -0.00000304       0.00000136       0.00000031
Br       6.03535629       4.26764219      10.45354562      -0.00000080       0.00000067      -0.00000088
Cr      -0.00000016      -0.00000027       0.00000064       0.00000001       0.00000021      -0.00000236
Cl       1.84699741       1.30602418       6.96902982      -0.00043291      -0.00030512      -0.00000033
Cl       6.20014469       4.38416446       6.96902992       0.00043488       0.00030631      -0.00000058
Cl       5.11185727       1.30602451       5.08406163       0.00021702      -0.00030819      -0.00037801
Cl       2.93528399       4.38416435       8.85399782      -0.00021678       0.00030690       0.00037700
Cl       2.93528446       4.38416443       5.08406109      -0.00021638       0.00030643      -0.00037539
Cl       5.11185756       1.30602401       8.85399771       0.00021771      -0.00030839       0.00037992
