9
Lattice="6.090402182168649 -1.6059911040705174e-07 3.5162952371948952 2.030133930991445 5.742085957901379 3.5162951996390372 2.6309626368909457e-07 1.4004090352736837e-07 7.032590018693666" Properties=species:S:1:pos:R:3:forces:R:3 energy=-19.882278442382812 free_energy=-19.882278442382812 stress="-0.00014543313591275364 -3.384723612498419e-08 -1.0888065560266114e-08 -3.384723612498419e-08 -0.0001454036682844162 -3.5472147441595325e-10 -1.0888065560266114e-08 -3.5472147441595325e-10 -0.00014540605479851365" pbc="T T T"
Br       2.03013399       1.43552166       3.51629544       0.00000070      -0.00000056       0.00000113
Br       6.09040229       4.30656434      10.54888492       0.00000073      -0.00000076      -0.00000049
Co      -0.00000005      -0.00000057      -0.00000134       0.00000368       0.00000554       0.00001008
Cl       1.78457583       1.26188490       7.03259040      -0.00395626      -0.00279671       0.00000030
Cl       6.33596134       4.48020110       7.03259026       0.00395006       0.00279388      -0.00000095
Cl       5.19811359       1.26188586       5.06178338       0.00198019      -0.00280055      -0.00342947
Cl       2.92242214       4.48020036       9.00339831      -0.00197716       0.00279620       0.00342140
Cl       2.92242178       4.48020026       5.06178208      -0.00197913       0.00279868      -0.00342518
Cl       5.19811466       1.26188569       9.00339832       0.00197734      -0.00279549       0.00342324
