9
Lattice="9.743467020125335 -3.0666248796555604e-05 5.625363159836873 3.24782571754066 9.186058541228816 5.625307230361758 -2.0557887981884678e-05 -8.305556839784242e-05 11.2507619245716" Properties=species:S:1:pos:R:3:forces:R:3 energy=-20.988571166992188 free_energy=-20.988571166992188 stress="-1.0586281860014424e-05 -2.4502187443431467e-06 -8.177142262866255e-06 -2.4502187443431467e-06 -7.655892659386154e-06 6.111946277087554e-06 -8.177142262866255e-06 6.111946277087554e-06 -6.793696229578927e-06" pbc="T T T"
Br       3.24782904       2.30521609       5.62531073      -0.00000070       0.00005805       0.00000008
Br       9.74347171       6.89936038      16.87602338       0.00000098       0.00008084       0.00000098
C        0.00008467      -0.30053794      -0.00046538      -0.00008787      -0.00025725       0.00416316
Cl       1.68495219       1.21010313      11.25047519       0.00274357       0.00140855      -0.00020721
Cl      11.36563637       8.06958492      11.25098124      -0.00187827      -0.00147271      -0.00219591
Cl       8.90070728       1.21055143       7.08452676       0.00015152       0.00072809       0.00081334
Cl       4.06072496       8.06878237      15.46802146      -0.00147543       0.00152481       0.00180856
Cl       4.06041727       8.07022819       7.03341568       0.00235004      -0.00282095       0.00032644
Cl       8.90126723       1.21048864      15.41744037      -0.00180374       0.00075064      -0.00470951
