9
Lattice="9.662781584993883 2.2850848633153218e-05 5.5788024761038395 3.2209500188289764 9.11014194078927 5.578800258500222 1.0329808911447037e-05 4.588452784191581e-06 11.157587060868982" Properties=species:S:1:pos:R:3:forces:R:3 energy=-34.76544952392578 free_energy=-34.76544952392578 stress="-2.715633513616922e-07 3.0456789090749226e-07 4.7066188813005283e-07 3.0456789090749226e-07 -1.5529943766523502e-06 3.7973796906953794e-07 4.7066188813005283e-07 3.7973796906953794e-07 -3.498931633316715e-08" pbc="T T T"
Br       3.22138086       2.27735365       5.57893826      -0.00000293       0.00000321      -0.00000376
Br       9.66326416       6.83243222      16.73652670       0.00000127      -0.00000302       0.00000166
Cr      -0.00010075       0.00006388       0.00000073      -0.00004452      -0.00014308      -0.00016615
F        1.46726464       1.03763160      11.15756843      -0.00010613       0.00004642      -0.00005729
F       11.41624516       8.07269681      11.15750745      -0.00001559      -0.00024784       0.00026308
F        8.92896101       1.03763308       6.84954501       0.00000112       0.00014377       0.00002290
F        3.95444100       8.07267010      15.46554494       0.00026999      -0.00020224       0.00011830
F        3.95454014       8.07265925       6.84956393      -0.00009277      -0.00011513      -0.00012118
F        8.92897050       1.03753770      15.46556146      -0.00001042       0.00051795      -0.00005735
