9
Lattice="5.326223741197211 4.306747621227174e-07 3.075098693432184 1.7754077555862962 5.021613925716217 3.075099670638324 -7.26079830332972e-07 6.834120672550437e-07 6.150198644471685" Properties=species:S:1:pos:R:3:forces:R:3 energy=-27.369617462158203 free_energy=-27.369617462158203 stress="0.00013394771667663008 1.4324236907725663e-08 1.9085730329493344e-08 1.4324236907725663e-08 0.00013379323354456574 -2.241886853937558e-08 1.9085730329493344e-08 -2.241886853937558e-08 0.00013396157009992748" pbc="T T T"
Br       1.77540344       1.25543361       3.07510095      -0.00001265       0.00006126       0.00000039
Br       5.32623921       3.76624070       9.22530509       0.00003898       0.00006356       0.00001723
Fe      -0.00000045      -0.00000663      -0.00000022       0.00000144       0.00003908      -0.00000503
F        1.61732391       1.14361314       6.15019896       0.00018883       0.00011295      -0.00000334
F        5.48431323       3.87798697       6.15019742      -0.00018805      -0.00016493      -0.00000845
F        4.51755983       1.14360857       4.47574497      -0.00010327       0.00011373       0.00016791
F        2.58406394       3.87798678       7.82465588       0.00008208      -0.00016004      -0.00016379
F        2.58406329       3.87798696       4.47573848       0.00008950      -0.00016701       0.00016141
F        4.51755705       1.14361097       7.82464708      -0.00009710       0.00010157      -0.00016654
