9
Lattice="6.115834379668118 -6.242348642351223e-10 3.5309789519818136 2.0386112842592117 5.7660647812760315 3.530979255162769 -5.719954703313764e-08 3.308731517732987e-07 7.061958003036118" Properties=species:S:1:pos:R:3:forces:R:3 energy=-22.200122833251953 free_energy=-22.200122833251953 stress="1.0372310498496518e-05 -2.6694857879761003e-08 -4.090192007311089e-08 -2.6694857879761003e-08 1.0429401299916208e-05 -9.725592775566838e-09 -4.090192007311089e-08 -9.725592775566838e-09 1.044794225890655e-05" pbc="T T T"
Br       2.03861178       1.44151674       3.53097947       0.00000134      -0.00000216      -0.00000086
Br       6.11583438       4.32454973      10.59293728      -0.00000097      -0.00000034      -0.00000166
Fe      -0.00000010      -0.00000017      -0.00000112      -0.00000200       0.00000029       0.00001452
Cl       1.81818151       1.28564920       7.06195796      -0.00251895      -0.00178236      -0.00000080
Cl       6.33626303       4.48041501       7.06195837       0.00252283       0.00178465      -0.00000014
Cl       5.20674288       1.28565029       5.10557202       0.00126442      -0.00178966      -0.00218970
Cl       2.94770271       4.48041533       9.01834461      -0.00126228       0.00178444       0.00218511
Cl       2.94770268       4.48041491       5.10557169      -0.00126347       0.00178766      -0.00218827
Cl       5.20674347       1.28564930       9.01834481       0.00125909      -0.00178257       0.00218081
