9
Lattice="9.667581896733155 4.980834080135439e-08 5.581579833944872 3.222527269987601 9.114683167433078 5.581579965378285 -2.7089732244292147e-07 -3.0581537523695e-08 11.163160137098133" Properties=species:S:1:pos:R:3:forces:R:3 energy=-21.727529525756836 free_energy=-21.727529525756836 stress="-5.994523598928936e-05 8.644551185987837e-10 5.176062689571381e-09 8.644551185987837e-10 -5.9946767578367144e-05 2.5588751118021946e-09 5.176062689571381e-09 2.5588751118021946e-09 -5.992947626509704e-05" pbc="T T T"
Br       3.22252984       2.27867322       5.58157816      -0.00000108       0.00000020       0.00000022
Br       9.66758436       6.83601130      16.74474036       0.00000021       0.00000044       0.00000133
Ge      -0.00000084      -0.00000023       0.00000059       0.00000291       0.00000229      -0.00000836
Cl       1.84618040       1.30544682      11.16316063       0.00370955       0.00262162       0.00000001
Cl      11.04392599       7.80923713      11.16315966      -0.00371295      -0.00262517       0.00000072
Cl       8.74449022       1.30544712       7.18042015      -0.00185513       0.00262541       0.00321400
Cl       4.14561660       7.80923477      15.14590070       0.00185347      -0.00262111      -0.00321138
Cl       4.14561642       7.80923548       7.18041982       0.00185689      -0.00262618       0.00321519
Cl       8.74449178       1.30544768      15.14589939      -0.00185424       0.00262263      -0.00321168
