9
Lattice="4.517875639183354 -3.686046014111817e-08 2.6083966937263896 1.505958519750353 4.259493947487176 2.608396679682454 -8.22083777821358e-09 -2.301325161918552e-08 5.2167934016916915" Properties=species:S:1:pos:R:3:forces:R:3 energy=-27.347545623779297 free_energy=-27.347545623779297 stress="0.00031533880974166095 -8.410437146721961e-08 5.1647033316726265e-09 -8.410437146721961e-08 0.00031546721584163606 4.25674429038736e-09 5.1647033316726265e-09 4.25674429038736e-09 0.0003153338620904833" pbc="T T T"
Br       1.50595852       1.06487331       2.60839668       0.00000115      -0.00000224      -0.00000052
Br       4.51787559       3.19462024       7.82518976       0.00000011      -0.00000180      -0.00000112
Ge      -0.00000006      -0.00000000       0.00000006       0.00000114       0.00000029      -0.00000786
F        1.50097943       1.06135270       5.21679340      -0.00074682      -0.00052655      -0.00000172
F        4.52285481       3.19814130       5.21679341       0.00074372       0.00052698       0.00000186
F        3.76738614       1.06135278       3.90828306       0.00037336      -0.00052325      -0.00064439
F        2.25644814       3.19814138       6.52530382      -0.00037590       0.00052938       0.00064960
F        2.25644821       3.19814130       3.90828300      -0.00036965       0.00052667      -0.00064534
F        3.76738583       1.06135249       6.52530394       0.00037335      -0.00052941       0.00064930
