9
Lattice="4.602989230499678 -9.668700336852762e-09 2.65753727463881 1.5343297377184262 4.339739762525061 2.6575372688636887 -8.325385380188966e-08 -6.594241580467265e-08 5.315074693477508" Properties=species:S:1:pos:R:3:forces:R:3 energy=-40.4029426574707 free_energy=-40.4029426574707 stress="0.00014386867405846715 -5.5466315984631365e-08 9.066815920277804e-08 -5.5466315984631365e-08 0.0001439556072000414 3.746761478851113e-08 9.066815920277804e-08 3.746761478851113e-08 0.00014384998939931393" pbc="T T T"
Br       1.53432951       1.08493474       2.65753732       0.00000248       0.00000144      -0.00000144
Br       4.60298917       3.25480497       7.97261178      -0.00000133      -0.00000066       0.00000034
Hf      -0.00000010      -0.00000001       0.00000015       0.00000195      -0.00000110      -0.00000292
F        1.59994571       1.13133273       5.31507460       0.00291783       0.00206460      -0.00000089
F        4.53737305       3.20840714       5.31507475      -0.00291665      -0.00206164      -0.00000018
F        3.80301638       1.13133240       4.04313107      -0.00145959       0.00206268       0.00252944
F        2.33430277       3.20840708       6.58701815       0.00145575      -0.00206211      -0.00252527
F        2.33430261       3.20840715       4.04313100       0.00145984      -0.00206392       0.00252855
F        3.80301645       1.13133242       6.58701817      -0.00146025       0.00206069      -0.00252719
