9
Lattice="9.776277650714075 -2.2476429143929668e-07 5.644336539474264 3.2587592979408053 9.217164413461822 5.644336032077428 1.396805451070355e-07 -5.226629251097224e-07 11.288672837014785" Properties=species:S:1:pos:R:3:forces:R:3 energy=-33.12030029296875 free_energy=-33.12030029296875 stress="-5.561117723118514e-05 5.422595705795175e-10 1.160181728465659e-09 5.422595705795175e-10 -5.5612032156204805e-05 -8.764509118464048e-09 1.160181728465659e-09 -8.764509118464048e-09 -5.5614058510400355e-05" pbc="T T T"
Br       3.25876150       2.30429056       5.64433272      -0.00000037      -0.00000069       0.00000004
Br       9.77627797       6.91287077      16.93300574      -0.00000118      -0.00000029       0.00000028
Hf      -0.00000068       0.00000046       0.00000093      -0.00000042       0.00000394      -0.00000234
Cl       2.02115132       1.42916959      11.28867113       0.00243914       0.00172552       0.00000073
Cl      11.01388590       7.78799413      11.28867305      -0.00244129      -0.00172505       0.00000073
Cl       8.76570243       1.42916903       7.39470741      -0.00122061       0.00172758       0.00211376
Cl       4.26933394       7.78799393      15.18264115       0.00122148      -0.00172627      -0.00211650
Cl       4.26933530       7.78799566       7.39470524       0.00122234      -0.00172746       0.00211340
Cl       8.76570019       1.42917117      15.18264315      -0.00121894       0.00172272      -0.00211003
