9
Lattice="6.093610727506764 -2.6480190640691563e-08 3.518148089659083 2.031203559401272 5.745111428630208 3.5181480748821667 1.6297897684669044e-07 9.714557708036833e-08 7.036295897030343" Properties=species:S:1:pos:R:3:forces:R:3 energy=-23.021404266357422 free_energy=-23.021404266357422 stress="0.0003273358743172139 -3.9590368317021785e-08 1.7254727424642624e-08 -3.9590368317021785e-08 0.00032735345303080976 -2.1868716615358608e-08 1.7254727424642624e-08 -2.1868716615358608e-08 0.0003273822949267924" pbc="T T T"
Br       2.03120268       1.43627803       3.51814792       0.00000045       0.00000058      -0.00000175
Br       6.09361081       4.30883313      10.55444386      -0.00000128       0.00000070      -0.00000073
Ir       0.00000021       0.00000020      -0.00000010      -0.00000082      -0.00000527       0.00000567
Cl       1.85281436       1.31013720       7.03629560      -0.00613803      -0.00434077       0.00000131
Cl       6.27200003       4.43497389       7.03629584       0.00614345       0.00434428       0.00000150
Cl       5.16720371       1.31013818       5.12273272       0.00307173      -0.00434521      -0.00532049
Cl       2.95761076       4.43497445       8.94985984      -0.00307062       0.00434092       0.00531954
Cl       2.95761138       4.43497353       5.12273290      -0.00307488       0.00434676      -0.00532413
Cl       5.16720421       1.31013737       8.94985979       0.00307018      -0.00434202       0.00531894
