9
Lattice="5.488447582425297 2.2861676386482667e-08 3.1687562563098 1.829482512688656 5.174557934627223 3.168756319253653 -3.216717989472713e-08 5.4344556981267915e-08 6.337512568334835" Properties=species:S:1:pos:R:3:forces:R:3 energy=-31.797544479370117 free_energy=-31.797544479370117 stress="-0.00023239452275447547 1.3820746858073107e-07 -8.856430255832493e-09 1.3820746858073107e-07 -0.00023246472119353712 3.23915934075103e-08 -8.856430255832493e-09 3.23915934075103e-08 -0.00023261936439666897" pbc="T T T"
Br       1.82948260       1.29363940       3.16875596      -0.00000032      -0.00000003      -0.00000007
Br       5.48844769       3.88091885       9.50626941       0.00000008       0.00000046       0.00000154
Ir       0.00000000       0.00000016      -0.00000057      -0.00000862      -0.00000968       0.00005699
F        1.52693533       1.07970637       6.33751248       0.00181638       0.00128420      -0.00000151
F        5.79099480       4.09485162       6.33751251      -0.00180764      -0.00127760      -0.00000083
F        4.72497982       1.07970670       4.49112102      -0.00090431       0.00127852       0.00156580
F        2.59295020       4.09485128       8.18390430       0.00091802      -0.00129691      -0.00159329
F        2.59295012       4.09485145       4.49112080       0.00090508      -0.00127895       0.00156699
F        4.72497972       1.07970630       8.18390455      -0.00091859       0.00129993      -0.00159585
