9
Lattice="4.580669875343464 -1.681201400283571e-08 2.644650932873655 1.5268899276168808 4.318697102564313 2.644650958820515 -3.123426585941503e-08 9.69232806025623e-09 5.289301919846653" Properties=species:S:1:pos:R:3:forces:R:3 energy=-32.793174743652344 free_energy=-32.793174743652344 stress="0.0002894639619626105 5.5227622475229055e-09 -4.131118558348135e-08 5.5227622475229055e-09 0.000289410469122231 -9.156981839453238e-09 -4.131118558348135e-08 -9.156981839453238e-09 0.0002894684439525008" pbc="T T T"
Br       1.52688983       1.07967439       2.64465107       0.00000149      -0.00000200      -0.00000174
Br       4.58066982       3.23902277       7.93395297       0.00000117       0.00000132      -0.00000038
Mo      -0.00000005       0.00000001      -0.00000005       0.00000168       0.00000279       0.00000359
F        1.50351562       1.06314598       5.28930200       0.00705701       0.00499004       0.00000032
F        4.60404427       3.25555101       5.28930182      -0.00706053      -0.00499094       0.00000087
F        3.82891204       1.06314620       3.94673366      -0.00352675       0.00498646       0.00610894
F        2.27864771       3.25555093       6.63187008       0.00352925      -0.00498989      -0.00611162
F        2.27864780       3.25555102       3.94673373       0.00352639      -0.00498760       0.00611055
F        3.82891212       1.06314602       6.63187004      -0.00352970       0.00498959      -0.00611049
