9
Lattice="9.779185426715378 -2.5964393856005932e-06 5.646013157725607 3.259727776063434 9.219901223729089 5.646010129342615 1.153937798601565e-06 -2.893039822443475e-06 11.292024316773416" Properties=species:S:1:pos:R:3:forces:R:3 energy=-29.266277313232422 free_energy=-29.266277313232422 stress="6.180208060868608e-07 7.031776938504208e-09 -2.5911395251654312e-09 7.031776938504208e-09 6.102070528868353e-07 -4.817700016701565e-09 -2.5911395251654312e-09 -4.817700016701565e-09 5.95060726027441e-07" pbc="T T T"
Br       3.25972798       2.30496953       5.64601161      -0.00000000       0.00000039       0.00000003
Br       9.77918261       6.91492642      16.93804149      -0.00000039      -0.00000023      -0.00000011
Mo       0.00000080      -0.00000025      -0.00000073      -0.00000227       0.00000080       0.00000379
Cl       1.89653176       1.34104702      11.29202262      -0.00134236      -0.00094913       0.00000063
Cl      11.14238317       7.87884799      11.29202278       0.00134358       0.00094946      -0.00000043
Cl       8.83091999       1.34104603       7.28845518       0.00067130      -0.00094771      -0.00116086
Cl       4.20799513       7.87884798      15.29559105      -0.00066881       0.00094560       0.00115678
Cl       4.20799407       7.87885236       7.28845282      -0.00067009       0.00094812      -0.00115967
Cl       8.83092232       1.34104253      15.29559297       0.00066918      -0.00094716       0.00115994
