9
Lattice="9.64366915870792 -1.6111242867802037e-06 5.567773019596804 3.214554729034339 9.092139370088372 5.567773258998458 -1.5700434202665835e-06 -8.169822618813396e-07 11.135548758588069" Properties=species:S:1:pos:R:3:forces:R:3 energy=-26.773563385009766 free_energy=-26.773563385009766 stress="-4.32234191976022e-05 -1.973492036455582e-09 -5.410055958776638e-09 -1.973492036455582e-09 -4.3232867028564215e-05 7.68633867664903e-09 -5.410055958776638e-09 7.68633867664903e-09 -4.3238007492618635e-05" pbc="T T T"
Br       3.21455827       2.27303739       5.56777480       0.00000063       0.00000005      -0.00000083
Br       9.64366911       6.81909724      16.70331807       0.00000003      -0.00000062       0.00000125
Mn      -0.00000102       0.00000039       0.00000044       0.00000125       0.00000388       0.00000487
Cl       1.78543058       1.26249181      11.13554789       0.00177401       0.00125599       0.00000115
Cl      11.07279016       7.82964608      11.13554758      -0.00177723      -0.00125748      -0.00000194
Cl       8.75095212       1.26249046       7.11400481      -0.00088522       0.00125504       0.00153431
Cl       4.10726861       7.82964696      15.15709119       0.00088769      -0.00125742      -0.00153956
Cl       4.10727190       7.82964802       7.11400330       0.00088847      -0.00125709       0.00154051
Cl       8.75094895       1.26248961      15.15709207      -0.00088960       0.00125769      -0.00153968
