9
Lattice="5.757210595433294 7.204726993069392e-08 3.3239279522102727 1.9190705938520114 5.427950049609129 3.3239273850546525 2.3752899525701454e-07 -5.266624596145279e-07 6.647855493008251" Properties=species:S:1:pos:R:3:forces:R:3 energy=-30.940471649169922 free_energy=-30.940471649169922 stress="-0.0001811822730815038 -8.272888152305313e-08 -2.615344563139388e-08 -8.272888152305313e-08 -0.0001811855036066845 -6.251084094799353e-09 -2.615344563139388e-08 -6.251084094799353e-09 -0.00018108477524947375" pbc="T T T"
Br       1.91906952       1.35698077       3.32391488      -0.00000014      -0.00000015       0.00000041
Br       5.75721329       4.07095306       9.97176639       0.00000013      -0.00000060      -0.00000157
Mn       0.00000003       0.00000197       0.00000338       0.00000118      -0.00000281       0.00000634
F        1.47331379       1.04179410       6.64786020      -0.00152242      -0.00107685      -0.00000024
F        6.20296697       4.38616064       6.64785991       0.00152159       0.00107417       0.00000174
F        5.02055215       1.04179311       4.59985974       0.00076619      -0.00108317      -0.00132617
F        2.65572915       4.38616099       8.69585870      -0.00076240       0.00108111       0.00132591
F        2.65572840       4.38616209       4.59986048      -0.00076544       0.00108430      -0.00132647
F        5.02055248       1.04179208       8.69585901       0.00076151      -0.00107595       0.00131992
