9
Lattice="4.621058294703548 -9.108831298571113e-09 2.6679692445544703 1.5403527642147554 4.356775521992884 2.667969230868726 -5.017883815948108e-09 -2.0309723400849418e-08 5.335938497800176" Properties=species:S:1:pos:R:3:forces:R:3 energy=-40.09617233276367 free_energy=-40.09617233276367 stress="0.0001772981631802395 -3.764282663354379e-09 -1.1080886253012068e-07 -3.764282663354379e-09 0.00017722956545185298 3.7757086346346114e-08 -1.1080886253012068e-07 3.7757086346346114e-08 0.00017743176431395113" pbc="T T T"
Br       1.54035288       1.08919385       2.66796922      -0.00000244       0.00000133       0.00000102
Br       4.62105820       3.26758155       8.00390789       0.00000244      -0.00000228      -0.00000250
Nb      -0.00000004       0.00000009      -0.00000024      -0.00000082       0.00000196      -0.00000351
F        1.55441383       1.09913645       5.33593845       0.00223728       0.00158414      -0.00000080
F        4.60699725       3.25763903       5.33593842      -0.00223857      -0.00158398       0.00000266
F        3.84385140       1.09913646       4.01413097      -0.00111605       0.00158148       0.00193739
F        2.31755957       3.25763906       6.65774605       0.00111973      -0.00158221      -0.00193718
F        2.31755968       3.25763909       4.01413103       0.00111688      -0.00158364       0.00193930
F        3.84385147       1.09913639       6.65774594      -0.00111815       0.00158344      -0.00193676
