9
Lattice="5.921755347455486 8.789390939452385e-09 3.4189269809113085 1.9739184337160987 5.583084763209723 3.4189270219997376 -8.397499893459261e-08 -9.056363480962814e-09 6.837854107271558" Properties=species:S:1:pos:R:3:forces:R:3 energy=-17.658767700195312 free_energy=-17.658767700195312 stress="-1.2203187907289248e-05 -8.447156751856255e-09 3.4838645746049224e-08 -8.447156751856255e-09 -1.2284958756936248e-05 1.986971120970793e-08 3.4838645746049224e-08 1.986971120970793e-08 -1.2259110917511862e-05" pbc="T T T"
Br       1.97391853       1.39577047       3.41892714       0.00000060      -0.00000226      -0.00000310
Br       5.92175545       4.18731350      10.25678206       0.00000014       0.00000047       0.00000126
Ni       0.00000041       0.00000024      -0.00000097      -0.00000808      -0.00000279       0.00001222
Cl       1.82432314       1.28999156       6.83785367      -0.00052890      -0.00037353       0.00000006
Cl       6.07134969       4.29309290       6.83785384       0.00053644       0.00037913       0.00000041
Cl       5.00959337       1.28999221       4.99883780       0.00026722      -0.00037785      -0.00046304
Cl       2.88608009       4.29309348       8.67687035      -0.00026560       0.00037436       0.00045741
Cl       2.88608075       4.29309305       4.99883797      -0.00026773       0.00037751      -0.00046307
Cl       5.00959321       1.28999162       8.67687040       0.00026549      -0.00037487       0.00045779
