9
Lattice="9.639044606968735 1.2839205768805195e-06 5.565105941724 3.2130160683364655 9.08777739429682 5.565105961028372 1.0064458098877965e-06 7.353077159233671e-07 11.130210140232883" Properties=species:S:1:pos:R:3:forces:R:3 energy=-31.30211639404297 free_energy=-31.30211639404297 stress="-5.9996000345563516e-05 1.115769476811579e-09 -3.188837638390396e-09 1.115769476811579e-09 -6.000798748573288e-05 1.2844942887113575e-08 -3.188837638390396e-09 1.2844942887113575e-08 -5.998870256007649e-05" pbc="T T T"
Br       3.21301793       2.27194507       5.56510967      -0.00000052      -0.00000035      -0.00000053
Br       9.63904357       6.81583227      16.69531132      -0.00000013       0.00000007       0.00000076
Nb       0.00000017       0.00000057       0.00000001       0.00000449      -0.00000210      -0.00000202
Cl       1.94588866       1.37595092      11.13021005      -0.00010276      -0.00007191      -0.00000031
Cl      10.90617277       7.71182917      11.13021241       0.00010249       0.00007150      -0.00000115
Cl       8.66610234       1.37595215       7.25029409       0.00005123      -0.00007108      -0.00008926
Cl       4.18596154       7.71182789      15.01012920      -0.00005466       0.00007418       0.00009203
Cl       4.18595889       7.71182779       7.25029399      -0.00005008       0.00007057      -0.00008696
Cl       8.66610209       1.37595144      15.01012849       0.00005005      -0.00007090       0.00008729
