9
Lattice="5.339003783532397 1.1629990545595238e-06 3.082476416400191 1.7796691382954035 5.033661367714335 3.0824762190065704 6.971531831156667e-07 2.5120487020343943e-07 6.164951625295585" Properties=species:S:1:pos:R:3:forces:R:3 energy=-21.989919662475586 free_energy=-21.989919662475586 stress="0.00015593055286444724 3.0177301368894405e-07 -9.334929274018577e-08 3.0177301368894405e-07 0.00015564450586680323 4.189566737977657e-08 -9.334929274018577e-08 4.189566737977657e-08 0.00015551272372249514" pbc="T T T"
Br       1.77966269       1.25841154       3.08247740      -0.00000435      -0.00000820       0.00000023
Br       5.33900008       3.77524256       9.24743016      -0.00000242      -0.00000793       0.00000180
Ni       0.00000132      -0.00000682      -0.00000039       0.00000621       0.00022963       0.00000148
F        1.46547219       1.03624466       6.16495079      -0.00411198      -0.00291869       0.00000160
F        5.65320583       3.99742366       6.16495311       0.00403786       0.00284337      -0.00000393
F        4.60627249       1.03624486       4.35160840       0.00204736      -0.00289862      -0.00353944
F        2.51240407       3.99742379       7.97829437      -0.00201067       0.00282845       0.00347924
F        2.51240322       3.99742093       4.35160585      -0.00200272       0.00282566      -0.00347537
F        4.60627253       1.03624616       7.97829693       0.00204062      -0.00289379       0.00353426
