9
Lattice="5.593594100728777 -3.5884100550105736e-07 3.2294628025051737 1.864531312751644 5.273688044944217 3.229462310324594 4.493256211937862e-07 -2.850743716990533e-07 6.458924826755477" Properties=species:S:1:pos:R:3:forces:R:3 energy=-24.974536895751953 free_energy=-24.974536895751953 stress="0.0001159364910563454 3.808892046208712e-08 1.0942994954632468e-08 3.808892046208712e-08 0.00011595083924476057 -6.158715848414431e-08 1.0942994954632468e-08 -6.158715848414431e-08 0.00011606497719185427" pbc="T T T"
Br       1.86452852       1.31842249       3.22946357      -0.00000325       0.00000046       0.00000099
Br       5.59359452       3.95526531       9.68838723       0.00000086      -0.00000066      -0.00000194
Pd       0.00000067      -0.00000064      -0.00000064      -0.00000065       0.00002022       0.00002430
F        1.54875500       1.09513449       6.45892445      -0.00308448      -0.00218204       0.00000057
F        5.90937145       4.17855312       6.45892565       0.00307947       0.00217548      -0.00000220
F        4.81921764       1.09513367       4.57072361       0.00154369      -0.00218141      -0.00267503
F        2.63890928       4.17855346       8.34712586      -0.00153483       0.00216761       0.00265822
F        2.63890834       4.17855368       4.57072331      -0.00154047       0.00217932      -0.00267300
F        4.81921797       1.09513378       8.34712691       0.00153965      -0.00217888       0.00266775
