9
Lattice="4.669712872126215 9.289866108212553e-08 2.6960600663493164 1.5565709779646952 4.4026480030462976 2.6960601823904944 -1.3206296815823272e-07 4.8738210556974274e-08 5.392120361438396" Properties=species:S:1:pos:R:3:forces:R:3 energy=-26.353490829467773 free_energy=-26.353490829467773 stress="-0.00045585876796394587 9.536402778564934e-09 1.2583263320209426e-08 9.536402778564934e-09 -0.0004558484361041337 -5.6131153058913696e-08 1.2583263320209426e-08 -5.6131153058913696e-08 -0.0004558867949526757" pbc="T T T"
Br       1.55657096       1.10066203       2.69605994      -0.00000064       0.00000120      -0.00000002
Br       4.66971282       3.30198610       8.08818024      -0.00000012      -0.00000198      -0.00000159
Pt      -0.00000003      -0.00000014       0.00000051      -0.00000269       0.00000424      -0.00000685
F        1.56624241       1.10750094       5.39212035      -0.00067337      -0.00047448      -0.00000071
F        4.66004126       3.29514725       5.39212022       0.00067268       0.00047462       0.00000051
F        3.88659152       1.10750103       4.05246601       0.00033591      -0.00047395      -0.00058021
F        2.33969228       3.29514732       6.73177457      -0.00033583       0.00047484       0.00058059
F        2.33969226       3.29514716       4.05246612      -0.00033567       0.00047335      -0.00057890
F        3.88659152       1.10750090       6.73177449       0.00033959      -0.00047785       0.00058730
