9
Lattice="6.10269999351801 -4.999465458036603e-08 3.5233955750851407 2.0342332893099653 5.753681079937666 3.5233955659525065 3.103536358196856e-08 1.076014961488476e-08 7.046791096415455" Properties=species:S:1:pos:R:3:forces:R:3 energy=-18.308757781982422 free_energy=-18.308757781982422 stress="0.0001013811634038575 1.5884229043194864e-08 -1.4952264981715757e-09 1.5884229043194864e-08 0.00010130662121810019 2.093458206786636e-08 -1.4952264981715757e-09 2.093458206786636e-08 0.00010134105832548812" pbc="T T T"
Br       2.03423275       1.43841927       3.52339534       0.00000077      -0.00000103      -0.00000125
Br       6.10270005       4.31526107      10.57018654      -0.00000061       0.00000313       0.00000027
Pd       0.00000003       0.00000025       0.00000026       0.00000306      -0.00000781      -0.00000264
Cl       1.89655270       1.34106588       7.04679131      -0.00215775      -0.00152576       0.00000114
Cl       6.24038092       4.41261549       7.04679118       0.00215739       0.00152633       0.00000016
Cl       5.15442345       1.34106566       5.16585856       0.00107756      -0.00152409      -0.00186622
Cl       2.98251005       4.41261552       8.92772354      -0.00107929       0.00152722       0.00186878
Cl       2.98250982       4.41261550       5.16585850      -0.00107819       0.00152555      -0.00186610
Cl       5.15442350       1.34106559       8.92772375       0.00107688      -0.00152382       0.00186592
