9
Lattice="6.096277043386822 5.964333742186024e-08 3.5196872049909906 2.0320924025496487 5.747624985784088 3.519687207551334 -1.3245676379297347e-07 -9.052526936700763e-08 7.039374639403832" Properties=species:S:1:pos:R:3:forces:R:3 energy=-16.987640380859375 free_energy=-16.987640380859375 stress="-0.00025970840943045914 -1.6833997307230675e-08 2.957539990688929e-09 -1.6833997307230675e-08 -0.0002597055281512439 -1.2865077891888177e-08 2.957539990688929e-09 -1.2865077891888177e-08 -0.0002596912672743201" pbc="T T T"
Br       2.03209193       1.43690663       3.51968707      -0.00000095      -0.00000052       0.00000054
Br       6.09627746       4.31071858      10.55906233       0.00000043      -0.00000042       0.00000020
Pb       0.00000010      -0.00000003      -0.00000017       0.00000120       0.00000214      -0.00000233
Cl       2.08725352       1.47591128       7.03937445       0.00334239       0.00236429      -0.00000051
Cl       6.04111569       4.27171361       7.03937426      -0.00334291      -0.00236466      -0.00000102
Cl       5.05265030       1.47591101       5.32730208      -0.00167141       0.00236508       0.00289470
Cl       3.07571914       4.27171384       8.75144693       0.00167014      -0.00236268      -0.00289383
Cl       3.07571905       4.27171376       5.32730206       0.00167079      -0.00236380       0.00289423
Cl       5.05265011       1.47591110       8.75144719      -0.00166963       0.00236069      -0.00289193
