9
Lattice="4.497739064869481 -1.122855475534027e-07 2.5967709318597443 1.4992462878195447 4.24050901234208 2.596770864782819 -1.235976598105458e-08 -9.089179936805026e-08 5.193541885127227" Properties=species:S:1:pos:R:3:forces:R:3 energy=-30.22450065612793 free_energy=-30.22450065612793 stress="0.0008625797345302999 -1.4006620574491535e-07 1.2381906344671734e-07 -1.4006620574491535e-07 0.0008622681489214301 4.382852480944166e-08 1.2381906344671734e-07 4.382852480944166e-08 0.000862457265611738" pbc="T T T"
Br       1.49924610       1.06012728       2.59677085       0.00000089       0.00000125      -0.00000063
Br       4.49773917       3.18038147       7.79031255       0.00000078       0.00000111       0.00000093
P        0.00000005       0.00000013       0.00000001       0.00000023      -0.00000380      -0.00000141
F        1.37066584       0.96920657       5.19354177       0.00520599       0.00367904       0.00000081
F        4.62631959       3.27130214       5.19354173      -0.00520360      -0.00367755       0.00000063
F        3.81240634       0.96920677       3.78380217      -0.00260422       0.00367910       0.00450701
F        2.18457894       3.27130192       6.60328173       0.00260192      -0.00368053      -0.00450653
F        2.18457889       3.27130199       3.78380205       0.00260028      -0.00368083       0.00450653
F        3.81240643       0.96920691       6.60328182      -0.00260264       0.00368190      -0.00450736
