9
Lattice="9.747835404134316 -5.744406125796775e-07 5.627913140555066 3.2492790376314438 9.190343815594405 5.6279112159449864 2.5598702274199313e-06 -5.470553437036276e-07 11.255821847285997" Properties=species:S:1:pos:R:3:forces:R:3 energy=-22.147998809814453 free_energy=-22.147998809814453 stress="-1.0112008567375597e-05 -2.7327284879419267e-09 2.6621817639238543e-08 -2.7327284879419267e-09 -1.0105502951773815e-05 1.2892749978732354e-08 2.6621817639238543e-08 1.2892749978732354e-08 -1.0110134098795243e-05" pbc="T T T"
Br       3.24927104       2.29757888       5.62789910       0.00000000       0.00000006       0.00000069
Br       9.74783763       6.89275586      16.88373438       0.00000001       0.00000020       0.00000038
P        0.00000397       0.00000009       0.00000211      -0.00007461       0.00001357       0.00000004
Cl       1.76566061       1.24850530      11.25582456       0.00153369       0.00107938      -0.00000779
Cl      11.23145774       7.94183748      11.25582689      -0.00149393      -0.00106096       0.00000581
Cl       8.86501100       1.24851053       7.15701746      -0.00075239       0.00105923       0.00130576
Cl       4.13210887       7.94183387      15.35463332       0.00076959      -0.00107563      -0.00131893
Cl       4.13210900       7.94183817       7.15701649       0.00076112      -0.00107974       0.00131762
Cl       8.86501103       1.24850569      15.35463315      -0.00074327       0.00106406      -0.00130397
