9
Lattice="5.5589956670791745 1.0316147303266676e-06 3.2094889708898093 1.8529995390372467 5.2410729112994785 3.2094889523074546 1.5273330835175687e-06 1.0572289494177953e-06 6.418975296360947" Properties=species:S:1:pos:R:3:forces:R:3 energy=-26.407100677490234 free_energy=-26.407100677490234 stress="-0.0001742966560414061 3.529237346810987e-08 -2.7583422212984487e-09 3.529237346810987e-08 -0.00017434651090297848 1.6865460139570132e-08 -2.7583422212984487e-09 1.6865460139570132e-08 -0.00017429700528737158" pbc="T T T"
Br       1.85299686       1.31027582       3.20948670      -0.00000119       0.00000413      -0.00000249
Br       5.55899354       3.93080634       9.62846870      -0.00000208      -0.00000047       0.00000338
Pb       0.00000054      -0.00000023       0.00000016       0.00000343      -0.00001448       0.00000499
F        1.69848830       1.20101048       6.41897548       0.00589719       0.00416899       0.00000058
F        5.71351098       4.04006214       6.41897636      -0.00589174      -0.00416857      -0.00000099
F        4.70975360       1.20101223       4.68041932      -0.00294960       0.00417173       0.00510800
F        2.70224583       4.04006142       8.15753365       0.00294802      -0.00416932      -0.00510252
F        2.70224180       4.04006192       4.68042204       0.00294587      -0.00416529       0.00510064
F        4.70975595       1.20101057       8.15753067      -0.00294992       0.00417316      -0.00511181
