9
Lattice="5.477565567961191 1.2962785490530434e-07 3.162474384871853 1.8258552511798074 5.164298573746198 3.1624744894095542 -1.0689777728630853e-07 5.244387469513617e-08 6.324948954896109" Properties=species:S:1:pos:R:3:forces:R:3 energy=-33.42140197753906 free_energy=-33.42140197753906 stress="0.00014158345584291965 -3.577100216034523e-08 6.136934516121073e-09 -3.577100216034523e-08 0.00014160701539367437 1.4016110050363295e-08 6.136934516121073e-09 1.4016110050363295e-08 0.0001416114973835647" pbc="T T T"
Br       1.82585536       1.29107459       3.16247406       0.00000020      -0.00000104      -0.00000026
Br       5.47756542       3.87322441       9.48742359       0.00000036      -0.00000066      -0.00000053
Ru      -0.00000008       0.00000022       0.00000071      -0.00000438       0.00000119      -0.00001409
F        1.53415177       1.08480927       6.32494884      -0.00253588      -0.00179255       0.00000036
F        5.76926886       4.07948932       6.32494901       0.00253731       0.00179434       0.00000060
F        4.71048943       1.08480949       4.49108918       0.00126913      -0.00179410      -0.00219667
F        2.59293121       4.07948939       8.15880840      -0.00127107       0.00179803       0.00220168
F        2.59293120       4.07948906       4.49108923      -0.00126815       0.00179306      -0.00219536
F        4.71048949       1.08480951       8.15880841       0.00127253      -0.00179833       0.00220364
