9
Lattice="5.998482698178525 9.434341219316562e-08 3.4632257643196516 1.999494317415951 5.655423441058124 3.4632257716948525 7.179467930782279e-08 5.979926761654824e-08 6.9264514042874845" Properties=species:S:1:pos:R:3:forces:R:3 energy=-21.238758087158203 free_energy=-21.238758087158203 stress="0.0002967103791888803 -4.3889968992516515e-08 -1.6745525854844345e-08 -4.3889968992516515e-08 0.000296709593385458 1.7294116361199485e-08 -1.6745525854844345e-08 1.7294116361199485e-08 0.00029666064074262977" pbc="T T T"
Br       1.99949457       1.41385582       3.46322650       0.00000174       0.00000154       0.00000029
Br       5.99848222       4.24156773      10.38967695      -0.00000036      -0.00000024      -0.00000062
Rh       0.00000003      -0.00000044      -0.00000039      -0.00000113       0.00000386       0.00000270
Cl       1.87775968       1.32777647       6.92645135      -0.00521511      -0.00368723      -0.00000061
Cl       6.12021760       4.32764735       6.92645148       0.00521231       0.00368443       0.00000108
Cl       5.05960253       1.32777697       5.08941363       0.00260945      -0.00369012      -0.00451812
Cl       2.93837437       4.32764696       8.76348965      -0.00260779       0.00368804       0.00451580
Cl       2.93837448       4.32764696       5.08941292      -0.00260675       0.00368741      -0.00451499
Cl       5.05960293       1.32777651       8.76348962       0.00260772      -0.00368777       0.00451443
