9
Lattice="5.51446218810259 -1.0198224952432268e-07 3.1837765748426845 1.8381539942215264 5.199084308667487 3.183776526916045 -2.2583813693223157e-07 -2.1838970177191832e-07 6.367553540848515" Properties=species:S:1:pos:R:3:forces:R:3 energy=-28.738178253173828 free_energy=-28.738178253173828 stress="-0.00010084294626722112 -2.8732360490835163e-08 5.523599799772683e-09 -2.8732360490835163e-08 -0.0001008073304546997 -3.0503057857345084e-09 5.523599799772683e-09 -3.0503057857345084e-09 -0.00010078599734697491" pbc="T T T"
Br       1.83815369       1.29977074       3.18377610      -0.00000014      -0.00000024      -0.00000115
Br       5.51446129       3.89931271       9.55133145      -0.00000071      -0.00000007       0.00000159
Rh       0.00000021       0.00000003       0.00000034      -0.00000341       0.00000778      -0.00002809
F        1.54396017       1.09174479       6.36755355       0.00277522       0.00196230      -0.00000098
F        5.80865594       4.10733938       6.36755325      -0.00277653      -0.00196257       0.00000068
F        4.74248212       1.09174475       4.52088531      -0.00139010       0.00196421       0.00240746
F        2.61013391       4.10733917       8.21422090       0.00138570      -0.00195882      -0.00239834
F        2.61013447       4.10733952       4.52088494       0.00139156      -0.00196826       0.00241154
F        4.74248165       1.09174472       8.21422090      -0.00138174       0.00195533      -0.00239283
