9
Lattice="4.7341676214562876 -1.1766912735524239e-07 2.733272953816748 1.5780558032824645 4.463415814372605 2.733272883836311 -1.863849424555212e-08 -9.888756469434603e-08 5.466545939916275" Properties=species:S:1:pos:R:3:forces:R:3 energy=-39.16947937011719 free_energy=-39.16947937011719 stress="-0.0001016011883621104 8.543502794111646e-09 1.1087203688475711e-07 8.543502794111646e-09 -0.00010166841093450785 -1.305639045767748e-07 1.1087203688475711e-07 -1.305639045767748e-07 -0.00010166338324779645" pbc="T T T"
Br       1.57805596       1.11585391       2.73327304      -0.00000464      -0.00000009      -0.00000053
Br       4.73416745       3.34756164       8.19981891       0.00000146       0.00000152       0.00000323
Re       0.00000007      -0.00000013       0.00000005      -0.00000743       0.00001121      -0.00001104
F        1.51420631       1.07070546       5.46654585       0.00059415       0.00042127      -0.00000106
F        4.79801705       3.39271026       5.46654587      -0.00059314      -0.00042166      -0.00000318
F        3.97706449       1.07070536       4.04461398      -0.00029651       0.00042222       0.00051886
F        2.33515906       3.39271008       6.88847780       0.00029644      -0.00042082      -0.00051877
F        2.33515904       3.39271039       4.04461387       0.00030007      -0.00042477       0.00051922
F        3.97706419       1.07070547       6.88847780      -0.00028996       0.00041160      -0.00050639
