9
Lattice="6.347474156331312 -2.0251186094809708e-08 3.664715964903113 2.1158247392839393 5.984455379573564 3.664715896314485 2.4277448696114704e-07 8.766357803396132e-08 7.329431509308612" Properties=species:S:1:pos:R:3:forces:R:3 energy=-23.639272689819336 free_energy=-23.639272689819336 stress="-1.249331580766011e-05 2.255283426677579e-08 2.4791729558160114e-08 2.255283426677579e-08 -1.2559097740449943e-05 1.5076080828180238e-08 2.4791729558160114e-08 1.5076080828180238e-08 -1.2460811376513448e-05" pbc="T T T"
Br       2.11582416       1.49611292       3.66471574       0.00000039      -0.00000022       0.00000044
Br       6.34747582       4.48834257      10.99414679      -0.00000044       0.00000087       0.00000014
Ru       0.00000036       0.00000058       0.00000121      -0.00000277      -0.00000090      -0.00000323
Cl       1.85374748       1.31079664       7.32943169       0.00068092       0.00048155      -0.00000005
Cl       6.60955082       4.67365841       7.32943181      -0.00067693      -0.00047952      -0.00000059
Cl       5.42060066       1.31079658       5.27010814      -0.00034130       0.00048232       0.00059032
Cl       3.04269865       4.67365912       9.38875518       0.00034031      -0.00048357      -0.00058883
Cl       3.04269820       4.67365864       5.27010833       0.00034085      -0.00048190       0.00058997
Cl       5.42060066       1.31079643       9.38875514      -0.00034100       0.00048143      -0.00058830
