9
Lattice="4.574389976482747 4.4943697940370963e-08 2.641025318688919 1.5247966952443792 4.312776116595623 2.6410253290059305 -2.1016898045826012e-09 1.1149593281602817e-08 5.282050641018055" Properties=species:S:1:pos:R:3:forces:R:3 energy=-25.842140197753906 free_energy=-25.842140197753906 stress="-0.0007558140205219388 6.041610589591073e-08 -7.666831614017156e-09 6.041610589591073e-08 -0.0007555659394711256 3.916752078225727e-08 -7.666831614017156e-09 3.916752078225727e-08 -0.0007558935321867466" pbc="T T T"
Br       1.52479672       1.07819379       2.64102535      -0.00000287      -0.00000058      -0.00000228
Br       4.57438983       3.23458218       7.92307588       0.00000140      -0.00000126       0.00000199
S       -0.00000003       0.00000008       0.00000005      -0.00000133      -0.00000051       0.00000151
F        1.37934601       0.97534493       5.28205071       0.00047100       0.00033242       0.00000081
F        4.71984062       3.33743113       5.28205053      -0.00046825      -0.00033170      -0.00000179
F        3.88471697       0.97534497       3.83557393      -0.00023443       0.00033325       0.00040877
F        2.21446969       3.33743125       6.72852730       0.00023389      -0.00033206      -0.00040770
F        2.21446974       3.33743126       3.83557407       0.00023592      -0.00033349       0.00040638
F        3.88471708       0.97534508       6.72852739      -0.00023520       0.00033373      -0.00040913
