9
Lattice="6.467937827031863 -9.015364880352337e-08 3.734265310397142 2.1559790931887886 6.098030551266782 3.73426547925617 -4.50813358950699e-08 1.7493205016745155e-07 7.4685306988774425" Properties=species:S:1:pos:R:3:forces:R:3 energy=-16.40414047241211 free_energy=-16.40414047241211 stress="2.943013214462553e-06 -5.6646780599578506e-09 -1.573967800538867e-08 -5.6646780599578506e-09 2.94597930405871e-06 3.222362465749029e-08 -1.573967800538867e-08 3.222362465749029e-08 2.9289985832292587e-06" pbc="T T T"
Br       2.15597890       1.52450707       3.73426531       0.00000014      -0.00000052      -0.00000031
Br       6.46793793       4.57352290      11.20279500      -0.00000046      -0.00000006       0.00000067
Se      -0.00000014      -0.00000048      -0.00000022       0.00000129       0.00000631       0.00000166
Cl       1.89755277       1.34177217       7.46853131       0.00014544       0.00010335      -0.00000051
Cl       6.72636563       4.75625897       7.46853079      -0.00015116      -0.00010663       0.00000052
Cl       5.51916113       1.34177234       5.37759448      -0.00007212       0.00010276       0.00012547
Cl       3.10475461       4.75625872       9.55946816       0.00007504      -0.00010478      -0.00013006
Cl       3.10475455       4.75625914       5.37759316       0.00007600      -0.00010669       0.00013232
Cl       5.51916186       1.34177171       9.55946780      -0.00007418       0.00010645      -0.00012946
