9
Lattice="9.62296971586255 -5.492623046105456e-07 5.555821927992628 3.207656313280226 9.072625333831333 5.55582147908576 -1.7776210121841654e-06 -1.806763921146453e-06 11.111646934914797" Properties=species:S:1:pos:R:3:forces:R:3 energy=-18.102462768554688 free_energy=-18.102462768554688 stress="-5.272468115435913e-05 -9.909115306072636e-09 8.224672054524262e-10 -9.909115306072636e-09 -5.2712719480041414e-05 4.865119418440145e-09 8.224672054524262e-10 4.865119418440145e-09 -5.2719711675308645e-05" pbc="T T T"
Br       3.20764036       2.26814731       5.55581292       0.00000068       0.00000015       0.00000033
Br       9.62295238       6.80447721      16.66746835       0.00000154      -0.00000002       0.00000041
S        0.00000501      -0.00000026       0.00000104       0.00000168       0.00000174       0.00000091
Cl       1.87400204       1.32511687      11.11165009       0.00072098       0.00050959      -0.00000105
Cl      10.95663128       7.74750622      11.11164269      -0.00072512      -0.00051264      -0.00000089
Cl       8.68597115       1.32511611       7.17875321      -0.00035809       0.00050835       0.00062492
Cl       4.14465999       7.74750524      15.04453847       0.00036038      -0.00050686      -0.00062355
Cl       4.14466062       7.74750685       7.17875404       0.00035867      -0.00050892       0.00062531
Cl       8.68597425       1.32511584      15.04453856      -0.00036098       0.00050870      -0.00062627
