9
Lattice="4.5340414853294995 -3.824846375423424e-08 2.6177301804773476 1.5113470771759074 4.274735536314036 2.6177302645503904 -8.434586165435923e-08 4.332649696154981e-08 5.235460507046011" Properties=species:S:1:pos:R:3:forces:R:3 energy=-23.814388275146484 free_energy=-23.814388275146484 stress="0.00025425784406252205 -5.0708372612007224e-08 5.107833800366279e-08 -5.0708372612007224e-08 0.0002541902067605406 3.945043403064119e-08 5.107833800366279e-08 3.945043403064119e-08 0.0002542154397815466" pbc="T T T"
Br       1.51134687       1.06868369       2.61772990      -0.00000316      -0.00000292      -0.00000736
Br       4.53404116       3.20605138       7.85319031       0.00000499      -0.00000141      -0.00000387
Se      -0.00000113      -0.00000007       0.00000237      -0.00001946      -0.00000119       0.00004030
F        1.49854317       1.05963014       5.23546020       0.00303280       0.00214392      -0.00000440
F        4.54684601       3.21510560       5.23546033      -0.00302345      -0.00213909      -0.00000456
F        3.78477001       1.05963007       3.91550645      -0.00151262       0.00214010       0.00261968
F        2.26061897       3.21510551       6.55541385       0.00151724      -0.00213987      -0.00263083
F        2.26061901       3.21510559       3.91550639       0.00151584      -0.00214010       0.00261897
F        3.78476987       1.05963023       6.55541395      -0.00151125       0.00214040      -0.00262827
