9
Lattice="4.619892540624224 3.937002658735245e-08 2.6672960577052143 1.5399642194751 4.355676282454111 2.6672960539837103 7.43237131483539e-08 4.7996910730603796e-08 5.334591986677979" Properties=species:S:1:pos:R:3:forces:R:3 energy=-27.401996612548828 free_energy=-27.401996612548828 stress="-4.030845229863189e-05 2.7301526372980334e-08 -7.969737225721474e-08 2.7301526372980334e-08 -4.0143368096323684e-05 3.307799900653663e-08 -7.969737225721474e-08 3.307799900653663e-08 -4.013407669845037e-05" pbc="T T T"
Br       1.53996418       1.08891900       2.66729617      -0.00000141      -0.00000030      -0.00000219
Br       4.61989265       3.26675713       8.00188834       0.00000228      -0.00000147       0.00000115
Sn       0.00000011       0.00000009      -0.00000037      -0.00000606       0.00000657       0.00001180
F        1.59232161       1.12594122       5.33459204       0.00346126       0.00245016       0.00000344
F        4.56753524       3.22973525       5.33459203      -0.00346212      -0.00244770       0.00000047
F        3.82373170       1.12594137       4.04628686      -0.00172560       0.00244201       0.00298850
F        2.33612515       3.22973503       6.62289727       0.00173328      -0.00245288      -0.00300313
F        2.33612488       3.22973496       4.04628672       0.00173024      -0.00244647       0.00299775
F        3.82373183       1.12594150       6.62289725      -0.00173210       0.00245077      -0.00299776
