9
Lattice="6.35997252958316 -3.0468001507623064e-07 3.6719318319092227 2.1199906690921457 5.996239542127319 3.671931635922804 1.875536055583606e-07 -1.0741295088488352e-07 7.343863338966117" Properties=species:S:1:pos:R:3:forces:R:3 energy=-19.42521858215332 free_energy=-19.42521858215332 stress="-1.7448324797442183e-05 1.085680711998549e-10 -1.174604524756262e-09 1.085680711998549e-10 -1.745121153362561e-05 -1.859866749498451e-08 -1.174604524756262e-09 -1.859866749498451e-08 -1.7461139577790163e-05" pbc="T T T"
Br       2.11999093       1.49906005       3.67193233      -0.00000040      -0.00000054      -0.00000049
Br       6.35997346       4.49717947      11.01579590       0.00000011       0.00000012       0.00000018
Sn       0.00000001      -0.00000014      -0.00000034      -0.00000149      -0.00000125      -0.00000159
Cl       1.99402871       1.40999083       7.34386325      -0.00386134      -0.00273305       0.00000098
Cl       6.48593420       4.58624793       7.34386337       0.00386837       0.00273415       0.00000148
Cl       5.36295783       1.40999122       5.39881107       0.00193344      -0.00273541      -0.00334549
Cl       3.11700512       4.58624800       9.28891512      -0.00193439       0.00273493       0.00335202
Cl       3.11700524       4.58624787       5.39881125      -0.00193639       0.00273490      -0.00335270
Cl       5.36295805       1.40999118       9.28891532       0.00193191      -0.00273365       0.00334603
