9
Lattice="9.634827213430695 -5.633841075154059e-07 5.562669177749875 3.2116087658356656 9.083802237827095 5.562668786555709 -8.889130381948075e-07 -1.1076695198695014e-06 11.125339895141712" Properties=species:S:1:pos:R:3:forces:R:3 energy=-23.564964294433594 free_energy=-23.564964294433594 stress="-5.038812741986476e-05 -7.991618033997838e-09 5.154737081625171e-09 -7.991618033997838e-09 -5.0395487050991505e-05 -9.081458252069297e-09 5.154737081625171e-09 -9.081458252069297e-09 -5.039989991928451e-05" pbc="T T T"
Br       3.21160904       2.27095164       5.56266851       0.00000092       0.00000022       0.00000066
Br       9.63483070       6.81285002      16.68800623       0.00000029      -0.00000050       0.00000041
Si      -0.00000045      -0.00000012       0.00000051      -0.00000957       0.00000149       0.00000244
Cl       1.79858411       1.27179032      11.12534083       0.00236630       0.00167549       0.00000018
Cl      11.04784947       7.81200961      11.12533895      -0.00236428      -0.00167441       0.00000064
Cl       8.73553404       1.27179165       7.12029005      -0.00118077       0.00167286       0.00204700
Cl       4.11090001       7.81200868      15.13038904       0.00118536      -0.00167572      -0.00205570
Cl       4.11090039       7.81200979       7.12029027       0.00118124      -0.00167215       0.00205100
Cl       8.73553314       1.27178969      15.13038820      -0.00117904       0.00167280      -0.00204694
