9
Lattice="4.471444417735382 3.029077292341687e-08 2.5815896574861115 1.490481470417949 4.21571841943738 2.581589710692852 -1.0258324300027503e-07 -7.3726253102227155e-09 5.1631794926516035" Properties=species:S:1:pos:R:3:forces:R:3 energy=-32.289031982421875 free_energy=-32.289031982421875 stress="0.00035139720421284437 3.5729410541307516e-08 2.2694979229243017e-09 3.5729410541307516e-08 0.0003512744733598083 5.737004649120081e-09 2.2694979229243017e-09 5.737004649120081e-09 0.00035153282806277275" pbc="T T T"
Br       1.49048148       1.05392967       2.58158960      -0.00000331      -0.00000181      -0.00000067
Br       4.47144425       3.16178874       7.74476887       0.00000332       0.00000251      -0.00000076
Si      -0.00000008       0.00000009       0.00000004      -0.00000133       0.00000012       0.00000128
F        1.44479828       1.02162672       5.16317945       0.00109231       0.00077283       0.00000036
F        4.51712758       3.19409170       5.16317946      -0.00109035      -0.00077367      -0.00000017
F        3.74904523       1.02162686       3.83282185      -0.00054395       0.00077128       0.00094783
F        2.21288063       3.19409163       6.49353701       0.00054449      -0.00077140      -0.00094539
F        2.21288057       3.19409162       3.83282189       0.00054452      -0.00077116       0.00094414
F        3.74904511       1.02162682       6.49353719      -0.00054514       0.00077224      -0.00094742
