9
Lattice="9.732325432763236 -1.6895577401992445e-06 5.61896217038161 3.244108328951888 9.175718820830014 5.6189596687906915 1.9297204770926006e-06 -1.699293240674431e-06 11.237920998390305" Properties=species:S:1:pos:R:3:forces:R:3 energy=-29.000823974609375 free_energy=-29.000823974609375 stress="-5.1281014748383313e-05 -2.9929078659840513e-10 5.487852838825802e-09 -2.9929078659840513e-10 -5.129817873239517e-05 4.252422414197099e-09 5.487852838825802e-09 4.252422414197099e-09 -5.128386692376807e-05" pbc="T T T"
Br       3.24410319       2.29393565       5.61897193      -0.00000053      -0.00000000      -0.00000037
Br       9.73233400       6.88178102      16.85687526      -0.00000099       0.00000068      -0.00000095
Ti      -0.00000024      -0.00000040      -0.00000126      -0.00000124       0.00000152       0.00000110
Cl       1.93756462       1.37006044      11.23792173       0.00324827       0.00229627      -0.00000159
Cl      11.03887041       7.80565489      11.23792105      -0.00324792      -0.00229633       0.00000130
Cl       8.76354378       1.37006183       7.29693882      -0.00162277       0.00229532       0.00281221
Cl       4.21289060       7.80565312      15.17890204       0.00162518      -0.00229657      -0.00281328
Cl       4.21288884       7.80565504       7.29693705       0.00162277      -0.00229686       0.00281262
Cl       8.76354777       1.37006026      15.17890368      -0.00162300       0.00229579      -0.00281125
