9
Lattice="4.626863536364531 2.7308808590817715e-08 2.6713208318624178 1.5422878651303944 4.362248800625998 2.6713208423784636 -2.473360947583179e-08 -4.60983105753986e-09 5.34264170656469" Properties=species:S:1:pos:R:3:forces:R:3 energy=-43.75520706176758 free_energy=-43.75520706176758 stress="-0.0002931122144218534 1.2186292508431507e-07 -3.556922933967144e-08 1.2186292508431507e-07 -0.00029303025803528726 -2.782735109008172e-08 -3.556922933967144e-08 -2.782735109008172e-08 -0.000293164630420506" pbc="T T T"
Br       1.54228770       1.09056227       2.67132057       0.00000088       0.00000005       0.00000318
Br       4.62686345       3.27168636       8.01396268      -0.00000197       0.00000606      -0.00000384
Ta      -0.00000002       0.00000006      -0.00000021       0.00000427      -0.00000643      -0.00000375
F        1.55913425       1.10247438       5.34264181       0.00408980       0.00288818      -0.00000206
F        4.61001733       3.25977449       5.34264150      -0.00408703      -0.00289019       0.00000494
F        3.84729637       1.10247439       4.02157044      -0.00205059       0.00289341       0.00354967
F        2.32185474       3.25977448       6.66371310       0.00204764      -0.00289072      -0.00354117
F        2.32185486       3.25977457       4.02157066       0.00204637      -0.00289445       0.00354095
F        3.84729672       1.10247423       6.66371294      -0.00204919       0.00289383      -0.00354761
