9
Lattice="9.856276179001561 9.79993519602452e-07 5.690524822975695 3.285426065540633 9.29258671848833 5.69052525842438 3.4973047612542713e-07 7.806103118251464e-07 11.381049040200354" Properties=species:S:1:pos:R:3:forces:R:3 energy=-33.8175163269043 free_energy=-33.8175163269043 stress="-2.770428409348824e-06 -1.6070623942709972e-08 -9.503445808078936e-10 -1.6070623942709972e-08 -2.7530004444997758e-06 -8.221920033690822e-09 -9.503445808078936e-10 -8.221920033690822e-09 -2.7308576591167366e-06" pbc="T T T"
Br       3.28542678       2.32314655       5.69053042      -0.00000118       0.00000035       0.00000024
Br       9.85627722       6.96943989      17.07157886       0.00000018       0.00000030       0.00000030
Ta      -0.00000036       0.00000002      -0.00000085       0.00000045       0.00000456      -0.00002050
Cl       1.93539446       1.36853085      11.38104729       0.00007319       0.00005214      -0.00000002
Cl      11.20630801       7.92405766      11.38104971      -0.00007498      -0.00005439      -0.00000167
Cl       8.88857845       1.36853221       7.36662316      -0.00003609       0.00005323       0.00006458
Cl       4.25312253       7.92405667      15.39547200       0.00003162      -0.00004588      -0.00005418
Cl       4.25312322       7.92405682       7.36662473       0.00003685      -0.00005211       0.00006279
Cl       8.88857905       1.36853245      15.39547099      -0.00002983       0.00004184      -0.00005150
