9
Lattice="9.741529261925667 3.569509140680584e-07 5.624275613078693 3.2471767552747828 9.184401261792274 5.6242756163758205 -1.4612945658696174e-07 -9.929058808752443e-08 11.248551479260783" Properties=species:S:1:pos:R:3:forces:R:3 energy=-19.58938980102539 free_energy=-19.58938980102539 stress="-3.3820283533714246e-06 4.3843080277383706e-09 6.96027457891546e-09 4.3843080277383706e-09 -3.386090838830569e-06 -8.308497778664048e-10 6.96027457891546e-09 -8.308497778664048e-10 -3.393523684280808e-06" pbc="T T T"
Br       3.24717746       2.29610509       5.62428053      -0.00000011       0.00000001      -0.00000094
Br       9.74153676       6.88830442      16.87282479      -0.00000196      -0.00000041      -0.00000060
Te      -0.00000093      -0.00000101      -0.00000019      -0.00000418      -0.00000234      -0.00000863
Cl       1.96979307       1.39285373      11.24855133      -0.00247025      -0.00174718       0.00000065
Cl      11.01891029       7.79154535      11.24854947       0.00247397       0.00174925       0.00000173
Cl       8.75663141       1.39285343       7.33016769       0.00123335      -0.00174451      -0.00213723
Cl       4.23207292       7.79154592      15.16693497      -0.00123446       0.00174767       0.00214057
Cl       4.23207203       7.79154486       7.33016707      -0.00123349       0.00174549      -0.00213847
Cl       8.75663048       1.39285450      15.16693543       0.00123714      -0.00174807       0.00214282
