9
Lattice="9.621528369000938 8.074214545113442e-06 5.554987058127952 3.207181498093122 9.071353900082608 5.554990933422721 -2.181852569975075e-06 3.2034188196696624e-06 11.109977895298858" Properties=species:S:1:pos:R:3:forces:R:3 energy=-37.82371520996094 free_energy=-37.82371520996094 stress="-9.309390406997409e-06 1.7122690820770003e-08 -8.85841160425116e-08 1.7122690820770003e-08 -9.422989023732953e-06 8.117113736716419e-08 -8.85841160425116e-08 8.117113736716419e-08 -9.455999133933801e-06" pbc="T T T"
Br       3.20735977       2.26803862       5.55458656      -0.00000123      -0.00000169       0.00000463
Br       9.62163066       6.80340249      16.66444845      -0.00000080       0.00000038       0.00000481
V       -0.00004303      -0.00000157       0.00013491      -0.00084384      -0.00020629      -0.00000003
F        1.47020600       1.03966844      11.11004843       0.00186956       0.00139248       0.00003007
F       11.35838371       8.03164411      11.11014352      -0.00108632      -0.00072744       0.00002101
F        8.88631060       1.03969863       6.82839888      -0.00069663       0.00091487       0.00112176
F        3.94231491       8.03166470      15.39185037       0.00075951      -0.00118339      -0.00145397
F        3.94231764       8.03177687       6.82846713       0.00075968      -0.00117677       0.00146887
F        8.88631278       1.03958637      15.39173210      -0.00075988       0.00098801      -0.00119725
