9
Lattice="9.671073508605744 1.4217892560118952e-06 5.583597614519544 3.2236923738188796 9.1179767469076 5.583597850409394 2.3275536136835171e-07 4.534890399106462e-07 11.16719482589456" Properties=species:S:1:pos:R:3:forces:R:3 energy=-28.227100372314453 free_energy=-28.227100372314453 stress="-3.7057157896924764e-05 1.6519063894548935e-09 -1.1821719159144095e-09 1.6519063894548935e-09 -3.70624075003434e-05 3.6920535517737108e-09 -1.1821719159144095e-09 3.6920535517737108e-09 -3.70633824786637e-05" pbc="T T T"
Br       3.22369100       2.27949299       5.58360026      -0.00000017       0.00000050      -0.00000033
Br       9.67107256       6.83848544      16.75079412       0.00000018      -0.00000028      -0.00000003
V        0.00000010       0.00000039      -0.00000087       0.00000571      -0.00000130       0.00001368
Cl       1.83936002       1.30062280      11.16719467       0.00224912       0.00159228      -0.00000084
Cl      11.05540756       7.81735555      11.16719533      -0.00225395      -0.00159401      -0.00000034
Cl       8.75139413       1.30062494       7.17652831      -0.00112319       0.00159073       0.00194925
Cl       4.14337113       7.81735409      15.15786028       0.00112712      -0.00159383      -0.00195295
Cl       4.14337249       7.81735404       7.17652861       0.00112411      -0.00159055       0.00194830
Cl       8.75139495       1.30062541      15.15786110      -0.00112900       0.00159675      -0.00195676
