9
Lattice="9.631747700653184 3.78276631326924e-07 5.560891957305584 3.210582746227423 9.080897655362591 5.5608922643967995 8.448349813387837e-07 9.734977268492442e-07 11.1217824513133" Properties=species:S:1:pos:R:3:forces:R:3 energy=-32.296485900878906 free_energy=-32.296485900878906 stress="-5.809805224998854e-05 7.646018929108322e-09 1.1306357627915986e-08 7.646018929108322e-09 -5.809823051095009e-05 -8.340685475616283e-09 1.1306357627915986e-08 -8.340685475616283e-09 -5.810968650621362e-05" pbc="T T T"
Br       3.21058910       2.27022844       5.56089062       0.00000005       0.00000014       0.00000019
Br       9.63175349       6.81067419      16.68267817       0.00000025      -0.00000046      -0.00000075
W       -0.00000104      -0.00000050      -0.00000013      -0.00000272       0.00000627      -0.00001009
Cl       1.88510654       1.33297148      11.12178156       0.00371204       0.00262539      -0.00000058
Cl      10.95722310       7.74792516      11.12178297      -0.00371535      -0.00262590       0.00000173
Cl       8.68919368       1.33297119       7.19344144      -0.00186018       0.00262979       0.00322153
Cl       4.15313447       7.74792676      15.05012406       0.00185948      -0.00262707      -0.00321972
Cl       4.15313451       7.74792629       7.19344207       0.00185984      -0.00263058       0.00322062
Cl       8.68919246       1.33297342      15.05012523      -0.00185353       0.00262249      -0.00321297
