9
Lattice="4.653296914880287 -1.56113822656745e-07 2.686582149621165 1.55109891769446 4.387170021060913 2.686581988101806 2.6756951351950306e-08 -1.7889996272622417e-07 5.3731642528979116" Properties=species:S:1:pos:R:3:forces:R:3 energy=-34.68765640258789 free_energy=-34.68765640258789 stress="-0.0002273910358780995 2.958288369825368e-08 7.45847188454718e-08 2.958288369825368e-08 -0.00022732083743903786 -1.299091678674813e-07 7.45847188454718e-08 -1.299091678674813e-07 -0.00022747571347281337" pbc="T T T"
Br       1.55109888       1.09679227       2.68658189      -0.00000193       0.00000461       0.00000247
Br       4.65329703       3.29037716       8.05974625       0.00000046      -0.00000190       0.00000131
W        0.00000004       0.00000013       0.00000040       0.00000104      -0.00000543      -0.00000895
F        1.53350432       1.08435120       5.37316437       0.00199375       0.00141010      -0.00000288
F        4.67089135       3.30281853       5.37316412      -0.00198919      -0.00141034      -0.00000166
F        3.88654489       1.08435101       4.01463572      -0.00100181       0.00141636       0.00173467
F        2.31785122       3.30281862       6.73169237       0.00099459      -0.00140870      -0.00172341
F        2.31785124       3.30281863       4.01463599       0.00099730      -0.00141203       0.00172338
F        3.88654449       1.08435108       6.73169237      -0.00099383       0.00140709      -0.00172564
