9
Lattice="4.670060934175233 1.2028430709532667e-07 2.6962609881882966 1.556687055716068 4.402975876969276 2.6962610501047304 -7.644757723135852e-08 2.1775239221368803e-08 5.392522108787673" Properties=species:S:1:pos:R:3:forces:R:3 energy=-38.15998840332031 free_energy=-38.15998840332031 stress="2.407176452834392e-06 1.9219198676978522e-08 9.375312259862767e-08 1.9219198676978522e-08 2.206812723670737e-06 -3.50099718104957e-08 9.375312259862767e-08 -3.50099718104957e-08 2.8495553578977706e-06" pbc="T T T"
Br       1.55668727       1.10074313       2.69626091       0.00000322       0.00000079       0.00000195
Br       4.67006183       3.30223131       8.08878309      -0.00000211      -0.00000149       0.00000030
Zr      -0.00000038       0.00000041       0.00000025       0.00000020      -0.00000072      -0.00000418
F        1.65006750       1.16677411       5.39252209      -0.00221378      -0.00156337       0.00000087
F        4.57668003       3.23620212       5.39252190       0.00221366       0.00156245       0.00000049
F        3.84502682       1.16677455       4.12526158       0.00110510      -0.00156483      -0.00191799
F        2.38172075       3.23620216       6.65978312      -0.00110498       0.00156558       0.00192001
F        2.38172073       3.23620197       4.12526124      -0.00110602       0.00156462      -0.00191805
F        3.84502702       1.16677430       6.65978251       0.00110516      -0.00156289       0.00191623
