9
Lattice="9.788550259381608 -1.1371287231715947e-06 5.651420934198775 3.2628487948986455 9.2287328115153 5.651421314325813 -3.2994096671416134e-07 2.32255350047643e-07 11.302842439872022" Properties=species:S:1:pos:R:3:forces:R:3 energy=-31.39914894104004 free_energy=-31.39914894104004 stress="-4.765495759784244e-05 5.8866017615955e-10 6.3924150417449255e-09 5.8866017615955e-10 -4.7648245526943356e-05 9.305057169228803e-09 6.3924150417449255e-09 9.305057169228803e-09 -4.765204357681796e-05" pbc="T T T"
Br       3.26284540       2.30718585       5.65141855      -0.00000117      -0.00000047      -0.00000032
Br       9.78855308       6.92154860      16.95425603      -0.00000065      -0.00000053       0.00000234
Zr       0.00000003       0.00000009       0.00000151      -0.00000117      -0.00000212       0.00000004
Cl       2.05043038       1.44987237      11.30284426       0.00087285       0.00061738      -0.00000139
Cl      11.00096904       7.77885822      11.30284450      -0.00087118      -0.00061530       0.00000086
Cl       8.76333506       1.44987234       7.42714712      -0.00043437       0.00061518       0.00075543
Cl       4.28806268       7.77886073      15.17853974       0.00043702      -0.00061721      -0.00075525
Cl       4.28806487       7.77885894       7.42714688       0.00043482      -0.00061509       0.00075483
Cl       8.76333453       1.44987136      15.17854105      -0.00043613       0.00061798      -0.00075668
