9
Lattice="5.912675046987311 -2.8275295855072972e-08 3.4136845321999516 1.9708916620727146 5.574523433388399 3.413684521111661 1.9753812665027334e-08 3.877305432398876e-10 6.827369030185285" Properties=species:S:1:pos:R:3:forces:R:3 energy=-29.814783096313477 free_energy=-29.814783096313477 stress="0.00018735977937467396 -1.5155674493172455e-09 -2.470413429378482e-09 -1.5155674493172455e-09 0.00018736017227638513 9.516701204859146e-09 -2.470413429378482e-09 9.516701204859146e-09 0.00018735806224867702" pbc="T T T"
Ca       1.97089154       1.39363093       3.41368456      -0.00000111       0.00000068       0.00000127
Ca       5.91267504       4.18089271      10.24105325       0.00000018       0.00000014      -0.00000019
Au      -0.00000027       0.00000013      -0.00000031       0.00000616      -0.00000216       0.00000461
Cl       2.03224065       1.43701124       6.82736896      -0.00549468      -0.00388664       0.00000050
Cl       5.85132630       4.13751237       6.82736914       0.00549192       0.00388263       0.00000056
Cl       4.89655484       1.43701095       5.17365667       0.00274700      -0.00388487      -0.00475692
Cl       2.98701192       4.13751244       8.48108151      -0.00274601       0.00388456       0.00475769
Cl       2.98701208       4.13751203       5.17365674      -0.00274822       0.00388804      -0.00476120
Cl       4.89655486       1.43701081       8.48108183       0.00274485      -0.00388235       0.00475361
