9
Lattice="5.859998521805304 -2.2241585146095387e-08 3.383271733453735 1.9533328181495264 5.524859486626941 3.3832717360217113 -6.076629498975965e-08 -3.982315854009659e-08 6.766543572157819" Properties=species:S:1:pos:R:3:forces:R:3 energy=-30.036314010620117 free_energy=-30.036314010620117 stress="-4.9987243983196095e-05 8.195254252996165e-09 -1.1069719585421467e-09 8.195254252996165e-09 -5.0022019422613084e-05 5.084134002686369e-09 -1.1069719585421467e-09 5.084134002686369e-09 -5.000738019589335e-05" pbc="T T T"
Ca       1.95333266       1.38121470       3.38327204       0.00000072      -0.00000060       0.00000011
Ca       5.85999813       4.14364487      10.14981470      -0.00000043       0.00000088      -0.00000126
Ag       0.00000003       0.00000009      -0.00000000      -0.00000137       0.00000054       0.00000436
Cl       2.02530064       1.43210369       6.76654375      -0.00810620      -0.00573207      -0.00000056
Cl       5.78803080       4.09275558       6.76654350       0.00810578       0.00573178       0.00000112
Cl       4.84734828       1.43210352       5.13723344       0.00405318      -0.00573306      -0.00701985
Cl       2.96598303       4.09275584       8.39585361      -0.00405116       0.00573003       0.00701772
Cl       2.96598323       4.09275576       5.13723347      -0.00405295       0.00573204      -0.00701964
Cl       4.84734831       1.43210366       8.39585362       0.00405252      -0.00572957       0.00701794
