9
Lattice="6.181493093461722 3.5727196676522915e-09 3.568886631318068 2.060497649417523 5.827967524326161 3.5688867209888726 -4.9577221935919727e-08 7.476745341049369e-08 7.1377733485063946" Properties=species:S:1:pos:R:3:forces:R:3 energy=-26.348224639892578 free_energy=-26.348224639892578 stress="-0.00012978668382856995 -4.175938261852252e-09 -4.566766964586577e-09 -4.175938261852252e-09 -0.00012978637823835015 8.582443644655768e-10 -4.566766964586577e-09 8.582443644655768e-10 -0.00012978017912246287" pbc="T T T"
Ca       2.06049780       1.45699236       3.56888666       0.00000119       0.00000043       0.00000098
Ca       6.18149291       4.37097563      10.70665981      -0.00000168      -0.00000002      -0.00000064
Ag       0.00000007       0.00000015      -0.00000000      -0.00000358      -0.00000250       0.00000015
Br       2.13947635       1.51283822       7.13777341      -0.00635508      -0.00449407      -0.00000030
Br       6.10251402       4.31512924       7.13777350       0.00636053       0.00449714      -0.00000009
Br       5.11175497       1.51283822       5.42172757       0.00317831      -0.00449480      -0.00550568
Br       3.13023589       4.31512920       8.85381901      -0.00317936       0.00449488       0.00550640
Br       3.13023586       4.31512904       5.42172761      -0.00317863       0.00449429      -0.00550660
Br       5.11175491       1.51283839       8.85381922       0.00317826      -0.00449534       0.00550589
