9
Lattice="5.0092142480349295 -3.809439561990349e-09 2.892071153268856 1.6697380479245678 4.72273256923153 2.8920712072431347 9.173996975270659e-09 7.259183270030799e-08 5.784142290647811" Properties=species:S:1:pos:R:3:forces:R:3 energy=-39.90243911743164 free_energy=-39.90243911743164 stress="6.881041917949915e-05 1.5504275197031347e-08 1.1870638694233548e-08 1.5504275197031347e-08 6.878858403069898e-05 -1.1979907732495576e-08 1.1870638694233548e-08 -1.1979907732495576e-08 6.882061279611662e-05" pbc="T T T"
Ca       1.66973814       1.18068373       2.89207079       0.00000072       0.00000210      -0.00000148
Ca       5.00921387       3.54204958       8.67621319      -0.00000254       0.00000115      -0.00000054
Au      -0.00000010      -0.00000007       0.00000057      -0.00000285       0.00000231      -0.00002041
F        1.76808055       1.25022157       5.78414227      -0.00047681      -0.00033893      -0.00000068
F        4.91087179       3.47251069       5.78414237       0.00047852       0.00033721      -0.00000075
F        4.12517408       1.25022154       4.42327346       0.00023524      -0.00033309      -0.00040810
F        2.55377847       3.47251045       7.14501124      -0.00024020       0.00034032       0.00041878
F        2.55377838       3.47251114       4.42327339      -0.00023395       0.00033184      -0.00040732
F        4.12517392       1.25022189       7.14501142       0.00024197      -0.00034292       0.00042021
