9
Lattice="6.191155050245225 9.960810270031428e-08 3.574464862110374 2.063718426472682 5.837076897392711 3.5744648924568017 -2.770562790217886e-09 3.5207526716259836e-08 7.148929729019484" Properties=species:S:1:pos:R:3:forces:R:3 energy=-26.301532745361328 free_energy=-26.301532745361328 stress="-4.946423359797336e-05 1.1000524935411704e-09 -1.0519619841886652e-08 1.1000524935411704e-09 -4.9457925342721865e-05 -1.6890457921192592e-09 -1.0519619841886652e-08 -1.6890457921192592e-09 -4.9471535021439195e-05" pbc="T T T"
Ca       2.06371809       1.45926877       3.57446435      -0.00000118      -0.00000084      -0.00000121
Ca       6.19115520       4.37780793      10.72339589       0.00000073       0.00000093       0.00000479
Au       0.00000008      -0.00000016       0.00000023       0.00000082       0.00000469      -0.00000247
Br       2.13910027       1.51257243       7.14892976      -0.00468419      -0.00331283       0.00000023
Br       6.11577327       4.32450471       7.14892933       0.00468194       0.00331115      -0.00000164
Br       5.12160523       1.51257246       5.42697979       0.00234236      -0.00331166      -0.00405668
Br       3.13326816       4.32450492       8.87087945      -0.00234282       0.00331156       0.00405433
Br       3.13326850       4.32450486       5.42697970      -0.00234022       0.00331078      -0.00405490
Br       5.12160511       1.51257223       8.87087946       0.00234247      -0.00331391       0.00405752
