9
Lattice="6.743408744620699 3.796726904902322e-08 3.8933088103887323 2.2478029842364027 6.3577466977212085 3.8933087522491485 9.33846597333802e-09 -6.460287917270301e-08 7.786617604602748" Properties=species:S:1:pos:R:3:forces:R:3 energy=-22.773923873901367 free_energy=-22.773923873901367 stress="-5.862163015990518e-05 7.630957532533955e-10 -1.8461766837507554e-10 7.630957532533955e-10 -5.861986574018374e-05 2.9741509255387655e-09 -1.8461766837507554e-10 2.9741509255387655e-09 -5.860946112079546e-05" pbc="T T T"
Ca       2.24780286       1.58943669       3.89330904      -0.00000091       0.00000037       0.00000070
Ca       6.74340860       4.76831002      11.67992653       0.00000064       0.00000005       0.00000095
Au      -0.00000003       0.00000011      -0.00000012      -0.00000109       0.00000152      -0.00000041
I        2.33126453       1.64845279       7.78661760      -0.00251364      -0.00177671      -0.00000007
I        6.65994730       4.70929387       7.78661756       0.00251204       0.00177673      -0.00000065
I        5.57777655       1.64845292       5.91224279       0.00125697      -0.00177648      -0.00217810
I        3.41343529       4.70929385       9.66099219      -0.00125579       0.00177637       0.00217541
I        3.41343520       4.70929369       5.91224294      -0.00125518       0.00177580      -0.00217494
I        5.57777667       1.64845276       9.66099214       0.00125699      -0.00177757       0.00217710
