9
Lattice="4.875564591155144 6.340095349212273e-08 2.8149086122445284 1.6251882636007928 4.596726357955132 2.8149086005114357 5.679970694636172e-08 2.5793421862531635e-08 5.629817126109032" Properties=species:S:1:pos:R:3:forces:R:3 energy=-40.98526382446289 free_energy=-40.98526382446289 stress="0.0002585701586212963 3.2952108597328333e-08 2.247707353575379e-09 3.2952108597328333e-08 0.00025852807448245585 -2.0049949256417676e-08 2.247707353575379e-09 -2.0049949256417676e-08 0.00025856311549432576" pbc="T T T"
Ca       1.62518811       1.14918127       2.81490869      -0.00000023      -0.00000001       0.00000010
Ca       4.87556472       3.44754478       8.44472587      -0.00000061      -0.00000063      -0.00000039
Ag      -0.00000020       0.00000014       0.00000001       0.00000148      -0.00000707       0.00001296
F        1.72562525       1.22020120       5.62981718      -0.00103697      -0.00073385       0.00000043
F        4.77512761       3.37652517       5.62981708       0.00103948       0.00073633       0.00000043
F        4.01275223       1.22020161       4.30934368       0.00052111      -0.00073606      -0.00090039
F        2.48800086       3.37652509       6.95029044      -0.00051770       0.00073230       0.00089654
F        2.48800090       3.37652508       4.30934386      -0.00052157       0.00073776      -0.00090134
F        4.01275221       1.22020140       6.95029046       0.00051501      -0.00072867       0.00089204
