9
Lattice="6.708184975658828 -1.1250502237839015e-07 3.87297242109228 2.2360616313140604 6.324537249505857 3.8729722845514822 6.951407342280024e-08 -1.1807376679922272e-07 7.745944721782681" Properties=species:S:1:pos:R:3:forces:R:3 energy=-22.707977294921875 free_energy=-22.707977294921875 stress="-0.00011151609942317009 -1.5291660160343667e-09 -7.428061277181541e-09 -1.5291660160343667e-09 -0.00011151844228152186 3.991094565947151e-09 -7.428061277181541e-09 3.991094565947151e-09 -0.00011152219667565078" pbc="T T T"
Ca       2.23606200       1.58113346       3.87297284       0.00000057      -0.00000043       0.00000068
Ca       6.70818473       4.74340326      11.61891677      -0.00000032      -0.00000043      -0.00000035
Ag      -0.00000016       0.00000044      -0.00000004       0.00000033      -0.00000158       0.00000039
I        2.30875855       1.63253843       7.74594458      -0.00269459      -0.00190511       0.00000007
I        6.63548814       4.69199843       7.74594464       0.00269580       0.00190578       0.00000070
I        5.55380554       1.63253873       5.87241568       0.00134652      -0.00190590      -0.00233375
I        3.39044097       4.69199838       9.61947332      -0.00134708       0.00190641       0.00233410
I        3.39044113       4.69199841       5.87241613      -0.00134834       0.00190668      -0.00233464
I        5.55380582       1.63253853       9.61947381       0.00134718      -0.00190540       0.00233277
