9
Lattice="5.95633486597277 -6.252263503717261e-09 3.4388916276570214 1.9854449552427966 5.615686452666368 3.4388916175881428 -1.6664884624132803e-08 -2.411562791399868e-08 6.877783284178496" Properties=species:S:1:pos:R:3:forces:R:3 energy=-29.58730697631836 free_energy=-29.58730697631836 stress="0.00011220757733099163 -6.787023831833494e-09 -1.424742657185618e-09 -6.787023831833494e-09 0.0001122173125622794 1.491951451271234e-08 -1.424742657185618e-09 1.491951451271234e-08 0.0001122054090956226" pbc="T T T"
Ca       1.98544519       1.40392167       3.43889188      -0.00000007      -0.00000008       0.00000001
Ca       5.95633461       4.21176508      10.31667567      -0.00000099       0.00000066       0.00000188
Be       0.00000015       0.00000012       0.00000024      -0.00000073      -0.00000051      -0.00000241
Br       1.95175667       1.38010016       6.87778338       0.00379550       0.00268276      -0.00000164
Br       5.99002269       4.23558581       6.87778317      -0.00379144      -0.00268072      -0.00000244
Br       4.98045700       1.38010021       5.12916230      -0.00189836       0.00268465       0.00328713
Br       2.96132330       4.23558560       8.62640366       0.00189389      -0.00268177      -0.00328508
Br       2.96132336       4.23558637       5.12916236       0.00189807      -0.00268464       0.00328674
Br       4.98045628       1.38010068       8.62640342      -0.00189592       0.00267972      -0.00328427
