9
Lattice="5.605519276786131 -6.53376432604255e-08 3.2363481443604156 1.8685063831791247 5.284934254179697 3.2363481111315635 1.2918333036794764e-08 -3.156220723150949e-08 6.472696266345526" Properties=species:S:1:pos:R:3:forces:R:3 energy=-34.43552017211914 free_energy=-34.43552017211914 stress="0.00024051601940300316 8.286039410165813e-09 9.128692468607369e-09 8.286039410165813e-09 0.0002405289706075564 3.325268949083693e-09 9.128692468607369e-09 3.325268949083693e-09 0.00024052693333942443" pbc="T T T"
Ca       1.86850650       1.32123361       3.23634804      -0.00000036       0.00000025      -0.00000001
Ca       5.60551913       3.96370073       9.70904456       0.00000001       0.00000005       0.00000055
Be       0.00000007      -0.00000001      -0.00000008      -0.00000012       0.00000075      -0.00000056
Cl       1.82848084       1.29293111       6.47269621       0.00588489       0.00416076      -0.00000011
Cl       5.64554497       3.99200292       6.47269609      -0.00588399      -0.00416044       0.00000053
Cl       4.69127870       1.29293141       4.81985915      -0.00294232       0.00416035       0.00509393
Cl       2.78274673       3.99200289       8.12553356       0.00294205      -0.00416073      -0.00509469
Cl       2.78274688       3.99200288       4.81985906       0.00294178      -0.00416130       0.00509515
Cl       4.69127895       1.29293108       8.12553355      -0.00294221       0.00416012      -0.00509460
