9
Lattice="6.593387220845236 5.070287094431616e-08 3.806693859965454 2.197795806679589 6.216305027973445 3.806693827758341 1.888352454530591e-08 -2.6092769328953484e-08 7.613387687223551" Properties=species:S:1:pos:R:3:forces:R:3 energy=-24.625240325927734 free_energy=-24.625240325927734 stress="3.254982584621757e-05 3.1370281927678434e-09 5.3828510537812235e-09 3.1370281927678434e-09 3.256238414905965e-05 -5.586372697763409e-09 5.3828510537812235e-09 -5.586372697763409e-09 3.254127659602091e-05" pbc="T T T"
Ca       2.19779576       1.55407644       3.80669435      -0.00000036       0.00000095      -0.00000012
Ca       6.59338698       4.66222871      11.42008147       0.00000042      -0.00000094      -0.00000023
Be       0.00000006      -0.00000007       0.00000020      -0.00000069      -0.00000025      -0.00000012
I        2.14742046       1.51845531       7.61338766      -0.00520103      -0.00367803      -0.00000026
I        6.64376280       4.69784976       7.61338763       0.00520218       0.00367911       0.00000023
I        5.51967719       1.51845535       5.66641426       0.00260029      -0.00367830      -0.00450481
I        3.27150593       4.69784962       9.56036083      -0.00260048       0.00367778       0.00450473
I        3.27150591       4.69784961       5.66641411      -0.00260102       0.00367778      -0.00450433
I        5.51967715       1.51845551       9.56036100       0.00260068      -0.00367816       0.00450495
