9
Lattice="5.874047615063888 -9.259689340092101e-08 3.3913828924757685 1.9580157925770905 5.538104879861327 3.3913828782896296 2.8998093098762393e-08 3.1303528747733866e-09 6.782765734725335" Properties=species:S:1:pos:R:3:forces:R:3 energy=-39.2392692565918 free_energy=-39.2392692565918 stress="-2.79199502983829e-05 -3.850780672109977e-08 -1.848191288900125e-08 -3.850780672109977e-08 -2.7848889658343978e-05 -6.759411252943437e-09 -1.848191288900125e-08 -6.759411252943437e-09 -2.786426921375096e-05" pbc="T T T"
Ca       1.95801600       1.38452687       3.39138220       0.00000200       0.00000208      -0.00000361
Ca       5.87404831       4.15357942      10.17414884       0.00000152       0.00000292      -0.00000116
Cr       0.00000036       0.00000043       0.00000103      -0.00000508      -0.00000544      -0.00001142
Cl       1.90396361       1.34630535       6.78276592       0.00282937       0.00200127       0.00000010
Cl       5.92809971       4.19179921       6.78276594      -0.00282753      -0.00199997      -0.00000067
Cl       4.92206517       1.34630525       5.04026431      -0.00141437       0.00200099       0.00245091
Cl       2.90999837       4.19179777       8.52526714       0.00140990      -0.00199452      -0.00244305
Cl       2.90999757       4.19179858       5.04026420       0.00141336      -0.00200033       0.00245132
Cl       4.92206472       1.34630627       8.52526655      -0.00140913       0.00199312      -0.00244266
