9
Lattice="4.840877345811156 -1.1964317105922745e-07 2.794881627235177 1.6136257654540036 4.564022539273271 2.7948814604081975 6.488019429894895e-08 -1.5844323845575765e-07 5.589763142094518" Properties=species:S:1:pos:R:3:forces:R:3 energy=-51.05817413330078 free_energy=-51.05817413330078 stress="0.0007271592621691525 -2.509888119561765e-08 4.136121134479254e-08 -2.509888119561765e-08 0.0007272205548360944 -1.658823833849965e-08 4.136121134479254e-08 -1.658823833849965e-08 0.0007272076327353716" pbc="T T T"
Ca       1.61362582       1.14100639       2.79488154       0.00000013       0.00000393      -0.00000164
Ca       4.84087719       3.42301681       8.38464461      -0.00000162       0.00000077      -0.00000062
Cr       0.00000001       0.00000025      -0.00000036      -0.00000071      -0.00000812       0.00001223
F        1.58440707       1.12034445       5.58976335      -0.00659788      -0.00466612      -0.00000040
F        4.87009613       3.44367692       5.58976295       0.00660342       0.00466830       0.00000127
F        4.04867390       1.12034494       4.16701853       0.00330198      -0.00467017      -0.00571948
F        2.40582914       3.44367697       7.01250841      -0.00329995       0.00466520       0.00571561
F        2.40582938       3.44367697       4.16701822      -0.00330576       0.00467348      -0.00572550
F        4.04867384       1.12034489       7.01250799       0.00330037      -0.00466788       0.00571769
