9
Lattice="5.7029774535497975 -2.4674584937456524e-08 3.2926157104239215 1.900992506440147 5.376818735651172 3.2926156321577817 8.689863928392083e-08 -3.4409437815417017e-08 6.585231270335008" Properties=species:S:1:pos:R:3:forces:R:3 energy=-32.224910736083984 free_energy=-32.224910736083984 stress="-7.110575097613037e-05 7.062613688324504e-11 -5.6289612970772396e-09 7.062613688324504e-11 -7.111606828402728e-05 -1.1121460197216493e-08 -5.6289612970772396e-09 -1.1121460197216493e-08 -7.112476305337623e-05" pbc="T T T"
Ca       1.90099271       1.34420481       3.29261605       0.00000153       0.00000161       0.00000169
Ca       5.70297747       4.03261437       9.87784653      -0.00000027       0.00000007      -0.00000063
Cu       0.00000018       0.00000022       0.00000019      -0.00000072      -0.00000155      -0.00000145
Cl       1.91289857       1.35262335       6.58523134      -0.00151423      -0.00106999       0.00000025
Cl       5.69107144       4.02419497       6.58523137       0.00151443       0.00106978      -0.00000137
Cl       4.74652828       1.35262310       4.94923424       0.00075568      -0.00106885      -0.00130914
Cl       2.85744205       4.02419527       8.22122820      -0.00075734       0.00107099       0.00131044
Cl       2.85744147       4.02419529       4.94923422      -0.00075606       0.00106877      -0.00130992
Cl       4.74652811       1.35262341       8.22122831       0.00075705      -0.00107071       0.00130989
