9
Lattice="5.729399364099198 -1.5140286825764533e-08 3.30787029179143 1.9097997860124083 5.401729313380561 3.3078702705673138 2.8430075109430378e-08 -5.891004950233854e-09 6.6157405343404765" Properties=species:S:1:pos:R:3:forces:R:3 energy=-35.64408874511719 free_energy=-35.64408874511719 stress="-6.3436855270992965e-06 5.203839581469083e-09 1.7987696665500152e-08 5.203839581469083e-09 -6.384958851413103e-06 -6.31465235656492e-09 1.7987696665500152e-08 -6.31465235656492e-09 -6.339209903671872e-06" pbc="T T T"
Ca       1.90979985       1.35043222       3.30787077       0.00000006      -0.00000046       0.00000169
Ca       5.72939950       4.05129733       9.92361115       0.00000071       0.00000115      -0.00000072
Co       0.00000004      -0.00000014       0.00000024      -0.00000144       0.00000157      -0.00000700
Cl       1.87901766       1.32866590       6.61574063       0.00025247       0.00017929      -0.00000152
Cl       5.76018162       4.07306331       6.61574053      -0.00025200      -0.00017940       0.00000068
Cl       4.78989055       1.32866578       4.93514712      -0.00012884       0.00018071       0.00022084
Cl       2.84930846       4.07306321       8.29633354       0.00012589      -0.00017780      -0.00021842
Cl       2.84930869       4.07306316       4.93514707       0.00012690      -0.00018248       0.00021995
Cl       4.78989034       1.32866635       8.29633338      -0.00012365       0.00017764      -0.00021578
