9
Lattice="5.774303093240457 -7.532286605619335e-08 3.3337956124640336 1.9247676554535746 5.444065144075338 3.3337955627163294 2.9364831298368025e-08 -4.0164178616796705e-08 6.667591174066666" Properties=species:S:1:pos:R:3:forces:R:3 energy=-30.721271514892578 free_energy=-30.721271514892578 stress="0.00016079166380222887 -6.904252169981362e-10 5.848571849043083e-09 -6.904252169981362e-10 0.00016079905617516488 6.995569012957503e-09 5.848571849043083e-09 6.995569012957503e-09 0.0001607952726772055" pbc="T T T"
Ca       1.92476794       1.36101624       3.33379557       0.00000185      -0.00000007      -0.00000015
Ca       5.77430294       4.08304871      10.00138671      -0.00000183      -0.00000053      -0.00000119
C        0.00000032      -0.00000015      -0.00000056      -0.00000205      -0.00000071       0.00000122
Cl       1.94808541       1.37750464       6.66759123      -0.00517057      -0.00365639      -0.00000012
Cl       5.75098479       4.06656035       6.66759136       0.00517434       0.00365873      -0.00000041
Cl       4.80026019       1.37750469       5.02088756       0.00258568      -0.00365759      -0.00447993
Cl       2.89881082       4.06656040       8.31429497      -0.00258708       0.00365810       0.00448090
Cl       2.89881061       4.06656040       5.02088765      -0.00258625       0.00365818      -0.00448038
Cl       4.80026011       1.37750484       8.31429494       0.00258575      -0.00365965       0.00448003
