9
Lattice="6.627764201703789 -2.6558522849170277e-07 3.826541711957431 2.2092546868009517 6.248715964189481 3.8265413598386755 2.2171892797749206e-07 -2.744766809568091e-07 7.653083039886436" Properties=species:S:1:pos:R:3:forces:R:3 energy=-26.952739715576172 free_energy=-26.952739715576172 stress="0.00013592526374850422 8.063350875886499e-09 9.008017665124157e-10 8.063350875886499e-09 0.00013591483002528548 -3.67973451709247e-09 9.008017665124157e-10 -3.67973451709247e-09 0.00013590756861958653" pbc="T T T"
Ca       2.20925420       1.56217833       3.82654183       0.00000013       0.00000031       0.00000027
Ca       6.62776484       4.68653673      11.47962457      -0.00000034      -0.00000133       0.00000061
Co      -0.00000005       0.00000019       0.00000018      -0.00000065       0.00000092       0.00000065
I        2.18870369       1.54764688       7.65308299       0.00417493       0.00295326      -0.00000025
I        6.64831534       4.70106855       7.65308300      -0.00417544      -0.00295214      -0.00000048
I        5.53341240       1.54764684       5.72201473      -0.00208744       0.00295220       0.00361612
I        3.30360683       4.70106866       9.58415114       0.00208864      -0.00295271      -0.00361813
I        3.30360655       4.70106883       5.72201463       0.00208791      -0.00295290       0.00361710
I        5.53341266       1.54764671       9.58415140      -0.00208785       0.00295250      -0.00361594
