9
Lattice="6.837742435255045 8.86766193377367e-08 3.947772347542553 2.2792475634907015 6.446685393491957 3.947772345001235 2.6620253992257074e-08 1.571089887027741e-08 7.8955446489774594" Properties=species:S:1:pos:R:3:forces:R:3 energy=-21.755271911621094 free_energy=-21.755271911621094 stress="-1.3210741599323228e-05 9.020596714037765e-09 3.0783060545047647e-09 9.020596714037765e-09 -1.3212442354415543e-05 -4.419974164449059e-09 3.0783060545047647e-09 -4.419974164449059e-09 -1.3213527381594758e-05" pbc="T T T"
Ca       2.27924715       1.61167103       3.94777261      -0.00000121       0.00000029      -0.00000035
Ca       6.83774291       4.83501446      11.84331657       0.00000032      -0.00000090       0.00000177
Cd       0.00000004      -0.00000012      -0.00000054      -0.00000087       0.00000089       0.00000420
I        2.36816153       1.67454291       7.89554455      -0.00146751      -0.00103690       0.00000001
I        6.74882843       4.77214259       7.89554464       0.00146823       0.00103821       0.00000061
I        5.65366162       1.67454326       5.99866075       0.00073523      -0.00104012      -0.00127241
I        3.46332808       4.77214276       9.79242920      -0.00073300       0.00103635       0.00126797
I        3.46332866       4.77214218       5.99866031      -0.00073457       0.00103901      -0.00127196
I        5.65366170       1.67454291       9.79242926       0.00073338      -0.00103680       0.00127012
