9
Lattice="6.048921899627948 -4.276812898401451e-08 3.4923466310975875 2.016307210122628 5.70297825202992 3.4923467167149562 -6.810023411005168e-08 5.6705246246977294e-08 6.984693380148286" Properties=species:S:1:pos:R:3:forces:R:3 energy=-31.353717803955078 free_energy=-31.353717803955078 stress="-1.8402512068860233e-05 1.114400571822216e-09 -5.512876377622433e-09 1.114400571822216e-09 -1.8416163584333844e-05 9.74960556732185e-10 -5.512876377622433e-09 9.74960556732185e-10 -1.840779987105634e-05" pbc="T T T"
Ca       2.01630725       1.42574497       3.49234701       0.00000167      -0.00000061       0.00000089
Ca       6.04892199       4.27723366      10.47704002      -0.00000074       0.00000178       0.00000063
Co      -0.00000004       0.00000007       0.00000018      -0.00000017       0.00000028      -0.00000081
Br       2.00488391       1.41766677       6.98469311       0.00471605       0.00333455      -0.00000139
Br       6.06034526       4.28531169       6.98469336      -0.00471765      -0.00333671       0.00000069
Br       5.04647997       1.41766676       5.22862664      -0.00235730       0.00333667       0.00408604
Br       3.01874876       4.28531122       8.74075995       0.00235808      -0.00333627      -0.00408543
Br       3.01874914       4.28531128       5.22862674       0.00235868      -0.00333587       0.00408503
Br       5.04647993       1.41766666       8.74075989      -0.00235857       0.00333617      -0.00408556
