9
Lattice="5.892776333945103 -7.831647530716232e-09 3.402196103345599 1.9642587596309522 5.55576272725959 3.402196122341019 3.929627693537742e-08 5.105120953985161e-08 6.804392138628079" Properties=species:S:1:pos:R:3:forces:R:3 energy=-30.102014541625977 free_energy=-30.102014541625977 stress="7.84219810157083e-05 -2.0472223027923064e-08 -1.9823917507544309e-10 -2.0472223027923064e-08 7.84348085289821e-05 5.048675255636681e-09 -1.9823917507544309e-10 5.048675255636681e-09 7.843617640901357e-05" pbc="T T T"
Ca       1.96425878       1.38894052       3.40219618      -0.00000027       0.00000086      -0.00000011
Ca       5.89277633       4.16682171      10.20658807       0.00000017      -0.00000219      -0.00000039
Cd      -0.00000000      -0.00000032      -0.00000007       0.00000081       0.00000544      -0.00000205
Cl       2.03330223       1.43776201       6.80439196      -0.00771429      -0.00545429      -0.00000044
Cl       5.82373326       4.11800107       6.80439196       0.00770836       0.00545066       0.00000039
Cl       4.87612509       1.43776207       5.16308754       0.00385675      -0.00545385      -0.00668038
Cl       2.98090972       4.11800106       8.44569723      -0.00385467       0.00545290       0.00667852
Cl       2.98090986       4.11800112       5.16308755      -0.00385495       0.00545361      -0.00667652
Cl       4.87612525       1.43776183       8.44569703       0.00385816      -0.00545287       0.00668105
