9
Lattice="6.246990981617803 -6.619852805875339e-08 3.606701908151842 2.082330288805399 5.8897195712341786 3.6067018665617527 -7.724947769372372e-09 -5.639960771699099e-08 7.2134038296837" Properties=species:S:1:pos:R:3:forces:R:3 energy=-25.921894073486328 free_energy=-25.921894073486328 stress="-2.2549742425326258e-05 6.461202683993861e-09 5.270178515814905e-09 6.461202683993861e-09 -2.2554451788892038e-05 2.583045777271309e-09 5.270178515814905e-09 2.583045777271309e-09 -2.255607432744e-05" pbc="T T T"
Ca       2.08233016       1.47242969       3.60670250      -0.00000018      -0.00000010       0.00000222
Ca       6.24699108       4.41728983      10.82010512      -0.00000007       0.00000062      -0.00000210
Cd       0.00000030       0.00000018      -0.00000024      -0.00000452      -0.00000170       0.00000407
Br       2.17065039       1.53488140       7.21340394      -0.00202075      -0.00142936      -0.00000043
Br       6.15867044       4.35483752       7.21340399       0.00202753       0.00143361       0.00000037
Br       5.16166577       1.53488155       5.48654040       0.00101098      -0.00143252      -0.00175317
Br       3.16765553       4.35483804       8.94026727      -0.00101114       0.00142976       0.00175030
Br       3.16765538       4.35483799       5.48654010      -0.00101302       0.00143026      -0.00175246
Br       5.16166604       1.53488163       8.94026733       0.00101127      -0.00143061       0.00175116
