9
Lattice="4.708400128539713 5.3505251985662395e-08 2.718396086547548 1.5694667342783728 4.439122350379224 2.7183961310268043 -2.2218255669020287e-08 3.876502800539759e-08 5.436792211578222" Properties=species:S:1:pos:R:3:forces:R:3 energy=-44.6175537109375 free_energy=-44.6175537109375 stress="0.00024555265554226935 6.017067954999789e-10 -1.1661693832820674e-08 6.017067954999789e-10 0.0002455654612276703 -2.160382983618092e-08 -1.1661693832820674e-08 -2.160382983618092e-08 0.0002455460198689252" pbc="T T T"
Ca       1.56946706       1.10978061       2.71839606       0.00000017      -0.00000026       0.00000109
Ca       4.70840021       3.32934148       8.15518825       0.00000062      -0.00000033       0.00000037
Cu      -0.00000011       0.00000028      -0.00000009      -0.00000165       0.00000149      -0.00000075
F        1.59406171       1.12717222       5.43679208      -0.00271524      -0.00191899       0.00000044
F        4.68380486       3.31195016       5.43679220       0.00271526       0.00192103       0.00000002
F        3.91136902       1.12717226       4.09889467       0.00135858      -0.00192121      -0.00235376
F        2.36649752       3.31195048       6.77468992      -0.00135799       0.00191896       0.00235049
F        2.36649782       3.31195017       4.09889427      -0.00135642       0.00191972      -0.00235127
F        3.91136919       1.12717220       6.77469038       0.00135660      -0.00192053       0.00235359
