9
Lattice="6.155958935113722 2.4014439976755405e-08 3.5541446818566556 2.0519863695745175 5.803893721958587 3.5541446208383327 5.3365765415293985e-08 -3.69965062574931e-08 7.108289271281054" Properties=species:S:1:pos:R:3:forces:R:3 energy=-35.061248779296875 free_energy=-35.061248779296875 stress="-0.00010432724957354367 -8.904490478300886e-09 -1.3761072281681663e-08 -8.904490478300886e-09 -0.0001043531228788197 -1.2005719085550481e-08 -1.3761072281681663e-08 -1.2005719085550481e-08 -0.00010433425632072613" pbc="T T T"
Ca       2.05198608       1.45097360       3.55414527      -0.00000021       0.00000053       0.00000315
Ca       6.15595932       4.35291971      10.66243316       0.00000009      -0.00000191      -0.00000175
Cr      -0.00000023      -0.00000121       0.00000238      -0.00000144       0.00001785      -0.00002539
Br       2.01212139       1.42278483       7.10828892       0.00062144       0.00043918       0.00000045
Br       6.19582478       4.38110956       7.10828927      -0.00062934      -0.00044543       0.00000076
Br       5.14989836       1.42278461       5.29669254      -0.00031321       0.00044481       0.00054508
Br       3.05804706       4.38110907       8.91988568       0.00031161      -0.00044131      -0.00054038
Br       3.05804638       4.38110941       5.29669186       0.00031783      -0.00045051       0.00055170
Br       5.14989827       1.42278522       8.91988522      -0.00030676       0.00043668      -0.00053379
