9
Lattice="6.145375232529122 -8.16107098630127e-08 3.548034031097042 2.048458341417937 5.793915340593275 3.548034018075076 -1.1543332765052425e-08 -2.4110896988647876e-08 7.096068082187661" Properties=species:S:1:pos:R:3:forces:R:3 energy=-27.52130889892578 free_energy=-27.52130889892578 stress="0.00011092043132521212 -7.557450665274246e-09 5.106702616330949e-09 -7.557450665274246e-09 0.00011090771295130253 -9.403673395524947e-09 5.106702616330949e-09 -9.403673395524947e-09 0.00011090589396189898" pbc="T T T"
Ca       2.04845842       1.44847906       3.54803450      -0.00000083       0.00000140      -0.00000130
Ca       6.14537560       4.34543683      10.64410130       0.00000163       0.00000166      -0.00000031
C       -0.00000022       0.00000007      -0.00000024       0.00000048      -0.00000058       0.00000118
Br       2.06041164       1.45693110       7.09606816      -0.00108084      -0.00076425       0.00000034
Br       6.13342191       4.33698393       7.09606819       0.00108078       0.00076360       0.00000079
Br       5.11516926       1.45693086       5.33240301       0.00053921      -0.00076541      -0.00093526
Br       3.07866428       4.33698401       8.85973328      -0.00053978       0.00076392       0.00093463
Br       3.07866401       4.33698419       5.33240276      -0.00054088       0.00076316      -0.00093415
Br       5.11516935       1.45693093       8.85973347       0.00054020      -0.00076345       0.00093395
