9
Lattice="4.952208904295089 -2.911453492789775e-08 2.859159165722961 1.6507363548668685 4.668987180975109 2.8591590256266968 1.24140688472271e-07 -8.380144987260468e-08 5.718318116427932" Properties=species:S:1:pos:R:3:forces:R:3 energy=-41.41743469238281 free_energy=-41.41743469238281 stress="0.00014502684643957764 7.633558851694033e-08 2.118349051727364e-08 7.633558851694033e-08 0.0001449757837690413 -4.7063661412494184e-08 2.118349051727364e-08 -4.7063661412494184e-08 0.00014494497736450285" pbc="T T T"
Ca       1.65073659       1.16724734       2.85915944       0.00000061       0.00000133       0.00000070
Ca       4.95220907       3.50174005       8.57747748       0.00000107      -0.00000027       0.00000146
Cd      -0.00000001      -0.00000012       0.00000011      -0.00000209       0.00000303       0.00000161
F        1.73509022       1.22689375       5.71831811       0.00050738       0.00035824      -0.00000124
F        4.86785518       3.44209328       5.71831781      -0.00050789      -0.00035881      -0.00000088
F        4.08466426       1.22689371       4.36179076      -0.00025684       0.00036420       0.00044338
F        2.51828106       3.44209332       7.07484551       0.00025710      -0.00036553      -0.00044557
F        2.51828100       3.44209306       4.36179077       0.00025509      -0.00036384       0.00044239
F        4.08466430       1.22689369       7.07484532      -0.00025461       0.00036152      -0.00044146
