9
Lattice="4.667244184067506 6.232433544335526e-08 2.694634722655205 1.555748106009081 4.400320174465853 2.694634747088777 -1.3040848395638032e-08 2.0703620394268524e-08 5.38926946789777" Properties=species:S:1:pos:R:3:forces:R:3 energy=-47.877994537353516 free_energy=-47.877994537353516 stress="0.00010929659765679389 -9.364879360873601e-08 -4.582791035545597e-09 -9.364879360873601e-08 0.0001093744212994352 5.096915245417222e-08 -4.582791035545597e-09 5.096915245417222e-08 0.00010945395479211584" pbc="T T T"
Ca       1.55574858       1.10008014       2.69463470      -0.00000035       0.00000077      -0.00000092
Ca       4.66724387       3.30023983       8.08390375       0.00000019       0.00000034      -0.00000037
Co      -0.00000000       0.00000003       0.00000038       0.00000393       0.00000705      -0.00001334
F        1.55052331       1.09638533       5.38926946      -0.00179981      -0.00127180      -0.00000010
F        4.67246941       3.30393473       5.38926942       0.00179066       0.00126672       0.00000193
F        3.89198230       1.09638589       4.03742757       0.00090054      -0.00127302      -0.00156154
F        2.33100957       3.30393443       6.74111182      -0.00090037       0.00127491       0.00156376
F        2.33100959       3.30393498       4.03742736      -0.00089853       0.00127117      -0.00155547
F        3.89198239       1.09638563       6.74111125       0.00090390      -0.00127624       0.00156595
