9
Lattice="6.724481376983373 1.3306533806856236e-07 3.882380995084398 2.2414938630741843 6.339901730414273 3.8823810898428484 -7.244957093093425e-08 6.482531873175154e-08 7.764762115655178" Properties=species:S:1:pos:R:3:forces:R:3 energy=-30.43781089782715 free_energy=-30.43781089782715 stress="1.5992116459528916e-05 5.460010221725042e-10 -7.162384907388741e-09 5.460010221725042e-10 1.5988976883818395e-05 1.240509650557442e-08 -7.162384907388741e-09 1.240509650557442e-08 1.5966914361342788e-05" pbc="T T T"
Ca       2.24149467       1.58497574       3.88238026       0.00000157       0.00000118      -0.00000268
Ca       6.72448069       4.75492621      11.64714415      -0.00000213      -0.00000104       0.00000323
Cr       0.00000016      -0.00000008      -0.00000004      -0.00000178      -0.00000021       0.00000060
I        2.21623842       1.56711739       7.76476208       0.00319931       0.00226221       0.00000119
I        6.74973676       4.77278463       7.76476185      -0.00319940      -0.00226131      -0.00000092
I        5.61636215       1.56711758       5.80169978      -0.00159925       0.00226279       0.00276891
I        3.34961290       4.77278445       9.72782475       0.00160096      -0.00226359      -0.00277124
I        3.34961301       4.77278456       5.80169941       0.00160082      -0.00226200       0.00277156
I        5.61636193       1.56711723       9.72782453      -0.00160006       0.00226200      -0.00277082
