9
Lattice="6.620447557820308 4.6143251962498635e-08 3.8223170967534776 2.206816000809172 6.241817815123305 3.8223169154110095 -2.537459747418746e-08 -2.4004080281300003e-07 7.6446342374569465" Properties=species:S:1:pos:R:3:forces:R:3 energy=-28.066862106323242 free_energy=-28.066862106323242 stress="-0.00010178564116358757 3.387911062802118e-09 1.8557095415872027e-08 3.387911062802118e-09 -0.00010179500532103702 8.214440683218527e-09 1.8557095415872027e-08 8.214440683218527e-09 -0.00010180364915868267" pbc="T T T"
Ca       2.20681711       1.56045526       3.82231519       0.00000351       0.00000170      -0.00000367
Ca       6.62044801       4.68136351      11.46695483       0.00000140       0.00000077       0.00000910
Fe       0.00000026       0.00000037      -0.00000031      -0.00000414      -0.00000407       0.00000004
I        2.15597556       1.52450456       7.64463450       0.00007689       0.00005412       0.00000048
I        6.67128692       4.71731225       7.64463299      -0.00007251      -0.00005087      -0.00000162
I        5.54245971       1.52450557       5.68944655      -0.00003819       0.00005204       0.00006349
I        3.28480315       4.71731195       9.59982101       0.00003601      -0.00005355      -0.00006474
I        3.28480426       4.71731238       5.68944695       0.00003595      -0.00005140       0.00006245
I        5.54245919       1.52450467       9.59982132      -0.00003895       0.00005129      -0.00006549
