9
Lattice="5.987210261894739 1.0414300582339735e-06 3.4567175195194313 1.9957372271179719 5.644797842985951 3.45671840064233 -6.712228593068942e-07 6.045246327599e-07 6.913436201630924" Properties=species:S:1:pos:R:3:forces:R:3 energy=-33.00885009765625 free_energy=-33.00885009765625 stress="-0.00010201109398622066 4.929609431769677e-08 -1.7248945383130376e-08 4.929609431769677e-08 -0.00010146507702302188 5.612158737733353e-09 -1.7248945383130376e-08 5.612158737733353e-09 -0.00010173313057748601" pbc="T T T"
Ca       1.99574285       1.41120100       3.45671733       0.00000827       0.00000701       0.00000040
Ca       5.98720744       4.23359815      10.37015435       0.00000002      -0.00000915      -0.00000084
Fe      -0.00000094       0.00000104       0.00000131       0.00001172      -0.00001968      -0.00002986
Br       1.88554764       1.33329002       6.91343538       0.00173803       0.00120964       0.00000438
Br       6.09739823       4.31150950       6.91343597      -0.00174385      -0.00120562       0.00000245
Br       5.04443554       1.33328763       5.08965336      -0.00088053       0.00122179       0.00150056
Br       2.93850976       4.31151081       8.73721923       0.00087127      -0.00120725      -0.00148302
Br       2.93851137       4.31151020       5.08965352       0.00087565      -0.00121186       0.00149385
Br       5.04443505       1.33328893       8.73721820      -0.00088067       0.00121521      -0.00148791
