9
Lattice="4.761346938476115 1.3427615914604545e-07 2.748964983362617 1.5871157191340584 4.489041215424159 2.748965076237592 -3.0874612571537975e-08 9.191653755941316e-08 5.497930020201623" Properties=species:S:1:pos:R:3:forces:R:3 energy=-48.367942810058594 free_energy=-48.367942810058594 stress="0.00013834632409270853 9.028733671812006e-08 8.133452134018171e-09 9.028733671812006e-08 0.00013840204337611794 -2.481501759632465e-08 8.133452134018171e-09 -2.481501759632465e-08 0.00013830981333740056" pbc="T T T"
Ca       1.58711591       1.12226038       2.74896501       0.00000137       0.00000069       0.00000002
Ca       4.76134657       3.36678111       8.24689505      -0.00000097       0.00000036      -0.00000035
Fe       0.00000009       0.00000016       0.00000021      -0.00000300      -0.00000527       0.00000039
F        1.60789530       1.13695376       5.49792998      -0.00049539      -0.00035171      -0.00000050
F        4.74056742       3.35208763       5.49792999       0.00049967       0.00035334       0.00000054
F        3.95739957       1.13695341       4.14144281       0.00024586      -0.00034788      -0.00042571
F        2.39106317       3.35208789       6.85441728      -0.00024633       0.00034904       0.00042742
F        2.39106331       3.35208782       4.14144284      -0.00024729       0.00034987      -0.00042954
F        3.95739909       1.13695363       6.85441738       0.00024634      -0.00034858       0.00042783
