9
Lattice="5.029395405161802 -1.7947358333258283e-07 2.9037231391850047 1.6764651129368198 4.741759422847347 2.903722884413697 1.4311690183670638e-07 -2.1083093874118763e-07 5.807446030484408" Properties=species:S:1:pos:R:3:forces:R:3 energy=-44.202598571777344 free_energy=-44.202598571777344 stress="4.1563174590919516e-07 -8.024919395666075e-09 -8.376331628312528e-09 -8.024919395666075e-09 4.642515420982818e-07 -4.007821630125363e-09 -8.376331628312528e-09 -4.007821630125363e-09 4.669329314310744e-07" pbc="T T T"
Ca       1.67646679       1.18543946       2.90372187       0.00000812      -0.00000107      -0.00000383
Ca       5.02939542       3.55632024       8.71116762       0.00000118       0.00000418      -0.00000702
Ge       0.00000062      -0.00000066      -0.00000005      -0.00000523       0.00001109       0.00000204
F        1.70479392       1.20547055       5.80744556      -0.00028476      -0.00020421       0.00000116
F        5.00106650       3.53628892       5.80744637       0.00028342       0.00020503       0.00000361
F        4.17699815       1.20547073       4.38011839       0.00014298      -0.00020869      -0.00025025
F        2.52886204       3.53628826       7.23477546      -0.00014073       0.00019774       0.00024691
F        2.52886146       3.53628787       4.38011841      -0.00014479       0.00020196      -0.00024623
F        4.17699776       1.20547066       7.23477496       0.00014001      -0.00020558       0.00025368
