9
Lattice="6.2986778207295595 -9.24283614212288e-08 3.636543329213724 2.099559201065553 5.938450318540771 3.6365433038714947 2.999165693526028e-08 -9.83045546155945e-09 7.27308660648041" Properties=species:S:1:pos:R:3:forces:R:3 energy=-28.68256950378418 free_energy=-28.68256950378418 stress="0.00014814207679592073 1.235089630569064e-08 6.345358016801583e-09 1.235089630569064e-08 0.00014813653251621872 -3.6634277833513806e-09 6.345358016801583e-09 -3.6634277833513806e-09 0.00014811237633693963" pbc="T T T"
Ca       2.09955806       1.48461294       3.63654314      -0.00000204       0.00000023      -0.00000072
Ca       6.29867907       4.45383711      10.90963028       0.00000170      -0.00000092       0.00000055
Ge       0.00000023      -0.00000039      -0.00000003      -0.00000095       0.00000189       0.00000144
Br       2.14024373       1.51338081       7.27308647      -0.00270033      -0.00190774       0.00000093
Br       6.25799341       4.42506954       7.27308653       0.00269976       0.00190790       0.00000076
Br       5.22855614       1.51338110       5.49004903       0.00135269      -0.00190907      -0.00233807
Br       3.16968057       4.42506974       9.05612448      -0.00134930       0.00190619       0.00233538
Br       3.16968087       4.42506933       5.49004872      -0.00135163       0.00190858      -0.00233673
Br       5.22855612       1.51338068       9.05612429       0.00135002      -0.00190705       0.00233649
