9
Lattice="6.003551692951135 1.2439531075507718e-07 3.4661521984432504 2.0011839688040975 5.660202879205266 3.4661522783381047 4.071789792974595e-08 1.266427237765674e-07 6.932304326361019" Properties=species:S:1:pos:R:3:forces:R:3 energy=-32.700111389160156 free_energy=-32.700111389160156 stress="8.694997086422518e-05 1.1105126596078208e-08 -8.650180127744989e-09 1.1105126596078208e-08 8.696118311490864e-05 2.7123572277076846e-09 -8.650180127744989e-09 2.7123572277076846e-09 8.690746471984312e-05" pbc="T T T"
Ca       2.00118342       1.41504952       3.46615243      -0.00000085      -0.00000244       0.00000129
Ca       6.00355202       4.24515210      10.39845777      -0.00000015      -0.00000178       0.00000088
Ge       0.00000012       0.00000059      -0.00000050      -0.00000131      -0.00000352       0.00000481
Cl       2.00276761       1.41617058       6.93230436       0.00047445       0.00033608      -0.00000067
Cl       6.00196771       4.24403271       6.93230446      -0.00047243      -0.00033331      -0.00000183
Cl       5.00216803       1.41617104       5.20059918      -0.00023726       0.00033765       0.00041136
Cl       3.00256792       4.24403286       8.66400886       0.00023744      -0.00033532      -0.00041291
Cl       3.00256774       4.24403263       5.20059977       0.00023791      -0.00033475       0.00041127
Cl       5.00216828       1.41617052       8.66400891      -0.00023763       0.00033741      -0.00041398
