9
Lattice="6.833271230210406 8.60928932672889e-08 3.94519084784575 2.277757211327065 6.442469740635248 3.94519075531765 3.727932358587787e-08 -8.696284629254278e-08 7.890381631121848" Properties=species:S:1:pos:R:3:forces:R:3 energy=-24.776145935058594 free_energy=-24.776145935058594 stress="5.433646947494708e-05 -4.10213729651332e-09 1.1159777990599196e-08 -4.10213729651332e-09 5.433341357274912e-05 -6.342861791353016e-09 1.1159777990599196e-08 -6.342861791353016e-09 5.432760008261539e-05" pbc="T T T"
Ca       2.27775750       1.61061751       3.94519125       0.00000078       0.00000145       0.00000321
Ca       6.83327035       4.83185214      11.83557194      -0.00000294      -0.00000231      -0.00000302
Ge      -0.00000011       0.00000017      -0.00000016       0.00000013       0.00000042       0.00000064
I        2.36225221       1.67036437       7.89038160      -0.00541508      -0.00382918       0.00000061
I        6.74877638       4.77210532       7.89038194       0.00541586       0.00382929       0.00000043
I        5.65214499       1.67036467       5.99096107       0.00270719      -0.00382866      -0.00469044
I        3.45888366       4.77210524       9.78980210      -0.00270635       0.00382876       0.00468994
I        3.45888365       4.77210494       5.99096097      -0.00270763       0.00382905      -0.00469138
I        5.65214527       1.67036461       9.78980223       0.00270801      -0.00382880       0.00468996
