9
Lattice="5.056551185180907 -6.29435130294334e-08 2.9194011050382564 1.6855170206548742 4.7673620091677495 2.9194010733909472 -1.8997171159760574e-07 -1.7309016076282146e-07 5.838802539117156" Properties=species:S:1:pos:R:3:forces:R:3 energy=-37.878448486328125 free_energy=-37.878448486328125 stress="0.00010356387065257877 -2.131822185447163e-08 9.745392937077213e-09 -2.131822185447163e-08 0.00010354637925047427 1.512876934839369e-08 9.745392937077213e-09 1.512876934839369e-08 0.00010347417992306873" pbc="T T T"
Ca       1.68551667       1.19184004       2.91940088      -0.00000056      -0.00000204       0.00000033
Ca       5.05655188       3.57552120       8.75820310       0.00000583       0.00000030      -0.00000282
Hg       0.00000017       0.00000012      -0.00000090       0.00000554      -0.00000147       0.00001251
F        1.78684161       1.26348796       5.83880263       0.00000154       0.00000170       0.00000381
F        4.95522670       3.50387452       5.83880308      -0.00000917      -0.00000672       0.00000251
F        4.16313003       1.26348742       4.46685120       0.00000012       0.00000211       0.00000238
F        2.57893732       3.50387444       7.21075346       0.00000504      -0.00000675      -0.00000806
F        2.57893709       3.50387420       4.46685198      -0.00000246       0.00000326       0.00000122
F        4.16313052       1.26348718       7.21075338      -0.00000561       0.00000936      -0.00001178
