9
Lattice="6.026855048588976 2.191432240979679e-08 3.479606457594331 2.0089516940533696 5.682173372706406 3.479606473997961 3.8177217194087003e-08 4.7085626128785075e-08 6.959212849063759" Properties=species:S:1:pos:R:3:forces:R:3 energy=-27.338783264160156 free_energy=-27.338783264160156 stress="5.641165989800356e-05 -3.7259644258824665e-09 1.8059939654868629e-10 -3.7259644258824665e-09 5.6411332479910925e-05 -9.575914283743714e-09 1.8059939654868629e-10 -9.575914283743714e-09 5.641992902383208e-05" pbc="T T T"
Ca       2.00895128       1.42054361       3.47960644      -0.00000208       0.00000005       0.00000033
Ca       6.02685512       4.26162987      10.43881971       0.00000041       0.00000132       0.00000098
Hg       0.00000007      -0.00000002      -0.00000012      -0.00000038       0.00000226       0.00000197
Cl       2.10833138       1.49081557       6.95921291      -0.00026201      -0.00018594       0.00000116
Cl       5.92747570       4.19135791       6.95921268       0.00025875       0.00018288      -0.00000028
Cl       4.97268940       1.49081582       5.30547494       0.00013266      -0.00018478      -0.00022706
Cl       3.06311722       4.19135803       8.61295113      -0.00012797       0.00018251       0.00022344
Cl       3.06311734       4.19135774       5.30547470      -0.00013003       0.00018619      -0.00022579
Cl       4.97268956       1.49081526       8.61295078       0.00013075      -0.00018443       0.00022533
