9
Lattice="6.3572810893569445 -2.154240641967358e-08 3.6703779717380653 2.1190936276746077 5.993702081802415 3.670378055685915 -3.553758509210346e-08 7.76858578381066e-08 7.3407560050290765" Properties=species:S:1:pos:R:3:forces:R:3 energy=-23.669116973876953 free_energy=-23.669116973876953 stress="0.00012976375001017004 -3.6272758130451166e-09 1.2149215855572493e-08 -3.6272758130451166e-09 0.0001297826529480517 -2.3312254349150408e-09 1.2149215855572493e-08 -2.3312254349150408e-09 0.00012976974539924413" pbc="T T T"
Ca       2.11909390       1.49842534       3.67037848       0.00000058      -0.00000040      -0.00000018
Ca       6.35728119       4.49527714      11.01113349       0.00000011       0.00000120      -0.00000125
Hg      -0.00000029       0.00000015       0.00000039       0.00000122       0.00000109      -0.00000274
Br       2.23739435       1.58207675       7.34075600      -0.00462988      -0.00327390      -0.00000172
Br       6.23898032       4.41162556       7.34075644       0.00462780       0.00327262       0.00000021
Br       5.23858381       1.58207629       5.60801818       0.00231272      -0.00327136      -0.00400741
Br       3.23779110       4.41162490       9.07349348      -0.00231503       0.00327461       0.00400947
Br       3.23779073       4.41162550       5.60801844      -0.00231378       0.00327162      -0.00400706
Br       5.23858361       1.58207696       9.07349325       0.00231633      -0.00327545       0.00401066
