9
Lattice="6.870076507207871 1.783531662046964e-07 3.966440396128321 2.2900256207328717 6.477170221322818 3.9664404824237964 -3.08596160470333e-08 8.386892301088336e-08 7.932880845707022" Properties=species:S:1:pos:R:3:forces:R:3 energy=-19.946840286254883 free_energy=-19.946840286254883 stress="5.819868601975031e-05 6.931890617067893e-10 -3.287437211341171e-09 6.931890617067893e-10 5.8185323723591864e-05 1.4711386553400985e-09 -3.287437211341171e-09 1.4711386553400985e-09 5.8182758948532864e-05" pbc="T T T"
Ca       2.29002583       1.61929246       3.96644015      -0.00000113      -0.00000045       0.00000063
Ca       6.87007630       4.85787786      11.89932137       0.00000099       0.00000054      -0.00000000
Hg      -0.00000000      -0.00000003      -0.00000011      -0.00000074       0.00000000       0.00000039
I        2.40545699       1.70091511       7.93288083      -0.00687306      -0.00486037       0.00000074
I        6.75464501       4.77625566       7.93288093       0.00687455       0.00486173      -0.00000031
I        5.66734820       1.70091509       6.04962719       0.00343660      -0.00486071      -0.00595383
I        3.49275391       4.77625553       9.81613462      -0.00343623       0.00485901       0.00595359
I        3.49275392       4.77625534       6.04962722      -0.00343660       0.00486033      -0.00595405
I        5.66734822       1.70091496       9.81613471       0.00343565      -0.00486003       0.00595281
