9
Lattice="6.340933596477409 -2.163184219124835e-07 3.660940011328551 2.113644334606025 5.978289465190989 3.66094000025407 1.4918533211814574e-08 -3.014438352140691e-09 7.321879996817502" Properties=species:S:1:pos:R:3:forces:R:3 energy=-27.944093704223633 free_energy=-27.944093704223633 stress="0.0002105667081195861 4.735923209153725e-09 1.0796239457988577e-09 4.735923209153725e-09 0.00021056811965536326 9.74996305913578e-10 1.0796239457988577e-09 9.74996305913578e-10 0.00021056430705357343" pbc="T T T"
Ca       2.11364443       1.49457248       3.66094001       0.00000041       0.00000065       0.00000073
Ca       6.34093343       4.48371662      10.98281984      -0.00000160      -0.00000046      -0.00000180
In      -0.00000065       0.00000048       0.00000052       0.00000314      -0.00000596      -0.00000576
Br       2.17441369       1.53754268       7.32187987      -0.00745350      -0.00526963       0.00000015
Br       6.28016412       4.44074633       7.32188016       0.00745469       0.00527013       0.00000015
Br       5.25372658       1.53754292       5.54403794       0.00372589      -0.00526875      -0.00645313
Br       3.20085186       4.44074626       9.09972182      -0.00372911       0.00527379       0.00646003
Br       3.20085178       4.44074631       5.54403805      -0.00372718       0.00527143      -0.00645647
Br       5.25372653       1.53754288       9.09972187       0.00372721      -0.00527128       0.00645606
