9
Lattice="6.894496616845013 4.36900292375191e-08 3.9805394830018557 2.2981655525753757 6.500193924239703 3.980539530744636 -5.1574915684549436e-08 2.200380933493053e-08 7.961079055334019" Properties=species:S:1:pos:R:3:forces:R:3 energy=-23.5575008392334 free_energy=-23.5575008392334 stress="9.850096830632538e-05 2.742380011966361e-08 -8.116487038023479e-09 2.742380011966361e-08 9.84853832051158e-05 1.0831203489658492e-08 -8.116487038023479e-09 1.0831203489658492e-08 9.847161709330976e-05" pbc="T T T"
Ca       2.29816545       1.62504842       3.98053931      -0.00000098      -0.00000019       0.00000137
Ca       6.89449686       4.87514588      11.94161878       0.00000151       0.00000085      -0.00000157
In       0.00000016       0.00000010       0.00000001      -0.00000154      -0.00000207      -0.00000192
I        2.36391771       1.67154212       7.96107913      -0.00518681      -0.00366877      -0.00000005
I        6.82874405       4.82865164       7.96107908       0.00519000       0.00367038      -0.00000057
I        5.71253777       1.67154218       6.02775228       0.00259318      -0.00366775      -0.00449261
I        3.48012433       4.82865164       9.89440566      -0.00259591       0.00366915       0.00449380
I        3.48012434       4.82865174       6.02775233      -0.00259333       0.00366694      -0.00449160
I        5.71253778       1.67154223       9.89440568       0.00259389      -0.00366857       0.00449319
