9
Lattice="5.104158774179061 2.2399744012041034e-07 2.9468876882200106 1.7013863048431104 4.812248229270107 2.9468879729750657 -1.9313429929154227e-07 2.1218577175971942e-07 5.893775710958369" Properties=species:S:1:pos:R:3:forces:R:3 energy=-43.90773010253906 free_energy=-43.90773010253906 stress="0.0002340522187296301 4.704753475692769e-09 2.340476967788163e-08 4.704753475692769e-09 0.00023409303685184568 -1.1565822966019823e-08 2.340476967788163e-08 -1.1565822966019823e-08 0.00023411812435369939" pbc="T T T"
Ca       1.70138614       1.20306211       2.94688774      -0.00000123      -0.00000011      -0.00000052
Ca       5.10415861       3.60918602       8.84066376       0.00000083      -0.00000245       0.00000143
In       0.00000004      -0.00000011      -0.00000009      -0.00000591      -0.00000371       0.00000018
F        1.70829703       1.20794961       5.89377572       0.00673008       0.00475976       0.00000061
F        5.09724722       3.60429924       5.89377568      -0.00672501      -0.00475532      -0.00000102
F        4.25001005       1.20794942       4.42631664      -0.00336313       0.00475767       0.00582516
F        2.55553478       3.60429947       7.36123435       0.00336386      -0.00475723      -0.00582537
F        2.55553521       3.60429935       4.42631746       0.00336318      -0.00475484       0.00582379
F        4.25001019       1.20794935       7.36123412      -0.00336243       0.00475594      -0.00582442
