9
Lattice="6.025288159283268 -1.0238676108411192e-07 3.478701824452581 2.008429264989222 5.68069566762655 3.4787018675934425 -9.171650948317433e-09 4.635119774037693e-08 6.957403664790926" Properties=species:S:1:pos:R:3:forces:R:3 energy=-32.12850570678711 free_energy=-32.12850570678711 stress="5.783131200587377e-05 -1.4537030246231097e-08 1.038465224922902e-08 -1.4537030246231097e-08 5.781770232715644e-05 2.3293662110290825e-08 1.038465224922902e-08 2.3293662110290825e-08 5.785909161204472e-05" pbc="T T T"
Ca       2.00842929       1.42017367       3.47870165      -0.00000022      -0.00000062       0.00000036
Ca       6.02528816       4.26052182      10.43610520      -0.00000014       0.00000044      -0.00000135
In      -0.00000000      -0.00000036       0.00000011       0.00000086       0.00000900       0.00000153
Cl       2.04274339       1.44443747       6.95740378      -0.00000688      -0.00000510       0.00000069
Cl       5.99097397       4.23625828       6.95740377       0.00000200       0.00000155       0.00000130
Cl       5.00391648       1.44443738       5.24776987       0.00000477      -0.00000567      -0.00000654
Cl       3.02980076       4.23625844       8.66703776      -0.00000013       0.00000042       0.00000199
Cl       3.02980097       4.23625848       5.24776985      -0.00000236       0.00000277      -0.00000331
Cl       5.00391663       1.44443728       8.66703750       0.00000203      -0.00000280       0.00000523
