9
Lattice="5.779194474515924 -2.5875976943387784e-08 3.336619489247557 1.9263981477398802 5.448676764017608 3.3366194650611436 -4.323670337945823e-09 -3.267946741464327e-08 6.673238985983946" Properties=species:S:1:pos:R:3:forces:R:3 energy=-33.741607666015625 free_energy=-33.741607666015625 stress="-3.5351429687580094e-05 9.286812208131323e-09 1.3653971286942124e-08 9.286812208131323e-09 -3.5361099435249344e-05 5.867342611765025e-09 1.3653971286942124e-08 5.867342611765025e-09 -3.537678639986552e-05" pbc="T T T"
Ca       1.92639826       1.36216911       3.33661961       0.00000002      -0.00000002       0.00000004
Ca       5.77919444       4.08650746      10.00985843       0.00000027      -0.00000006       0.00000027
Mg       0.00000030      -0.00000000      -0.00000022      -0.00000699      -0.00000103       0.00000300
Cl       1.94243797       1.37351103       6.67323889      -0.00038674      -0.00027271      -0.00000020
Cl       5.76315403       4.07516522       6.67323876       0.00039377       0.00027840       0.00000048
Cl       4.80797546       1.37351141       5.01882024       0.00019483      -0.00027712      -0.00033891
Cl       2.89761729       4.07516572       8.32765767      -0.00019412       0.00027271       0.00033505
Cl       2.89761723       4.07516566       5.01882033      -0.00019540       0.00027450      -0.00033689
Cl       4.80797547       1.37351123       8.32765804       0.00019438      -0.00027460       0.00033709
