9
Lattice="5.79477697728136 7.192200764288013e-08 3.3456161519371417 1.9315923619500321 5.463368276591916 3.345616206703038 8.986569446632191e-10 6.770977741837506e-08 6.691232302317746" Properties=species:S:1:pos:R:3:forces:R:3 energy=-39.177459716796875 free_energy=-39.177459716796875 stress="-6.821889837738127e-05 1.7395346274540202e-09 3.9105345628343e-09 1.7395346274540202e-09 -6.821403076173738e-05 1.4892182598202908e-08 3.9105345628343e-09 1.4892182598202908e-08 -6.821939314249903e-05" pbc="T T T"
Ca       1.93159302       1.36584233       3.34561664       0.00000166      -0.00000074       0.00000028
Ca       5.79477637       4.09752632      10.03684890      -0.00000176       0.00000081       0.00000194
Mn      -0.00000032       0.00000084       0.00000132       0.00000436      -0.00001496      -0.00001780
Cl       1.90820698       1.34930604       6.69123217       0.00438654       0.00310042      -0.00000198
Cl       5.81816182       4.11406191       6.69123188      -0.00437982      -0.00309813      -0.00000154
Cl       4.84067392       1.34930574       4.99817142      -0.00219925       0.00310796       0.00380599
Cl       2.88569633       4.11406189       8.38429212       0.00218638      -0.00309205      -0.00378659
Cl       2.88569598       4.11406229       4.99817187       0.00219318      -0.00310175       0.00379605
Cl       4.84067320       1.34930634       8.38429232      -0.00219121       0.00309849      -0.00379646
