9
Lattice="6.15308942926831 -7.907025700960417e-08 3.552487935488223 2.051029726226156 5.801188449942587 3.5524879510451393 4.5129120348223495e-08 5.096436998460414e-08 7.104975792810525" Properties=species:S:1:pos:R:3:forces:R:3 energy=-28.80438995361328 free_energy=-28.80438995361328 stress="-4.406812513479963e-05 -6.207597547103205e-09 -1.0087822133186819e-08 -6.207597547103205e-09 -4.4065629481337965e-05 1.0050685617102317e-08 -1.0087822133186819e-08 1.0050685617102317e-08 -4.4052081648260355e-05" pbc="T T T"
Ca       2.05103019       1.45029716       3.55248789       0.00000111      -0.00000097      -0.00000053
Ca       6.15308926       4.35089126      10.65746408      -0.00000039      -0.00000043       0.00000099
Mg      -0.00000013      -0.00000016      -0.00000029       0.00000107       0.00000031       0.00000615
Br       2.08678428       1.47557931       7.10497580      -0.00145609      -0.00102950      -0.00000037
Br       6.11733498       4.32560915       7.10497560       0.00145520       0.00102814       0.00000059
Br       5.10969712       1.47557953       5.35969637       0.00072931      -0.00103113      -0.00126269
Br       3.09442193       4.32560912       8.85025537      -0.00072790       0.00102919       0.00126115
Br       3.09442219       4.32560901       5.35969636      -0.00072872       0.00103078      -0.00126378
Br       5.10969698       1.47557932       8.85025556       0.00072636      -0.00102642       0.00125857
