9
Lattice="4.634299030018762 1.8599963743278438e-08 2.6756138038347568 1.5447663927213389 4.369258976817728 2.675613748676679 1.369389012594437e-08 -5.787148224849481e-08 5.351227583950935" Properties=species:S:1:pos:R:3:forces:R:3 energy=-48.240867614746094 free_energy=-48.240867614746094 stress="8.216777496272698e-05 1.6649780221200672e-08 4.128032315975361e-08 1.6649780221200672e-08 8.217748836614192e-05 -1.115992560585255e-07 4.128032315975361e-08 -1.115992560585255e-07 8.222641190513968e-05" pbc="T T T"
Ca       1.54476623       1.09231462       2.67561400       0.00000079       0.00000055       0.00000141
Ca       4.63429867       3.27694459       8.02684170       0.00000082       0.00000000       0.00000031
Mg       0.00000036       0.00000048       0.00000059      -0.00000694      -0.00001117      -0.00001620
F        1.54901427       1.09531767       5.35122763      -0.00656448      -0.00464160      -0.00000066
F        4.63005122       3.27394074       5.35122758       0.00657251       0.00464669      -0.00000233
F        3.85979213       1.09531809       4.01709891       0.00328044      -0.00463634      -0.00568087
F        2.31927381       3.27394061       6.68535548      -0.00328804       0.00464704       0.00569351
F        2.31927332       3.27394062       4.01709917      -0.00328320       0.00464354      -0.00568872
F        3.85979171       1.09531837       6.68535552       0.00328836      -0.00464863       0.00569337
