9
Lattice="4.816412363045787 1.4905307452689382e-08 2.780756942020957 1.6054708217659341 4.540957234863983 2.78075690732597 1.4560037565878497e-09 -4.146291192766141e-08 5.561513881520041" Properties=species:S:1:pos:R:3:forces:R:3 energy=-50.493892669677734 free_energy=-50.493892669677734 stress="6.034357284079306e-05 1.359270296319437e-08 -3.6321934349103913e-10 1.359270296319437e-08 6.037875573383644e-05 8.224542824564196e-09 -3.6321934349103913e-10 8.224542824564196e-09 6.031333396094851e-05" pbc="T T T"
Ca       1.60547061       1.13523869       2.78075626       0.00000006      -0.00000038      -0.00000398
Ca       4.81641221       3.40571794       8.34227074      -0.00000006       0.00000000       0.00000135
Mn       0.00000015       0.00000040      -0.00000016       0.00000128      -0.00001302      -0.00000426
F        1.64658437       1.16431090       5.56151473      -0.00007124      -0.00005051       0.00000076
F        4.77529867       3.37664637       5.56151361       0.00007601       0.00005434      -0.00000053
F        3.99312067       1.16431062       4.20674054       0.00003291      -0.00004770      -0.00005703
F        2.42876292       3.37664636       6.91628718      -0.00003783       0.00005586       0.00006565
F        2.42876300       3.37664674       4.20674058      -0.00003652       0.00005086      -0.00006147
F        3.99312020       1.16431061       6.91628729       0.00003545      -0.00004931       0.00005959
