9
Lattice="6.780623192528903 8.833469017305164e-08 3.9147945434132048 2.2602078185082863 6.392832918434675 3.914794535822394 -8.284591610590863e-09 -1.515488439680217e-08 7.8295891011757375" Properties=species:S:1:pos:R:3:forces:R:3 energy=-23.950551986694336 free_energy=-23.950551986694336 stress="2.096629759762436e-05 5.081914888904748e-09 4.950011511795083e-09 5.081914888904748e-09 2.0966572265024297e-05 -1.3200115445144434e-09 4.950011511795083e-09 -1.3200115445144434e-09 2.0968300304957666e-05" pbc="T T T"
Ca       2.26020728       1.59820834       3.91479450      -0.00000131       0.00000072      -0.00000052
Ca       6.78062379       4.79462484      11.74438424       0.00000155       0.00000083       0.00000056
Mg      -0.00000028      -0.00000021       0.00000051       0.00000218       0.00000196      -0.00000317
I        2.31384861       1.63613818       7.82958909      -0.00357789      -0.00253012      -0.00000074
I        6.72698281       4.75669490       7.82958897       0.00357505       0.00252768      -0.00000034
I        5.62369910       1.63613777       5.91864575       0.00178695      -0.00252790      -0.00309546
I        3.41713187       4.75669482       9.74053198      -0.00178881       0.00252932       0.00309763
I        3.41713190       4.75669536       5.91864579      -0.00178713       0.00252763      -0.00309552
I        5.62369891       1.63613792       9.74053187       0.00178939      -0.00253015       0.00309765
