9
Lattice="6.933226918391779 2.693730058722263e-08 4.002900483564127 2.3110757388222725 6.536709045743712 4.002900355458757 7.19321654459772e-08 -1.0603264590602742e-07 8.00580084253808" Properties=species:S:1:pos:R:3:forces:R:3 energy=-30.34244728088379 free_energy=-30.34244728088379 stress="0.00013316201511770487 1.619452660861498e-08 3.4304867835288633e-09 1.619452660861498e-08 0.00013314936950337142 -5.4375917102333915e-09 3.4304867835288633e-09 -5.4375917102333915e-09 0.0001331492094323039" pbc="T T T"
Ca       2.31107527       1.63417851       4.00290127      -0.00000159       0.00000226       0.00000053
Ca       6.93322725       4.90253086      12.00870000      -0.00000002      -0.00000080      -0.00000182
Nb      -0.00000018      -0.00000018      -0.00000021       0.00000168       0.00000324       0.00000038
I        2.31945639       1.64010309       8.00580082      -0.00242352      -0.00171231      -0.00000037
I        6.92484686       4.89660587       8.00580108       0.00242059       0.00170970       0.00000091
I        5.77349899       1.64010304       6.01160819       0.00120939      -0.00170924      -0.00209557
I        3.47080367       4.89660600       9.99999382      -0.00120787       0.00170781       0.00209387
I        3.47080360       4.89660574       6.01160806      -0.00121067       0.00170971      -0.00209494
I        5.77349909       1.64010295       9.99999371       0.00121193      -0.00171030       0.00209710
