9
Lattice="6.594551757954161 -5.4493705698204626e-08 3.807366324654644 2.1981838707295545 6.2174030296950855 3.807366319824475 -7.766169121873113e-08 -6.08307675917509e-08 7.614732783823304" Properties=species:S:1:pos:R:3:forces:R:3 energy=-26.02096176147461 free_energy=-26.02096176147461 stress="-6.628030678257346e-05 -1.0146941065158899e-09 1.3973656676213864e-09 -1.0146941065158899e-09 -6.628095434280112e-05 -1.426392670644816e-09 1.3973656676213864e-09 -1.426392670644816e-09 -6.628913979511708e-05" pbc="T T T"
Ca       2.19818400       1.55435085       3.80736653      -0.00000047       0.00000006       0.00000045
Ca       6.59455153       4.66305199      11.42209849       0.00000070      -0.00000003      -0.00000247
Ni       0.00000002       0.00000000       0.00000004       0.00000012       0.00000052      -0.00000020
I        2.19944854       1.55524491       7.61473250       0.00478251       0.00338204      -0.00000111
I        6.59328717       4.66215790       7.61473289      -0.00478293      -0.00338222       0.00000143
I        5.49482730       1.55524508       5.71214466      -0.00239155       0.00338146       0.00414237
I        3.29790814       4.66215790       9.51732068       0.00239178      -0.00338215      -0.00414188
I        3.29790818       4.66215788       5.71214495       0.00239082      -0.00338221       0.00414282
I        5.49482734       1.55524512       9.51732095      -0.00239090       0.00338259      -0.00414135
