9
Lattice="4.683492955628917 -5.047468306909592e-08 2.7040159233816787 1.5611642810445434 4.415639562792934 2.704015905906011 -1.9528544933377626e-09 -2.2784082590908184e-08 5.408031850145791" Properties=species:S:1:pos:R:3:forces:R:3 energy=-45.47184753417969 free_energy=-45.47184753417969 stress="0.0001642444694880396 -1.5132341601997723e-08 -1.0880963907666796e-09 -1.5132341601997723e-08 0.00016422294720541686 -2.0518047261219863e-09 -1.0880963907666796e-09 -2.0518047261219863e-09 0.00016427930677309632" pbc="T T T"
Ca       1.56116405       1.10390988       2.70401593       0.00000020      -0.00000043      -0.00000000
Ca       4.68349281       3.31172978       8.11204759      -0.00000144       0.00000103      -0.00000145
Ni       0.00000014      -0.00000007      -0.00000017      -0.00000742       0.00000286      -0.00000181
F        1.56958814       1.10986625       5.40803163      -0.00171355      -0.00121195       0.00000131
F        4.67506872       3.30577301       5.40803192       0.00171874       0.00121395       0.00000138
F        3.89869889       1.10986649       4.06331935       0.00085954      -0.00121540      -0.00148659
F        2.34595855       3.30577325       6.75274468      -0.00085686       0.00120993       0.00148553
F        2.34595857       3.30577299       4.06331930      -0.00085732       0.00121365      -0.00148540
F        3.89869904       1.10986635       6.75274466       0.00085818      -0.00121366       0.00148674
