9
Lattice="6.395192710557477 1.347854371837917e-07 3.692266165166844 2.1317310433063095 6.029445459048751 3.6922661431521164 5.502699386558758e-08 1.1947511082913749e-08 7.384532235024208" Properties=species:S:1:pos:R:3:forces:R:3 energy=-34.38243103027344 free_energy=-34.38243103027344 stress="5.5024032917572185e-05 6.2389493571402e-09 -5.256513890827819e-09 6.2389493571402e-09 5.504270302481018e-05 -6.790193740613404e-09 -5.256513890827819e-09 -6.790193740613404e-09 5.504024011315778e-05" pbc="T T T"
Ca       2.13173087       1.50736092       3.69226568      -0.00000102       0.00000074      -0.00000108
Ca       6.39519291       4.52208427      11.07679796       0.00000181      -0.00000136      -0.00000061
Nb       0.00000017       0.00000040      -0.00000014      -0.00000039      -0.00000588      -0.00000143
Br       2.14478903       1.51659496       7.38453242      -0.00004539      -0.00003186       0.00000013
Br       6.38213468       4.51285074       7.38453261       0.00004783       0.00003454      -0.00000057
Br       5.32279851       1.51659438       5.54970779       0.00002122      -0.00003070      -0.00003695
Br       3.20412544       4.51285098       9.21935695      -0.00002389       0.00003403       0.00004110
Br       3.20412517       4.51285100       5.54970800      -0.00002310       0.00003284      -0.00004008
Br       5.32279845       1.51659480       9.21935690       0.00002287      -0.00003231       0.00003973
