9
Lattice="5.0598492940651045 -1.1366437631805548e-07 2.9213053802116398 1.6866164213522643 4.770471607491865 2.92130521192374 3.2467142172476794e-08 -1.831519839398191e-07 5.842610704188483" Properties=species:S:1:pos:R:3:forces:R:3 energy=-50.3519287109375 free_energy=-50.3519287109375 stress="8.9442495664116e-05 1.1987842718497177e-08 1.9780003412961378e-08 1.1987842718497177e-08 8.940278348745778e-05 -1.4664816916365453e-08 1.9780003412961378e-08 -1.4664816916365453e-08 8.938943210523576e-05" pbc="T T T"
Ca       1.68661644       1.19261804       2.92130530      -0.00000079       0.00000018       0.00000215
Ca       5.05984896       3.57785304       8.76391626      -0.00000108      -0.00000201       0.00000072
Nb      -0.00000016      -0.00000015       0.00000011       0.00000243       0.00000273       0.00000005
F        1.70802564       1.20775685       5.84261075       0.00175589       0.00124258      -0.00000044
F        5.03844000       3.56271422       5.84261067      -0.00175864      -0.00124550       0.00000084
F        4.20583651       1.20775714       4.40049852      -0.00087997       0.00124532       0.00152242
F        2.54062908       3.56271498       7.28472237       0.00088131      -0.00124425      -0.00152457
F        2.54062993       3.56271433       4.40049875       0.00087911      -0.00124305       0.00152069
F        4.20583688       1.20775683       7.28472250      -0.00087798       0.00124413      -0.00152206
