9
Lattice="5.711337787624333 1.8240940881261498e-07 3.2974424575603143 1.9037794398260823 5.384700698905675 3.2974424483675824 7.848185410664384e-08 4.4236310994225435e-08 6.594884779186149" Properties=species:S:1:pos:R:3:forces:R:3 energy=-34.23645782470703 free_energy=-34.23645782470703 stress="-0.00036085283500142395 3.786327695820546e-09 2.282466882164158e-09 3.786327695820546e-09 -0.0003608844708651304 4.296926814362223e-09 2.282466882164158e-09 4.296926814362223e-09 -0.00036085073952563107" pbc="T T T"
Ca       1.90377919       1.34617531       3.29744234      -0.00000118      -0.00000065      -0.00000065
Ca       5.71133821       4.03852601       9.89232826       0.00000051       0.00000161       0.00000347
Ni      -0.00000037      -0.00000017       0.00000080       0.00000594       0.00000072      -0.00000886
Cl       1.89434236       1.33950193       6.59488499      -0.00068274      -0.00048184      -0.00000017
Cl       5.72077533       4.04519918       6.59488433       0.00067760       0.00047754      -0.00000000
Cl       4.76416691       1.33950176       4.93799057       0.00033923      -0.00047709      -0.00058657
Cl       2.85095033       4.04519894       8.25177851      -0.00034145       0.00048172       0.00059117
Cl       2.85095039       4.04519907       4.93799046      -0.00033955       0.00047845      -0.00058842
Cl       4.76416688       1.33950177       8.25177854       0.00034173      -0.00048035       0.00059004
