9
Lattice="6.05091418553248 4.340621095406872e-08 3.493496616913552 2.016971627380313 5.704856300411487 3.4934962856085154 9.654090636867244e-07 2.76883171902217e-07 6.986991561689521" Properties=species:S:1:pos:R:3:forces:R:3 energy=-38.433712005615234 free_energy=-38.433712005615234 stress="9.11870738491416e-05 6.905849403437969e-08 6.652448369948161e-09 6.905849403437969e-08 9.113329724641517e-05 1.9141978668812953e-08 6.652448369948161e-09 1.9141978668812953e-08 9.111330291489139e-05" pbc="T T T"
Ca       2.01696992       1.42621526       3.49349432      -0.00000453       0.00000287      -0.00000577
Ca       6.05091541       4.27864182      10.48048983      -0.00000064      -0.00000118       0.00000377
Nb       0.00000063      -0.00000010       0.00000029      -0.00000459       0.00000017      -0.00000253
Cl       2.03158455       1.43654674       6.98699243      -0.00114310      -0.00080496       0.00000075
Cl       6.03630270       4.26830954       6.98699220       0.00114685       0.00080681       0.00000004
Cl       5.03512294       1.43654577       5.25289880       0.00057065      -0.00080273      -0.00098354
Cl       3.03276359       4.26831026       8.72108606      -0.00056842       0.00080219       0.00098193
Cl       3.03276435       4.26831144       5.25289744      -0.00056496       0.00080055      -0.00097835
Cl       5.03512281       1.43654592       8.72108619       0.00056899      -0.00080350       0.00098354
