9
Lattice="5.837563857830835 2.6846325963525936e-08 3.3703190819582707 1.9458546854493608 5.503707960577528 3.3703190111842027 4.169868128905337e-08 -5.7194779809116645e-08 6.740638091692352" Properties=species:S:1:pos:R:3:forces:R:3 energy=-33.36519241333008 free_energy=-33.36519241333008 stress="1.6049040141297155e-06 -1.2691649953211481e-09 -3.7209906267321458e-09 -1.2691649953211481e-09 1.58814953010733e-06 7.376177002527129e-09 -3.7209906267321458e-09 7.376177002527129e-09 1.592157445884368e-06" pbc="T T T"
Ca       1.94585499       1.37592693       3.37031915       0.00000181      -0.00000099      -0.00000022
Ca       5.83756415       4.12778067      10.11095694      -0.00000009      -0.00000053       0.00000060
Pd       0.00000016      -0.00000050      -0.00000027      -0.00000249       0.00001269       0.00000473
Cl       1.94115103       1.37260102       6.74063825      -0.00662909      -0.00468566      -0.00000020
Cl       5.84226777       4.13110711       6.74063790       0.00662153       0.00468162       0.00000025
Cl       4.86698823       1.37260118       5.05140518       0.00331542      -0.00468785      -0.00574281
Cl       2.91642996       4.13110728       8.42987156      -0.00330991       0.00468210       0.00573400
Cl       2.91642979       4.13110728       5.05140487      -0.00331125       0.00468275      -0.00573525
Cl       4.86698827       1.37260075       8.42987118       0.00331403      -0.00468411       0.00573894
