9
Lattice="4.901123958056036 2.2678018219529442e-08 2.8296651840346447 1.6337079897996798 4.6208240839357515 2.8296652145188355 4.3267212123109166e-08 6.792988661733839e-08 5.659330293128256" Properties=species:S:1:pos:R:3:forces:R:3 energy=-43.578392028808594 free_energy=-43.578392028808594 stress="0.0002820031368173659 1.4683459781394959e-08 -1.1108528319425659e-08 1.4683459781394959e-08 0.0002820124791469425 2.916862085200478e-09 -1.1108528319425659e-08 2.916862085200478e-09 0.0002820099180098623" pbc="T T T"
Ca       1.63370804       1.15520585       2.82966533      -0.00000015       0.00000015       0.00000010
Ca       4.90112397       3.46561813       8.48899565      -0.00000037      -0.00000080      -0.00000008
Pd       0.00000018      -0.00000001      -0.00000009      -0.00000604      -0.00000411       0.00000093
F        1.69570159       1.19904233       5.65933030      -0.00045177      -0.00032057      -0.00000007
F        4.83913011       3.42178172       5.65933047       0.00046011       0.00032526       0.00000033
F        4.05327304       1.19904240       4.29818590       0.00022772      -0.00032352      -0.00039407
F        2.48155906       3.42178212       7.02047449      -0.00022837       0.00032319       0.00039476
F        2.48155900       3.42178171       4.29818589      -0.00022838       0.00032250      -0.00039556
F        4.05327300       1.19904227       7.02047498       0.00022742      -0.00032214       0.00039360
