9
Lattice="6.1353850767795155 1.230177561416362e-08 3.5422661746173105 2.045128397912631 5.784496506235158 3.5422661271801186 3.495655228383264e-08 -3.338046274871194e-08 7.0845322886881155" Properties=species:S:1:pos:R:3:forces:R:3 energy=-29.882699966430664 free_energy=-29.882699966430664 stress="-0.00011160416033817455 -1.096634227870652e-09 1.5749113124741143e-09 -1.096634227870652e-09 -0.00011157738481415436 -6.188743295609811e-09 1.5749113124741143e-09 -6.188743295609811e-09 -0.00011158852430526167" pbc="T T T"
Ca       2.04512814       1.44612439       3.54226627       0.00000145       0.00000118       0.00000118
Ca       6.13538529       4.33837201      10.62679846      -0.00000076      -0.00000018       0.00000047
Pd      -0.00000057      -0.00000005      -0.00000033       0.00000666       0.00000041       0.00000321
Br       2.04701766       1.44746003       7.08453231      -0.00247497      -0.00175006      -0.00000036
Br       6.13349634       4.33703683       7.08453239       0.00246940       0.00174590      -0.00000020
Br       5.11187653       1.44745977       5.31503487       0.00123624      -0.00174795      -0.00213990
Br       3.06863697       4.33703672       8.85402964      -0.00123580       0.00174828       0.00213946
Br       3.06863702       4.33703633       5.31503502      -0.00123776       0.00174978      -0.00214315
Br       5.11187666       1.44745992       8.85402973       0.00123549      -0.00174740       0.00213934
