9
Lattice="4.997722455093004 -1.681158744294555e-07 2.8854365031528593 1.6659074671248706 4.711897869712185 2.8854362596352336 1.3732464142781023e-07 -2.0114385418349957e-07 5.770872768452414" Properties=species:S:1:pos:R:3:forces:R:3 energy=-43.13920974731445 free_energy=-43.13920974731445 stress="0.00012848876940552145 -1.7584643074997075e-08 1.3598918258139747e-07 -1.7584643074997075e-08 0.00012850404891651124 -9.461620464890075e-08 1.3598918258139747e-07 -9.461620464890075e-08 0.0001285070029553026" pbc="T T T"
Ca       1.66590742       1.17797442       2.88543753       0.00000166      -0.00000024       0.00000478
Ca       4.99772239       3.53392332       8.65630886      -0.00000226       0.00000081      -0.00000020
Pt       0.00000002      -0.00000002      -0.00000009      -0.00000434      -0.00001072       0.00000407
F        1.67179551       1.18213699       5.77087243       0.00057483       0.00040483      -0.00000119
F        4.99183484       3.52976014       5.77087288      -0.00056767      -0.00039917      -0.00000059
F        4.16182470       1.18213725       4.33325295      -0.00028765       0.00040531       0.00049657
F        2.50180528       3.52976080       7.20849218       0.00028816      -0.00040436      -0.00049740
F        2.50180546       3.52975867       4.33325395       0.00027871      -0.00039726       0.00048399
F        4.16182495       1.18213828       7.20849128      -0.00028124       0.00040036      -0.00048983
