9
Lattice="6.469047733788503 -5.3435198056482915e-08 3.734906428205537 2.1563491956271674 6.0990766276372 3.7349064257630293 5.8850042612268595e-08 3.86217712901762e-08 7.469812754479757" Properties=species:S:1:pos:R:3:forces:R:3 energy=-27.681394577026367 free_energy=-27.681394577026367 stress="0.00012905003677587956 -8.76568595487015e-09 1.7680579222911774e-09 -8.76568595487015e-09 0.00012905863695777953 -9.531387235028888e-09 1.7680579222911774e-09 -9.531387235028888e-09 0.00012905176845379174" pbc="T T T"
Ca       2.15634930       1.52476884       3.73490620      -0.00000010      -0.00000163       0.00000038
Ca       6.46904773       4.57430771      11.20471934      -0.00000012       0.00000103       0.00000014
Pb      -0.00000034      -0.00000015       0.00000008       0.00000433      -0.00000121      -0.00000096
Br       2.29484558       1.62270071       7.46981291      -0.00181186      -0.00128219       0.00000055
Br       6.33055174       4.47637601       7.46981279       0.00180996       0.00127972      -0.00000067
Br       5.32162492       1.62270051       5.72230065       0.00090534      -0.00128039      -0.00156721
Br       3.30377196       4.47637585       9.21732470      -0.00090731       0.00128314       0.00156971
Br       3.30377204       4.47637612       5.72230097      -0.00090528       0.00128195      -0.00156930
Br       5.32162503       1.62270085       9.21732478       0.00090502      -0.00128040       0.00156724
