9
Lattice="6.191843062286772 2.8565711970266973e-08 3.574862240820718 2.063947703636898 5.837725466844063 3.574862259395308 1.0304255575133964e-08 3.0035303814187026e-08 7.14972446379393" Properties=species:S:1:pos:R:3:forces:R:3 energy=-30.444618225097656 free_energy=-30.444618225097656 stress="-6.668693094979972e-05 -8.321211775186299e-12 8.305431897781546e-09 -8.321211775186299e-12 -6.667450361419469e-05 -1.0780321524350711e-08 8.305431897781546e-09 -1.0780321524350711e-08 -6.668789137620479e-05" pbc="T T T"
Ca       2.06394757       1.45943124       3.57486261       0.00000015       0.00000046       0.00000092
Ca       6.19184302       4.37829401      10.72458717      -0.00000059      -0.00000155       0.00000206
Pt      -0.00000090       0.00000010      -0.00000291       0.00001870      -0.00000317       0.00005803
Br       2.03873859       1.44160616       7.14972441       0.00315467       0.00223120      -0.00000183
Br       6.21705237       4.39611969       7.14972426      -0.00316241      -0.00223549      -0.00000310
Br       5.17247357       1.44160626       5.34046193      -0.00157475       0.00222658       0.00272620
Br       3.08331697       4.39612019       8.95898784       0.00158435      -0.00224215      -0.00274809
Br       3.08331765       4.39611908       5.34046231       0.00156929      -0.00222005       0.00271906
Br       5.17247431       1.44160542       8.95898821      -0.00158945       0.00224432      -0.00275324
