9
Lattice="7.022318538850204 -1.6240569902891167e-07 4.054337593120365 2.340772715243261 6.62070540088559 4.054337554881145 6.012702222553685e-08 -4.317102697724213e-09 8.1086750820978" Properties=species:S:1:pos:R:3:forces:R:3 energy=-23.797340393066406 free_energy=-23.797340393066406 stress="0.0001281315489904955 -1.568212226743526e-08 -1.110618708111133e-09 -1.568212226743526e-08 0.00012816081289201975 1.95473437436533e-09 -1.110618708111133e-09 1.95473437436533e-09 0.00012816849630326033" pbc="T T T"
Ca       2.34077318       1.65517605       4.05433770       0.00000191      -0.00000201       0.00000034
Ca       7.02231835       4.96552907      12.16301312      -0.00000178       0.00000087       0.00000044
Pb      -0.00000024       0.00000004       0.00000044       0.00000393       0.00000011      -0.00000219
I        2.50409005       1.77065895       8.10867498      -0.00595279      -0.00420809      -0.00000028
I        6.85900126       4.85004644       8.10867500       0.00595089       0.00420698      -0.00000029
I        5.77027328       1.77065902       6.22294298       0.00297620      -0.00420708      -0.00515357
I        3.59281814       4.85004617       9.99440677      -0.00297809       0.00420973       0.00515590
I        3.59281813       4.85004645       6.22294310      -0.00297555       0.00420816      -0.00515527
I        5.77027310       1.77065877       9.99440683       0.00297531      -0.00420870       0.00515494
