9
Lattice="6.6558015784790285 -1.3238478186292374e-07 3.8427288981448995 2.2186004200322604 6.275149919774334 3.842728865779523 -1.344507644715137e-08 -4.914643770428854e-08 7.685457819577384" Properties=species:S:1:pos:R:3:forces:R:3 energy=-26.01511001586914 free_energy=-26.01511001586914 stress="-2.1956062482786365e-05 -1.7758985393356852e-09 2.659777509350647e-09 -1.7758985393356852e-09 -2.196979767177254e-05 -4.6482933058200615e-09 2.659777509350647e-09 -4.6482933058200615e-09 -2.195950219174847e-05" pbc="T T T"
Ca       2.21860032       1.56878762       3.84272947       0.00000031       0.00000069      -0.00000026
Ca       6.65580155       4.70636255      11.52818674      -0.00000030       0.00000082       0.00000020
Pd      -0.00000001       0.00000048      -0.00000019      -0.00000184      -0.00000484       0.00000104
I        2.23039923       1.57713018       7.68545761       0.00034243       0.00024237      -0.00000039
I        6.64400267       4.69801923       7.68545781      -0.00033831      -0.00023958       0.00000051
I        5.54060186       1.57713005       5.77431131      -0.00017008       0.00024015       0.00029579
I        3.33380012       4.69801947       9.59660397       0.00016999      -0.00024081      -0.00029457
I        3.33380025       4.69801917       5.77431139       0.00016869      -0.00023987       0.00029314
I        5.54060196       1.57713019       9.59660423      -0.00017091       0.00024112      -0.00029548
