9
Lattice="6.682460227147097 1.2264747761636711e-08 3.858120237542382 2.2274868558387757 6.300283920262655 3.858120061058463 7.388689371946903e-08 -1.639018732305828e-07 7.7162403471088705" Properties=species:S:1:pos:R:3:forces:R:3 energy=-26.670202255249023 free_energy=-26.670202255249023 stress="-1.5850520867388695e-05 -8.938428663896048e-09 1.2288554618322678e-09 -8.938428663896048e-09 -1.5841564163565636e-05 2.425199763234076e-10 1.2288554618322678e-09 2.425199763234076e-10 -1.5850439012865536e-05" pbc="T T T"
Ca       2.22748747       1.57507127       3.85811942       0.00000102       0.00000216      -0.00000148
Ca       6.68245989       4.72521203      11.57436061      -0.00000070      -0.00000304       0.00000062
Pt      -0.00000009       0.00000011      -0.00000007      -0.00000091       0.00000019       0.00000037
I        2.22454524       1.57299079       7.71624046      -0.00563338      -0.00398347       0.00000030
I        6.68540185       4.72729312       7.71624062       0.00563338       0.00398383      -0.00000111
I        5.57018757       1.57299110       5.78463292       0.00281654      -0.00398171      -0.00487931
I        3.33975965       4.72729260       9.64784780      -0.00281701       0.00398274       0.00487898
I        3.33975939       4.72729292       5.78463281      -0.00281591       0.00398293      -0.00487830
I        5.57018768       1.57299114       9.64784801       0.00281706      -0.00398362       0.00488000
