9
Lattice="5.158000861244735 -2.469329875097777e-07 2.9779731247748136 1.719333415103054 4.863009934877072 2.9779730771455233 -1.0356327027182482e-07 -1.3156412181685718e-07 5.955946428926549" Properties=species:S:1:pos:R:3:forces:R:3 energy=-42.924224853515625 free_energy=-42.924224853515625 stress="0.00039473696961067617 -9.694083047406821e-08 1.7632909576903444e-09 -9.694083047406821e-08 0.0003948430239688605 -2.7972015814725637e-08 1.7632909576903444e-09 -2.7972015814725637e-08 0.0003949762904085219" pbc="T T T"
Ca       1.71933376       1.21575242       2.97797307       0.00000070      -0.00000069      -0.00000033
Ca       5.15800004       3.64725695       8.93391983      -0.00000371       0.00000006       0.00000213
Pb      -0.00000003      -0.00000004      -0.00000017      -0.00000358       0.00000102       0.00000099
F        1.81146608       1.28089954       5.95594623      -0.00335307      -0.00237085       0.00000046
F        5.06586815       3.58210938       5.95594620       0.00335455       0.00237164      -0.00000034
F        4.25226748       1.28090058       4.54674926       0.00168222      -0.00237732      -0.00291446
F        2.62506688       3.58210997       7.36514380      -0.00167906       0.00237656       0.00291032
F        2.62506731       3.58210943       4.54674911      -0.00167967       0.00237902      -0.00291309
F        4.25226697       1.28089981       7.36514313       0.00168152      -0.00237945       0.00291425
