9
Lattice="6.146428391150749 1.0833842316572213e-07 3.5486420611895544 2.0488095232999854 5.794908193604003 3.548642134904548 -7.970998315693049e-08 3.391859830410304e-08 7.09728426044083" Properties=species:S:1:pos:R:3:forces:R:3 energy=-31.711734771728516 free_energy=-31.711734771728516 stress="8.079942926997319e-05 1.294702123288971e-08 4.029349298662055e-09 1.294702123288971e-08 8.080932457232848e-05 -5.158586446896152e-09 4.029349298662055e-09 -5.158586446896152e-09 8.07718388387002e-05" pbc="T T T"
Ca       2.04880954       1.44872665       3.54864184       0.00000041      -0.00000106       0.00000001
Ca       6.14642869       4.34618143      10.64592632       0.00000045       0.00000087      -0.00000051
Pb       0.00000012       0.00000003      -0.00000040      -0.00000251       0.00000061       0.00000468
Cl       2.16906872       1.53376354       7.09728420       0.00028630       0.00020207       0.00000007
Cl       6.02616890       4.26114494       7.09728432      -0.00028512      -0.00020118       0.00000010
Cl       5.06189396       1.53376339       5.42711058      -0.00014224       0.00020103       0.00024719
Cl       3.13334370       4.26114520       8.76745799       0.00014410      -0.00020395      -0.00024977
Cl       3.13334379       4.26114507       5.42711093       0.00014239      -0.00020119       0.00024718
Cl       5.06189398       1.53376304       8.76745801      -0.00014379       0.00020274      -0.00024905
