9
Lattice="5.977931767839032 5.8550868646261876e-08 3.451360366685322 1.992643990589053 5.63604803574353 3.4513603445605336 3.008544975852365e-08 -5.8235996682492474e-09 6.902720681261126" Properties=species:S:1:pos:R:3:forces:R:3 energy=-33.568729400634766 free_energy=-33.568729400634766 stress="0.00027718680212274194 5.449238393850919e-09 1.9558369146466248e-08 5.449238393850919e-09 0.0002771712897811085 -3.3677129973597175e-09 1.9558369146466248e-08 -3.3677129973597175e-09 0.0002771876461338252" pbc="T T T"
Ca       1.99264419       1.40901151       3.45136027       0.00000087      -0.00000181       0.00000019
Ca       5.97793195       4.22703624      10.35408121      -0.00000059       0.00000092       0.00000073
Pt      -0.00000003      -0.00000014       0.00000022      -0.00000124       0.00000657       0.00000266
Cl       1.95574127       1.38291781       6.90272078      -0.00390655      -0.00276203      -0.00000068
Cl       6.01483440       4.25313043       6.90272048       0.00390503       0.00276031       0.00000020
Cl       5.00006106       1.38291799       5.14508207       0.00195280      -0.00276284      -0.00338417
Cl       2.97051460       4.25313017       8.66035924      -0.00195174       0.00276093       0.00337988
Cl       2.97051473       4.25313045       5.14508206      -0.00195310       0.00276116      -0.00338194
Cl       5.00006098       1.38291789       8.66035919       0.00195454      -0.00276330       0.00338310
