9
Lattice="6.281361154988121 8.15061172454912e-09 3.6265456011344663 2.093787043043553 5.922124104902194 3.626545629373213 -1.9939894047885232e-08 2.0485610000519734e-08 7.253091236805847" Properties=species:S:1:pos:R:3:forces:R:3 energy=-25.79445457458496 free_energy=-25.79445457458496 stress="0.00017096808005589992 -7.347810138114141e-10 3.2340330413660467e-09 -7.347810138114141e-10 0.00017097650561481714 -6.1051439459447465e-09 3.2340330413660467e-09 -6.1051439459447465e-09 0.00017096081865020096" pbc="T T T"
Ca       2.09378655       1.48053101       3.62654603      -0.00000176      -0.00000028       0.00000101
Ca       6.28136140       4.44159358      10.87963623       0.00000174       0.00000255      -0.00000247
S       -0.00000012       0.00000020       0.00000021       0.00000224       0.00000032      -0.00000047
Br       2.13995066       1.51317345       7.25309123      -0.00219589      -0.00155264      -0.00000210
Br       6.23519790       4.40895073       7.25309138       0.00219369       0.00155076       0.00000124
Br       5.21138599       1.51317317       5.47979714       0.00109649      -0.00155222      -0.00189897
Br       3.16376230       4.40895038       9.02638545      -0.00109687       0.00155273       0.00190032
Br       3.16376202       4.40895062       5.47979709      -0.00109783       0.00155112      -0.00189933
Br       5.21138594       1.51317338       9.02638518       0.00109825      -0.00155234       0.00190076
