9
Lattice="5.080536244005673 -1.8300915033309947e-07 2.933248744025717 1.6935120105397081 4.789974977726335 2.933248567794474 -7.258514833144265e-08 -2.6716379748964283e-07 5.8664976137726" Properties=species:S:1:pos:R:3:forces:R:3 energy=-44.717979431152344 free_energy=-44.717979431152344 stress="0.00041708064964041114 7.161006010392157e-08 7.516458566669826e-08 7.161006010392157e-08 0.00041701298323459923 -1.3893283323795913e-07 7.516458566669826e-08 -1.3893283323795913e-07 0.0004171357140876353" pbc="T T T"
Ca       1.69351346       1.19749477       2.93324837       0.00000579       0.00000616      -0.00000134
Ca       5.08053612       3.59248086       8.79974528      -0.00000079       0.00000123      -0.00000508
Sr      -0.00000000       0.00000020       0.00000015      -0.00000057      -0.00000246      -0.00000019
F        1.80902581       1.27917456       5.86649802      -0.00067488      -0.00047625       0.00000157
F        4.96502262       3.51079992       5.86649783       0.00067824       0.00047728       0.00000154
F        4.17602284       1.27917355       4.49991072       0.00033242      -0.00047442      -0.00057975
F        2.59802538       3.51080029       7.23308399      -0.00033444       0.00047281       0.00058386
F        2.59802483       3.51079974       4.49991096      -0.00034027       0.00047702      -0.00059111
F        4.17602191       1.27917427       7.23308425       0.00033462      -0.00048111       0.00059088
