9
Lattice="5.1575246844907365 -1.0505354927807803e-06 2.977697428272788 1.7191740084928444 4.862559032194188 2.9776972479369417 1.7739473634977162e-07 -9.542832498958708e-08 5.955394549288871" Properties=species:S:1:pos:R:3:forces:R:3 energy=-40.0621452331543 free_energy=-40.0621452331543 stress="5.43252972420305e-05 2.7728515306080226e-07 -2.0515729559633655e-08 2.7728515306080226e-07 5.445805436465889e-05 -1.6141363801125408e-07 -2.0515729559633655e-08 -1.6141363801125408e-07 5.477309969137423e-05" pbc="T T T"
Ca       1.71917341       1.21563763       2.97769784      -0.00000264      -0.00000742      -0.00000572
Ca       5.15751835       3.64691430       8.93309310      -0.00003177      -0.00002030       0.00000865
Se      -0.00000148       0.00000047       0.00000066       0.00003786      -0.00000428      -0.00002182
F        1.78520816       1.26233276       5.95539471      -0.00146532      -0.00103426      -0.00000077
F        5.09149057       3.60022585       5.95539246       0.00144899       0.00102693      -0.00000423
F        4.26492164       1.26233438       4.52373205       0.00072253      -0.00100976      -0.00125492
F        2.61178226       3.60022482       7.38705621      -0.00072235       0.00103986       0.00127584
F        2.61178273       3.60022762       4.52373035      -0.00071168       0.00103009      -0.00126821
F        4.26491908       1.26233420       7.38705912       0.00072470      -0.00102097       0.00127125
