9
Lattice="5.098111188580271 1.1594022607497646e-07 2.943396080097685 1.6993705684377187 4.8065451311499405 2.943395971091411 2.2068017908650975e-07 2.2539599098320054e-08 5.8867917779660175" Properties=species:S:1:pos:R:3:forces:R:3 energy=-52.373355865478516 free_energy=-52.373355865478516 stress="0.00043782941065728664 -4.9476490460165223e-08 -1.0777564618535962e-08 -4.9476490460165223e-08 0.0004379164893180132 -1.7663555951230592e-08 -1.0777564618535962e-08 -1.7663555951230592e-08 0.000437959679402411" pbc="T T T"
Ca       1.69937061       1.20163628       2.94339512       0.00000021      -0.00000003      -0.00000376
Ca       5.09811119       3.60490975       8.83018683      -0.00000074       0.00000230      -0.00000333
Sc       0.00000009      -0.00000034      -0.00000036       0.00000264       0.00000082       0.00000101
F        1.65776967       1.17221967       5.88679222      -0.00177538      -0.00125760       0.00000118
F        5.13971245       3.63432570       5.88679272       0.00177395       0.00125492       0.00000097
F        4.26922683       1.17221940       4.37906681       0.00088832      -0.00125688      -0.00153649
F        2.52825569       3.63432480       7.39451761      -0.00088790       0.00125539       0.00154001
F        2.52825504       3.63432539       4.37906701      -0.00088936       0.00125867      -0.00154108
F        4.26922612       1.17222017       7.39451744       0.00088820      -0.00125772       0.00154084
