9
Lattice="6.414339533173062 -4.986871805439207e-09 3.703320586192256 2.1381131773323685 6.047497282123054 3.7033205787276575 5.304905658697518e-09 -5.391092782561735e-09 7.406641163196137" Properties=species:S:1:pos:R:3:forces:R:3 energy=-25.47089385986328 free_energy=-25.47089385986328 stress="6.449099601013586e-05 1.907602964479338e-09 1.518820802459686e-08 1.907602964479338e-09 6.448330532293767e-05 -1.5295496424982957e-08 1.518820802459686e-08 -1.5295496424982957e-08 6.450089858844876e-05" pbc="T T T"
Ca       2.13811338       1.51187412       3.70332108      -0.00000126      -0.00000048      -0.00000020
Ca       6.41433960       4.53562330      11.10996155       0.00000148       0.00000065       0.00000043
Se      -0.00000003       0.00000000      -0.00000029      -0.00000100      -0.00000101       0.00000205
Br       2.18610382       1.54580880       7.40664098      -0.00007692      -0.00005451      -0.00000035
Br       6.36634886       4.50168834       7.40664104       0.00007761       0.00005531       0.00000023
Br       5.32128759       1.54580893       5.59654188       0.00003865      -0.00005540      -0.00006726
Br       3.23116495       4.50168857       9.21674051      -0.00003801       0.00005481       0.00006634
Br       3.23116510       4.50168831       5.59654196      -0.00003901       0.00005510      -0.00006735
Br       5.32128759       1.54580875       9.21674050       0.00003837      -0.00005451       0.00006634
