9
Lattice="6.407119406998305 -1.3458309623161003e-07 3.699152201639901 2.135706435761879 6.040690041668762 3.699152039435727 5.709746321290693e-08 -1.582846957507112e-07 7.398304304384087" Properties=species:S:1:pos:R:3:forces:R:3 energy=-28.41953468322754 free_energy=-28.41953468322754 stress="9.181267523672432e-05 3.36890515484356e-08 1.267550953087948e-08 3.36890515484356e-08 9.178077743854374e-05 -2.1984019937804078e-08 1.267550953087948e-08 -2.1984019937804078e-08 9.176227467833087e-05" pbc="T T T"
Ca       2.13570652       1.51017226       3.69915226      -0.00000020      -0.00000143       0.00000006
Ca       6.40711956       4.53051754      11.09745633       0.00000150       0.00000064      -0.00000103
Sn       0.00000029      -0.00000020      -0.00000039      -0.00000272       0.00000259       0.00000591
Br       2.20478385       1.55901766       7.39830450      -0.00052860      -0.00037538      -0.00000080
Br       6.33804177       4.48167235       7.39830423       0.00053108       0.00037569       0.00000149
Br       5.30472738       1.55901756       5.60855066       0.00026424      -0.00037450      -0.00045796
Br       3.23809796       4.48167255       9.18805769      -0.00026326       0.00037183       0.00045420
Br       3.23809853       4.48167210       5.60855126      -0.00026572       0.00037497      -0.00046006
Br       5.30472777       1.55901718       9.18805769       0.00026377      -0.00037450       0.00045826
