9
Lattice="6.042253804208306 -4.502602345926359e-08 3.488496798254565 2.0140845206683324 5.696691611699951 3.4884968645635186 -1.0148293837746386e-07 9.452304354368693e-09 6.976993772282676" Properties=species:S:1:pos:R:3:forces:R:3 energy=-28.719867706298828 free_energy=-28.719867706298828 stress="5.4417585488408804e-05 1.3053549352548544e-08 -5.733554186981848e-10 1.3053549352548544e-08 5.439365850179456e-05 3.0356270830367293e-09 -5.733554186981848e-10 3.0356270830367293e-09 5.440268796519376e-05" pbc="T T T"
Ca       2.01408469       1.42417293       3.48849691       0.00000024      -0.00000073      -0.00000010
Ca       6.04225362       4.27251865      10.46549040      -0.00000050       0.00000017      -0.00000004
S       -0.00000022      -0.00000010       0.00000012       0.00000152      -0.00000357      -0.00000048
Cl       2.04866865       1.44862778       6.97699387       0.00003123       0.00002277       0.00000061
Cl       6.00766945       4.24806373       6.97699353      -0.00003082      -0.00002253       0.00000005
Cl       5.01791915       1.44862783       5.26269620      -0.00001755       0.00002319       0.00002819
Cl       3.03841903       4.24806380       8.69129113       0.00001663      -0.00002110      -0.00002682
Cl       3.03841911       4.24806400       5.26269622       0.00001639      -0.00002164       0.00002706
Cl       5.01791920       1.44862770       8.69129132      -0.00001726       0.00002337      -0.00002843
