9
Lattice="6.834374682068906 4.828936038856433e-08 3.9458280432863027 2.278124892406896 6.443510311280204 3.9458281249416904 -6.99729778324574e-08 5.052862870315127e-08 7.891656207769369" Properties=species:S:1:pos:R:3:forces:R:3 energy=-22.134971618652344 free_energy=-22.134971618652344 stress="-1.0591606041998602e-05 1.1925447296334823e-08 -3.3554277134584254e-09 1.1925447296334823e-08 -1.0608275260892697e-05 -2.0077060847167871e-10 -3.3554277134584254e-09 -2.0077060847167871e-10 -1.060531667462783e-05" pbc="T T T"
Ca       2.27812477       1.61087754       3.94582770      -0.00000053       0.00000062      -0.00000046
Ca       6.83437477       4.83263288      11.83748494       0.00000125       0.00000104       0.00000109
Se       0.00000007      -0.00000004       0.00000018       0.00000012       0.00000042       0.00000041
I        2.40175069       1.69829431       7.89165631      -0.00657684      -0.00465089       0.00000097
I        6.71074891       4.74521621       7.89165595       0.00657667       0.00465087      -0.00000114
I        5.63349931       1.69829432       6.02580517       0.00328858      -0.00465079      -0.00569555
I        3.47900000       4.74521610       9.75750703      -0.00328949       0.00464955       0.00569543
I        3.47900010       4.74521626       6.02580516      -0.00328805       0.00465059      -0.00569612
I        5.63349940       1.69829406       9.75750705       0.00328829      -0.00465136       0.00569540
