9
Lattice="6.116219755986977 4.835810984894933e-08 3.531201155453343 2.0387399237806934 5.766427468041503 3.531201225556591 -1.4431941644488895e-07 -1.6190658541317855e-08 7.062402560875262" Properties=species:S:1:pos:R:3:forces:R:3 energy=-29.146305084228516 free_energy=-29.146305084228516 stress="0.00019170773157384247 -6.206040126244261e-10 -1.5487437998729092e-09 -6.206040126244261e-10 0.00019169437291566283 6.116439354997283e-09 -1.5487437998729092e-09 6.116439354997283e-09 0.0001917124754982069" pbc="T T T"
Ca       2.03873945       1.44160715       3.53120104      -0.00000209       0.00000020      -0.00000075
Ca       6.11621913       4.32481976      10.59360348      -0.00000076      -0.00000309      -0.00000103
Se       0.00000013       0.00000027       0.00000042      -0.00000015      -0.00000256      -0.00000686
Cl       2.05483522       1.45298828       7.06240238      -0.00083035      -0.00058693       0.00000016
Cl       6.10012436       4.31343938       7.06240237       0.00083131       0.00058794       0.00000163
Cl       5.08880218       1.45298838       5.31074086       0.00041583      -0.00058585      -0.00071865
Cl       3.06615765       4.31343891       8.81406413      -0.00041601       0.00058931       0.00072211
Cl       3.06615796       4.31343925       5.31074083      -0.00041470       0.00058728      -0.00071824
Cl       5.08880197       1.45298867       8.81406425       0.00041682      -0.00058663       0.00072187
