9
Lattice="6.160069688163171 -2.6735098208942935e-07 3.556518102763902 2.0533562844887143 5.807769058792996 3.5565181480941885 1.226484562396159e-07 1.422435445786833e-07 7.113035993094479" Properties=species:S:1:pos:R:3:forces:R:3 energy=-32.1603889465332 free_energy=-32.1603889465332 stress="0.00027782158576883376 -4.061869418592323e-08 -1.3746147331517022e-08 -4.061869418592323e-08 0.0002778449561446905 1.6710750116999407e-08 -1.3746147331517022e-08 1.6710750116999407e-08 0.0002778970811050385" pbc="T T T"
Ca       2.05335852       1.45194298       3.55651712       0.00000516       0.00000239      -0.00000247
Ca       6.16007061       4.35582700      10.66955455       0.00000381       0.00000071       0.00000063
Sn      -0.00000025      -0.00000068       0.00000088       0.00000641       0.00001169      -0.00000978
Cl       2.11317315       1.49423902       7.11303657      -0.00555575      -0.00392935       0.00000114
Cl       6.10025371       4.31353075       7.11303576       0.00554463       0.00392279      -0.00000104
Cl       5.10348242       1.49423849       5.38657941       0.00277553      -0.00392637      -0.00480893
Cl       3.10994250       4.31352907       8.83949251      -0.00277992       0.00392655       0.00481197
Cl       3.10994145       4.31353020       5.38657964      -0.00277604       0.00392169      -0.00480404
Cl       5.10348222       1.49423886       8.83949267       0.00277610      -0.00393015       0.00481245
