9
Lattice="5.075016867381778 9.920569658416395e-08 2.9300624034663523 1.691672391317308 4.784771975666239 2.9300623884703403 5.4418385321343864e-08 2.011331042020924e-08 5.86012471267726" Properties=species:S:1:pos:R:3:forces:R:3 energy=-43.61811828613281 free_energy=-43.61811828613281 stress="0.00048394835903309286 3.5936913889145217e-08 -1.1277357714334357e-08 3.5936913889145217e-08 0.00048384524416178465 -6.03357674933136e-09 -1.1277357714334357e-08 -6.03357674933136e-09 0.0004838442546315491" pbc="T T T"
Ca       1.69167180       1.19619333       2.93006201      -0.00000352       0.00000050      -0.00000098
Ca       5.07501689       3.58857934       8.79018729      -0.00000208       0.00000222       0.00000105
Sn      -0.00000131      -0.00000051       0.00000149       0.00001245       0.00000861      -0.00001777
F        1.77820954       1.25738370       5.86012499      -0.00736577      -0.00520949      -0.00000015
F        4.98848126       3.52738831       5.86012481       0.00735239       0.00519668      -0.00000148
F        4.18591331       1.25738281       4.47003580       0.00367601      -0.00519645      -0.00636379
F        2.58077666       3.52738830       7.25021327      -0.00367985       0.00520513       0.00637427
F        2.58077667       3.52738949       4.47003548      -0.00367234       0.00519777      -0.00636486
F        4.18591249       1.25738372       7.25021279       0.00368275      -0.00520531       0.00637366
