9
Lattice="4.627725057940996 -3.8835343903146e-07 2.6718183441626304 1.5425749403992668 4.363059345285426 2.671817846667916 1.0856922036494149e-07 -5.3253409052813e-07 5.343636500277792" Properties=species:S:1:pos:R:3:forces:R:3 energy=-39.838226318359375 free_energy=-39.838226318359375 stress="0.0001661015412537381 -7.924103329060017e-08 1.2646580671571428e-07 -7.924103329060017e-08 0.00016607427096460015 5.4416542383251e-08 1.2646580671571428e-07 5.4416542383251e-08 0.00016577294445596635" pbc="T T T"
Ca       1.54257544       1.09076560       2.67181769      -0.00000278       0.00000086       0.00000004
Ca       4.62772420       3.27229336       8.01545498       0.00000179       0.00000010      -0.00000161
S       -0.00000015      -0.00000044      -0.00000017       0.00000464       0.00000252       0.00000411
F        1.63956048       1.15934374       5.34363654      -0.00779343      -0.00551367       0.00000060
F        4.53073996       3.20371520       5.34363651       0.00779235       0.00550961       0.00000055
F        3.80794504       1.15934252       4.09171961       0.00389576      -0.00551295      -0.00674808
F        2.36235518       3.20371561       6.59555331      -0.00389624       0.00551236       0.00674808
F        2.36235507       3.20371538       4.09171912      -0.00389588       0.00551081      -0.00674987
F        3.80794526       1.15934235       6.59555364       0.00389397      -0.00550950       0.00674498
