9
Lattice="6.7226310296469745 2.174354920027919e-08 3.8813128347426917 2.240877066199126 6.338157247988365 3.8813127727062224 1.5413680808303397e-08 -6.507973990337926e-08 7.76262564278812" Properties=species:S:1:pos:R:3:forces:R:3 energy=-22.335689544677734 free_energy=-22.335689544677734 stress="-2.6782277927850373e-05 -5.976839467791706e-09 2.2832358226310134e-10 -5.976839467791706e-09 -2.6777419407153502e-05 6.647644212876003e-09 2.2832358226310134e-10 6.647644212876003e-09 -2.675531868590042e-05" pbc="T T T"
Ca       2.24087748       1.58453992       3.88131260      -0.00000069       0.00000064      -0.00000052
Ca       6.72263050       4.75361793      11.64393819       0.00000009       0.00000063      -0.00000135
S        0.00000024       0.00000008      -0.00000003       0.00000013       0.00000020      -0.00000014
I        2.35561441       1.66567066       7.76262556      -0.00063051      -0.00044458       0.00000007
I        6.60789384       4.67248613       7.76262604       0.00062842       0.00044418       0.00000061
I        5.54482383       1.66567060       5.92133466       0.00031537      -0.00044496      -0.00054690
I        3.41868425       4.67248630       9.60391676      -0.00031428       0.00044425       0.00054587
I        3.41868410       4.67248629       5.92133468      -0.00031384       0.00044463      -0.00054429
I        5.54482381       1.66567091       9.60391655       0.00031532      -0.00044508       0.00054660
