9
Lattice="7.064815864807578 1.0075750586278089e-07 4.078873455104817 2.3549385587865697 6.6607724587544475 4.078873728441632 -1.0993149138936018e-07 2.5703450296652335e-07 8.157747100616668" Properties=species:S:1:pos:R:3:forces:R:3 energy=-24.668243408203125 free_energy=-24.668243408203125 stress="9.534235141472891e-05 -9.939034484318654e-09 1.144375816330978e-09 -9.939034484318654e-09 9.533476986689493e-05 5.596598295909416e-09 1.144375816330978e-09 5.596598295909416e-09 9.531732939649373e-05" pbc="T T T"
Ca       2.35493784       1.66519332       4.07887365      -0.00000357       0.00000027       0.00000086
Ca       7.06481674       4.99557947      12.23662091       0.00000562      -0.00000003       0.00000061
Sr       0.00000014       0.00000003      -0.00000005       0.00000034       0.00000107      -0.00000260
I        2.52094767       1.78257971       8.15774717      -0.00201280      -0.00142216      -0.00000061
I        6.89880652       4.87819328       8.15774711       0.00201230       0.00142305      -0.00000057
I        5.80434207       1.78257948       6.26207845       0.00100473      -0.00142302      -0.00174323
I        3.61541197       4.87819340      10.05341576      -0.00100770       0.00142369       0.00174338
I        3.61541210       4.87819323       6.26207849      -0.00100610       0.00142124      -0.00174170
I        5.80434221       1.78257939      10.05341568       0.00100720      -0.00142414       0.00174386
