9
Lattice="6.166598734108905 -1.8285602853471157e-08 3.560287495851175 2.0555328519473135 5.81392515853389 3.56028756891332 6.984513420407903e-09 9.442132430805882e-08 7.120574979604747" Properties=species:S:1:pos:R:3:forces:R:3 energy=-33.02289581298828 free_energy=-33.02289581298828 stress="0.0002926675952039659 1.1928584342513204e-08 -5.5715640989717485e-09 1.1928584342513204e-08 0.000292665499728173 -6.906769822734304e-09 -5.5715640989717485e-09 -6.906769822734304e-09 0.0002926853485405445" pbc="T T T"
Ca       2.05553320       1.45348160       3.56028720       0.00000139       0.00000009      -0.00000029
Ca       6.16659812       4.36044378      10.68086338      -0.00000096      -0.00000002       0.00000167
Sr      -0.00000010      -0.00000047      -0.00000025      -0.00000169       0.00000685       0.00000258
Cl       2.19479325       1.55195290       7.12057514      -0.00678396      -0.00479738      -0.00000033
Cl       6.02733868       4.26197241       7.12057471       0.00678145       0.00479522      -0.00000042
Cl       5.06920223       1.55195315       5.46103394       0.00339249      -0.00479618      -0.00587653
Cl       3.15292932       4.26197237       8.78011624      -0.00339058       0.00479356       0.00587184
Cl       3.15292960       4.26197226       5.46103372      -0.00339001       0.00479478      -0.00587386
Cl       5.06920207       1.55195296       8.78011595       0.00339178      -0.00479702       0.00587541
