9
Lattice="6.528766707759665 -3.862319703318924e-09 3.769385233541904 2.176255604113165 6.155380386625733 3.7693851668556344 -4.723579745512666e-08 -1.1507445999327807e-07 7.538770548898631" Properties=species:S:1:pos:R:3:forces:R:3 energy=-28.830659866333008 free_energy=-28.830659866333008 stress="0.00010174101043958217 1.99282617074914e-08 7.481246733220814e-09 1.99282617074914e-08 0.00010169238521484658 -1.3565491840950017e-08 7.481246733220814e-09 -1.3565491840950017e-08 0.00010171069880016148" pbc="T T T"
Ca       2.17625520       1.53884519       3.76938557      -0.00000056      -0.00000135       0.00000166
Ca       6.52876685       4.61653394      11.30815566       0.00000003      -0.00000356       0.00000116
Sr      -0.00000009       0.00000017      -0.00000048      -0.00000008      -0.00000151       0.00000728
Br       2.32360732       1.64303898       7.53877017      -0.00052679      -0.00037129      -0.00000075
Br       6.38141490       4.51234164       7.53877036       0.00052792       0.00037251      -0.00000002
Br       5.36696274       1.64303903       5.78168797       0.00026288      -0.00037028      -0.00045647
Br       3.33805914       4.51234219       9.29585288      -0.00026107       0.00036966       0.00045243
Br       3.33805969       4.51234146       5.78168885      -0.00026443       0.00037490      -0.00045838
Br       5.36696333       1.64303847       9.29585286       0.00026218      -0.00036903       0.00045306
