9
Lattice="6.310167922403861 5.8495664579428474e-08 3.6431771335478627 2.1033893433587822 5.949283269069881 3.6431771669060424 2.474952200117632e-08 5.835584013490962e-08 7.286354224228248" Properties=species:S:1:pos:R:3:forces:R:3 energy=-34.81974792480469 free_energy=-34.81974792480469 stress="7.72310741012916e-05 -6.483198866646944e-09 1.094639490162308e-08 -6.483198866646944e-09 7.721992005826905e-05 -9.753780894072861e-09 1.094639490162308e-08 -9.753780894072861e-09 7.721237489022315e-05" pbc="T T T"
Ca       2.10338919       1.48732096       3.64317735      -0.00000025      -0.00000092       0.00000011
Ca       6.31016818       4.46196221      10.92953048       0.00000166      -0.00000005      -0.00000341
Sc      -0.00000053       0.00000017       0.00000032       0.00001060       0.00000013      -0.00000452
Br       2.11334298       1.49435934       7.28635438      -0.00126019      -0.00089109      -0.00000098
Br       6.30021481       4.45492450       7.28635456       0.00125140       0.00088400       0.00000035
Br       5.25349662       1.49435856       5.47338555       0.00062494      -0.00088459      -0.00108111
Br       3.16006103       4.45492409       9.09932270      -0.00062962       0.00089172       0.00109059
Br       3.16006058       4.45492425       5.47338589      -0.00062715       0.00088745      -0.00108758
Br       5.25349632       1.49435947       9.09932285       0.00062862      -0.00088644       0.00108653
