9
Lattice="6.949538088076057 2.5756697855520793e-08 4.01231759914404 2.316512692702177 6.552087341871581 4.0123176469605095 -4.2164425347627714e-08 2.874816495359739e-08 8.024635271318942" Properties=species:S:1:pos:R:3:forces:R:3 energy=-24.269350051879883 free_energy=-24.269350051879883 stress="6.143196515040472e-05 1.066608845690098e-08 1.0604606970332497e-08 1.066608845690098e-08 6.142598431324586e-05 -1.1341408701071032e-08 1.0604606970332497e-08 -1.1341408701071032e-08 6.142423080746084e-05" pbc="T T T"
Ca       2.31651284       1.63802215       4.01231719      -0.00000095       0.00000068      -0.00000134
Ca       6.94953799       4.91406510      12.03695370       0.00000039      -0.00000164       0.00000284
Sn      -0.00000015      -0.00000030      -0.00000026       0.00000150       0.00000407       0.00000240
I        2.42280048       1.71317873       8.02463527      -0.00166845      -0.00118063       0.00000056
I        6.84325056       4.83890895       8.02463494       0.00166480       0.00117797      -0.00000096
I        5.73813801       1.71317852       6.11052395       0.00083508      -0.00117910      -0.00144568
I        3.52791248       4.83890903       9.93874670      -0.00083303       0.00117750       0.00144296
I        3.52791274       4.83890880       6.11052410      -0.00083312       0.00117943      -0.00144535
I        5.73813798       1.71317859       9.93874646       0.00083375      -0.00117826       0.00144452
