9
Lattice="4.930373997625431 1.8345148796083397e-08 2.8465523724550184 1.6434580419651792 4.648401007428854 2.8465523283557395 5.508129682440579e-08 -1.5062017065559352e-08 5.693104649506427" Properties=species:S:1:pos:R:3:forces:R:3 energy=-51.69926071166992 free_energy=-51.69926071166992 stress="0.00030991085804998875 -2.7538944458171954e-09 -1.4557850924745708e-08 -2.7538944458171954e-09 0.0003099911555182189 9.044614834863296e-09 -1.4557850924745708e-08 9.044614834863296e-09 0.0003101472684647888" pbc="T T T"
Ca       1.64345818       1.16210040       2.84655202       0.00000059       0.00000103      -0.00000221
Ca       4.93037393       3.48630120       8.53965700      -0.00000001       0.00000115      -0.00000084
Ti       0.00000002      -0.00000035      -0.00000028       0.00000083       0.00000663      -0.00000101
F        1.63242797       1.15430078       5.69310500      -0.00083923      -0.00059456       0.00000122
F        4.94140441       3.49410044       5.69310480       0.00083584       0.00059006       0.00000041
F        4.11416010       1.15430060       4.26027621       0.00041965      -0.00059530      -0.00072575
F        2.45967184       3.49409979       7.12593337      -0.00041816       0.00059211       0.00072572
F        2.45967187       3.49410039       4.26027567      -0.00041738       0.00059029      -0.00072372
F        4.11415995       1.15430053       7.12593344       0.00041816      -0.00059175       0.00072554
