9
Lattice="6.294945320429263 -7.491956750018393e-08 3.6343883694610604 2.098315055640832 5.934931090911628 3.6343883357451516 3.5507244582766066e-08 -1.618598761552394e-08 7.268776677421731" Properties=species:S:1:pos:R:3:forces:R:3 energy=-34.11852264404297 free_energy=-34.11852264404297 stress="5.6876444432418793e-05 -2.5133042313996157e-08 1.1533818344844349e-08 -2.5133042313996157e-08 5.6864984799176455e-05 -6.156337217788632e-09 1.1533818344844349e-08 -6.156337217788632e-09 5.689484532922506e-05" pbc="T T T"
Ca       2.09831511       1.48373315       3.63438823       0.00000056       0.00000311       0.00000111
Ca       6.29494554       4.45119845      10.90316560       0.00000106      -0.00000143       0.00000123
Ti       0.00000021       0.00000007      -0.00000026       0.00000025      -0.00000229      -0.00000039
Br       2.09330312       1.48018864       7.26877652      -0.00064236      -0.00045627      -0.00000005
Br       6.29995677       4.45474221       7.26877667       0.00064546       0.00045493      -0.00000019
Br       5.24829397       1.48018914       5.44724169       0.00032274      -0.00045672      -0.00055772
Br       3.14496640       4.45474197       9.09031074      -0.00032426       0.00045647       0.00056055
Br       3.14496662       4.45474151       5.44724246      -0.00032376       0.00045809      -0.00056088
Br       5.24829392       1.48018888       9.09031188       0.00032040      -0.00045589       0.00055614
