9
Lattice="5.948391141251228 6.719669525217082e-08 3.4343045134355363 1.9827970834438713 5.608195958380091 3.4343045601896867 -2.9031677939791986e-07 -1.480230793879113e-07 6.868609529714471" Properties=species:S:1:pos:R:3:forces:R:3 energy=-38.614341735839844 free_energy=-38.614341735839844 stress="0.00023151612549554557 1.979610608771054e-08 -2.78432832345743e-08 1.979610608771054e-08 0.0002314499142812565 -2.8961604670030283e-08 -2.78432832345743e-08 -2.8961604670030283e-08 0.00023138626420404762" pbc="T T T"
Ca       1.98279814       1.40204824       3.43430459      -0.00000043      -0.00000294       0.00000029
Ca       5.94839145       4.20614738      10.30291370       0.00000315       0.00000153      -0.00000037
Ti      -0.00000070       0.00000027      -0.00000055       0.00000468      -0.00000221       0.00001145
Cl       1.97037690       1.39326665       6.86860881      -0.00559336      -0.00395277       0.00000092
Cl       5.96081079       4.21492995       6.86860892       0.00559074       0.00395316       0.00000221
Cl       4.96320233       1.39326594       5.14070035       0.00279410      -0.00395146      -0.00484067
Cl       2.96798454       4.21492994       8.59651921      -0.00279060       0.00394511       0.00483435
Cl       2.96798520       4.21493013       5.14070032      -0.00279695       0.00395194      -0.00484028
Cl       4.96320307       1.39326504       8.59651885       0.00278877      -0.00394246       0.00483268
