9
Lattice="5.891391750089118 -5.011654106682965e-09 3.40139643527236 1.9637972234291623 5.554457375821848 3.4013964731617787 -7.760704591833284e-08 -8.471586399957038e-09 6.802793004964062" Properties=species:S:1:pos:R:3:forces:R:3 energy=-38.80534362792969 free_energy=-38.80534362792969 stress="5.6220807891804725e-05 -7.188159845128439e-09 4.4548706057412346e-08 -7.188159845128439e-09 5.61434862902388e-05 3.9427079379095176e-09 4.4548706057412346e-08 3.9427079379095176e-09 5.617201895802282e-05" pbc="T T T"
Ca       1.96379687       1.38861409       3.40139596      -0.00000017      -0.00000093      -0.00000252
Ca       5.89139077       4.16584289      10.20418796      -0.00000034      -0.00000020      -0.00000357
V        0.00000031       0.00000038       0.00000037      -0.00000078      -0.00000527      -0.00000001
Cl       1.95557055       1.38279677       6.80279315      -0.00073375      -0.00052023       0.00000049
Cl       5.89961872       4.17166076       6.80279349       0.00073430       0.00052090       0.00000154
Cl       4.91360692       1.38279706       5.09497011       0.00036753      -0.00051688      -0.00063349
Cl       2.94158236       4.17166006       8.51061615      -0.00036674       0.00051984       0.00063944
Cl       2.94158237       4.17166066       5.09497019      -0.00036750       0.00052057      -0.00063740
Cl       4.91360670       1.38279681       8.51061627       0.00036757      -0.00051773       0.00063556
