9
Lattice="6.20900291040523 -1.2259481904994039e-08 3.5847696171866037 2.069667667789762 5.853904300142128 3.5847695434941884 1.0782307810192929e-08 -8.263018391551156e-08 7.169539215697743" Properties=species:S:1:pos:R:3:forces:R:3 energy=-34.38109588623047 free_energy=-34.38109588623047 stress="0.00011989121412625536 -1.4218556332323828e-09 1.1800958432672815e-08 -1.4218556332323828e-09 0.00011988536425633356 -2.59684451719977e-08 1.1800958432672815e-08 -2.59684451719977e-08 0.00011990563507424667" pbc="T T T"
Ca       2.06966781       1.46347599       3.58476948       0.00000042      -0.00000046       0.00000011
Ca       6.20900290       4.39042811      10.75430836      -0.00000007       0.00000051      -0.00000132
V       -0.00000003       0.00000041       0.00000023       0.00000101      -0.00000324       0.00000040
Br       2.07015921       1.46382350       7.16953938      -0.00618956      -0.00437558      -0.00000002
Br       6.20851129       4.39008038       7.16953928       0.00618939       0.00437669      -0.00000000
Br       5.17392349       1.46382327       5.37758003       0.00309351      -0.00437461      -0.00535783
Br       3.10474708       4.39008090       8.96149836      -0.00309438       0.00437561       0.00535894
Br       3.10474754       4.39008038       5.37758027      -0.00309495       0.00437742      -0.00536134
Br       5.17392305       1.46382390       8.96149812       0.00309461      -0.00437646       0.00536104
