9
Lattice="4.872160823869191 2.0162655276856058e-07 2.8129431975345636 1.6240536765883495 4.593517578051884 2.812943407915355 -1.3970805340439463e-07 1.588742047332247e-07 5.625886637050579" Properties=species:S:1:pos:R:3:forces:R:3 energy=-51.08063507080078 free_energy=-51.08063507080078 stress="0.00038913192111067474 5.663294544433484e-08 -1.7341113434099498e-08 5.663294544433484e-08 0.00038906579720787704 5.962169780104887e-08 -1.7341113434099498e-08 5.962169780104887e-08 0.00038909632712602615" pbc="T T T"
Ca       1.62405399       1.14837933       2.81294306       0.00000085      -0.00000012      -0.00000151
Ca       4.87216088       3.44513844       8.43882968       0.00000147       0.00000089      -0.00000085
V       -0.00000010       0.00000012      -0.00000024      -0.00000448      -0.00000111      -0.00000206
F        1.62240461       1.14721346       5.62588710      -0.00212222      -0.00150007       0.00000013
F        4.87380966       3.44630435       5.62588690       0.00212359       0.00150263      -0.00000011
F        4.06095858       1.14721325       4.21798722       0.00105941      -0.00149944      -0.00183761
F        2.43525572       3.44630427       7.03378603      -0.00106117       0.00150093       0.00183776
F        2.43525564       3.44630508       4.21798677      -0.00105685       0.00149488      -0.00183156
F        4.06095842       1.14721361       7.03378627       0.00105914      -0.00149843       0.00183553
