9
Lattice="6.762822493354425 -1.0512981016016146e-07 3.904517394970777 2.254274057124695 6.376050162163128 3.9045174091899546 -4.478311352882847e-08 -1.425159121275528e-08 7.809034867508275" Properties=species:S:1:pos:R:3:forces:R:3 energy=-30.084383010864258 free_energy=-30.084383010864258 stress="-1.0922721230599564e-05 -5.2866746536039955e-09 1.949734818040838e-09 -5.2866746536039955e-09 -1.0919767191808205e-05 -5.07296515905864e-09 1.949734818040838e-09 -5.07296515905864e-09 -1.0919551641563885e-05" pbc="T T T"
Ca       2.25427474       1.59401333       3.90451753       0.00000229       0.00000190       0.00000070
Ca       6.76282239       4.78203699      11.71355200       0.00000000      -0.00000085      -0.00000222
V       -0.00000006      -0.00000001       0.00000022      -0.00000233       0.00000142      -0.00000097
I        2.24317228       1.58616248       7.80903486      -0.00335029      -0.00236770       0.00000013
I        6.77392408       4.78988751       7.80903495       0.00335089       0.00236905       0.00000046
I        5.64123596       1.58616230       5.84716184       0.00167464      -0.00236951      -0.00290243
I        3.37586035       4.78988748       9.77090788      -0.00167504       0.00236749       0.00290105
I        3.37586028       4.78988750       5.84716172      -0.00167604       0.00236817      -0.00290023
I        5.64123599       1.58616260       9.77090770       0.00167590      -0.00236992       0.00290357
