9
Lattice="7.027790468078821 -6.562144408963714e-08 4.057496750759305 2.3425967647416908 6.625864432287347 4.057496743974433 -4.276874494982418e-08 -3.855184348344475e-08 8.114993575596282" Properties=species:S:1:pos:R:3:forces:R:3 energy=-30.308958053588867 free_energy=-30.308958053588867 stress="8.017813524929807e-05 -2.1067487310233446e-08 1.8198247353495844e-09 -2.1067487310233446e-08 8.018054359126836e-05 -7.226515386093979e-09 1.8198247353495844e-09 -7.226515386093979e-09 8.02063150331378e-05" pbc="T T T"
Ca       2.34259666       1.65646591       4.05749685       0.00000003      -0.00000058      -0.00000013
Ca       7.02779069       4.96939818      12.17249018      -0.00000007       0.00000049      -0.00000090
Y        0.00000001      -0.00000003       0.00000033      -0.00000030      -0.00000013      -0.00000283
I        2.42105490       1.71194435       8.11499378      -0.00093687      -0.00066221      -0.00000070
I        6.94933231       4.91392006       8.11499365       0.00093681       0.00066266      -0.00000006
I        5.81726320       1.71194430       6.15419176       0.00046840      -0.00066192      -0.00081149
I        3.55312424       4.91391972      10.07579489      -0.00046995       0.00066415       0.00081326
I        3.55312408       4.91392007       6.15419181      -0.00046848       0.00066259      -0.00081149
I        5.81726268       1.71194473      10.07579502       0.00047041      -0.00066505       0.00081433
