9
Lattice="5.228245840280735 8.70625221082657e-08 3.018529074839362 1.7427485952084276 4.929237428081078 3.018529248567258 -1.690110227484407e-07 9.326348232053616e-08 6.037058442414422" Properties=species:S:1:pos:R:3:forces:R:3 energy=-52.212554931640625 free_energy=-52.212554931640625 stress="0.00022660737158730626 -2.240615870618967e-08 7.236508992036761e-08 -2.240615870618967e-08 0.0002265595248900354 -5.451218498819799e-08 7.236508992036761e-08 -5.451218498819799e-08 0.00022658648958895355" pbc="T T T"
Ca       1.74274857       1.23231022       3.01852917       0.00000080       0.00000321       0.00000177
Ca       5.22824572       3.69692786       9.05558747       0.00000034      -0.00000183       0.00000058
Y        0.00000014       0.00000024      -0.00000017       0.00000068       0.00000136       0.00000882
F        1.73852114       1.22931996       6.03705792       0.00369138       0.00261042      -0.00000003
F        5.23247362       3.69991748       6.03705814      -0.00369364      -0.00261188       0.00000023
F        4.35898512       1.22932014       4.52413257      -0.00184411       0.00260952       0.00319517
F        2.61200781       3.69991760       7.54998440       0.00184721      -0.00261512      -0.00320154
F        2.61200931       3.69991658       4.52413271       0.00184265      -0.00260648       0.00319147
F        4.35898555       1.22932060       7.54998455      -0.00184554       0.00261077      -0.00319582
