9
Lattice="6.484122028539182 4.327170690687539e-08 3.743609788322199 2.161374042968943 6.11328901307023 3.7436098010373406 6.877975597272087e-08 6.420746013707681e-08 7.4872194575143896" Properties=species:S:1:pos:R:3:forces:R:3 energy=-35.001800537109375 free_energy=-35.001800537109375 stress="0.00010202603152720258 -4.662268793254043e-09 -8.840192466941232e-11 -4.662268793254043e-09 0.00010204331920249388 8.126598061153345e-09 -8.840192466941232e-11 8.126598061153345e-09 0.00010203470446867868" pbc="T T T"
Ca       2.16137361       1.52832200       3.74360978       0.00000004      -0.00000026      -0.00000020
Ca       6.48412228       4.58496688      11.23082958       0.00000011      -0.00000062       0.00000061
Y        0.00000002       0.00000028      -0.00000038       0.00000084      -0.00000503       0.00000103
Br       2.22635371       1.57426969       7.48721942      -0.00042573      -0.00030056       0.00000061
Br       6.41914244       4.53901949       7.48721957       0.00042707       0.00030197       0.00000016
Br       5.37094521       1.57426963       5.67168858       0.00021300      -0.00030079      -0.00036845
Br       3.27455107       4.53901934       9.30275047      -0.00021325       0.00030200       0.00036991
Br       3.27455089       4.53901934       5.67168876      -0.00021490       0.00030330      -0.00037044
Br       5.37094532       1.57426983       9.30275040       0.00021283      -0.00029995       0.00036675
