9
Lattice="5.739651680218809 3.183368606542112e-08 3.3137895066258523 1.9132172447933797 5.411395619357139 3.313789527340019 -1.6983494956150385e-09 2.4168673905249027e-08 6.627579016193326" Properties=species:S:1:pos:R:3:forces:R:3 energy=-31.243183135986328 free_energy=-31.243183135986328 stress="-0.00013289331400301307 -1.9178431287514286e-08 4.242811435517524e-09 -1.9178431287514286e-08 -0.00013286733883433044 5.318876894477853e-09 4.242811435517524e-09 5.318876894477853e-09 -0.00013284391025081277" pbc="T T T"
Ca       1.91321741       1.35284876       3.31378922       0.00000025      -0.00000031      -0.00000141
Ca       5.73965178       4.05854645       9.94136902       0.00000024      -0.00000182       0.00000148
Zn       0.00000018       0.00000014       0.00000077      -0.00000168      -0.00000058      -0.00001127
Cl       1.92397045       1.36045294       6.62757921      -0.00288810      -0.00204274      -0.00000176
Cl       5.72889812       4.05094259       6.62757869       0.00289270       0.00204697      -0.00000015
Cl       4.77766641       1.36045305       4.97999707       0.00144146      -0.00204302      -0.00250244
Cl       2.87520261       4.05094264       8.27516067      -0.00144836       0.00204822       0.00250813
Cl       2.87520256       4.05094318       4.97999719      -0.00144388       0.00204135      -0.00250100
Cl       4.77766618       1.36045295       8.27516042       0.00144745      -0.00204828       0.00250833
