9
Lattice="6.111412976621088 1.217899722250504e-09 3.528425914585767 2.0371376595595594 5.761895450139569 3.528425915386605 2.6782906487499078e-08 1.991920467449539e-08 7.056851782782138" Properties=species:S:1:pos:R:3:forces:R:3 energy=-26.808324813842773 free_energy=-26.808324813842773 stress="-6.257314089452848e-05 -7.438673677029328e-09 -4.7984287654401214e-09 -7.438673677029328e-09 -6.25505272182636e-05 5.805746550180402e-09 -4.7984287654401214e-09 5.805746550180402e-09 -6.253885658225045e-05" pbc="T T T"
Ca       2.03713792       1.44047423       3.52842544      -0.00000017       0.00000144      -0.00000081
Ca       6.11141298       4.32142130      10.58527755       0.00000082      -0.00000137      -0.00000060
Zn      -0.00000007      -0.00000017       0.00000011      -0.00000109      -0.00000037      -0.00000032
Br       2.05924482       1.45610609       7.05685195      -0.00102652      -0.00072530       0.00000027
Br       6.08930604       4.30578955       7.05685209       0.00102563       0.00072519      -0.00000069
Br       5.08179059       1.45610595       5.31178440       0.00051264      -0.00072410      -0.00088884
Br       3.06676007       4.30578930       8.80191934      -0.00051278       0.00072496       0.00088939
Br       3.06675992       4.30578950       5.31178439      -0.00051184       0.00072458      -0.00088859
Br       5.08179039       1.45610614       8.80191924       0.00051331      -0.00072519       0.00089022
