9
Lattice="6.704421440177224 5.04616915069569e-08 3.8707995332705845 2.2348071589935294 6.320989202401472 3.870799594425782 -5.3914638856171255e-08 3.677607718876305e-08 7.7415991599240614" Properties=species:S:1:pos:R:3:forces:R:3 energy=-22.280736923217773 free_energy=-22.280736923217773 stress="-8.422000973951072e-05 6.027278676157266e-09 -4.7118513535338025e-09 6.027278676157266e-09 -8.422969403909519e-05 1.7358676718259858e-09 -4.7118513535338025e-09 1.7358676718259858e-09 -8.423329563811421e-05" pbc="T T T"
Ca       2.23480693       1.58024661       3.87080012      -0.00000004      -0.00000203       0.00000147
Ca       6.70442213       4.74074231      11.61239811       0.00000134       0.00000124      -0.00000157
Zn      -0.00000015      -0.00000002      -0.00000014      -0.00000028       0.00000074       0.00000140
I        2.25763027       1.59638599       7.74159913      -0.00684850      -0.00484266      -0.00000078
I        6.68159809       4.72460367       7.74159926       0.00684728       0.00484313       0.00000103
I        5.57560634       1.59638572       5.82596512       0.00342374      -0.00484271      -0.00593069
I        3.36362200       4.72460387       9.65723322      -0.00342279       0.00484128       0.00592951
I        3.36362224       4.72460346       5.82596501      -0.00342463       0.00484240      -0.00592986
I        5.57560634       1.59638555       9.65723331       0.00342389      -0.00484144       0.00592952
