9
Lattice="6.238082448039641 2.545361387050002e-08 3.6015585610876353 2.0793608489315853 5.881320456471961 3.601558545636946 1.2358892580032201e-08 -1.0184081275534125e-08 7.203117100769053" Properties=species:S:1:pos:R:3:forces:R:3 energy=-15.947125434875488 free_energy=-15.947125434875488 stress="4.423386599228252e-06 2.9352769104207255e-09 4.442556045258783e-10 2.9352769104207255e-09 4.412426733324537e-06 -7.037758154027074e-10 4.442556045258783e-10 -7.037758154027074e-10 4.408229415275855e-06" pbc="T T T"
Cd       2.07936083       1.47032981       3.60155864       0.00000053      -0.00000082      -0.00000013
Cd       6.23808267       4.41099056      10.80467582       0.00000044       0.00000072       0.00000091
Ag      -0.00000029       0.00000026      -0.00000042       0.00000095      -0.00000380       0.00000496
Br       2.13511971       1.50975758       7.20311704      -0.00250658      -0.00177203      -0.00000031
Br       6.18232369       4.37156311       7.20311705       0.00250770       0.00177401      -0.00000104
Br       5.17052281       1.50975730       5.45062615       0.00125337      -0.00177286      -0.00217034
Br       3.14692059       4.37156299       8.95560803      -0.00125378       0.00177196       0.00216976
Br       3.14692058       4.37156294       5.45062650      -0.00125441       0.00177445      -0.00217223
Br       5.17052268       1.50975735       8.95560810       0.00125192      -0.00177152       0.00216834
