9
Lattice="5.935318536594754 -1.642639327951826e-08 3.426757721976473 1.978439497646573 5.595872042447264 3.426757720356529 -7.399629349168335e-09 -7.216341075796371e-09 6.853515456769487" Properties=species:S:1:pos:R:3:forces:R:3 energy=-18.259593963623047 free_energy=-18.259593963623047 stress="9.22070030355826e-05 2.793651976418232e-09 -1.2133576809958413e-08 2.793651976418232e-09 9.219965431839228e-05 8.608069812510166e-09 -1.2133576809958413e-08 8.608069812510166e-09 9.221070649800822e-05" pbc="T T T"
Cd       1.97843956       1.39896755       3.42675806       0.00000055      -0.00000067       0.00000006
Cd       5.93531837       4.19690399      10.28027321      -0.00000115      -0.00000001       0.00000034
Ag      -0.00000015       0.00000021      -0.00000047       0.00000051      -0.00000123      -0.00000063
Cl       2.01473494       1.42463296       6.85351544      -0.00136772      -0.00096698      -0.00000089
Cl       5.89902278       4.17123903       6.85351540       0.00136954       0.00096810      -0.00000025
Cl       4.92795087       1.42463288       5.17156937       0.00068244      -0.00096714      -0.00118449
Cl       2.98580745       4.17123900       8.53546139      -0.00068504       0.00096881       0.00118586
Cl       2.98580735       4.17123949       5.17156955      -0.00068301       0.00096731      -0.00118412
Cl       4.92795094       1.42463298       8.53546171       0.00068414      -0.00096846       0.00118442
