9
Lattice="6.248286010221377 1.3150731901244173e-08 3.6074495903038 2.0827620291204543 5.890940509890666 3.607449567242146 1.3676050907608428e-08 -1.857423171612647e-08 7.214899156919995" Properties=species:S:1:pos:R:3:forces:R:3 energy=-16.208606719970703 free_energy=-16.208606719970703 stress="4.928556882077828e-05 -5.347251974541223e-09 -6.508795724613492e-10 -5.347251974541223e-09 4.9276608478976414e-05 1.686448980464661e-09 -6.508795724613492e-10 1.686448980464661e-09 4.9268437578575686e-05" pbc="T T T"
Cd       2.08276205       1.47273516       3.60744957      -0.00000022       0.00000025      -0.00000017
Cd       6.24828604       4.41820540      10.82234836       0.00000045      -0.00000005      -0.00000024
Au      -0.00000076       0.00000017       0.00000007       0.00001139      -0.00000166      -0.00000026
Br       2.13578109       1.51022514       7.21489935      -0.00075813      -0.00053605      -0.00000043
Br       6.19526744       4.38071567       7.21489935       0.00075078       0.00053044      -0.00000069
Br       5.18039584       1.51022460       5.45708984       0.00037591      -0.00053112      -0.00065055
Br       3.15065267       4.38071529       8.97270821      -0.00037935       0.00053665       0.00065579
Br       3.15065227       4.38071555       5.45709002      -0.00037738       0.00053392      -0.00065522
Br       5.18039558       1.51022506       8.97270843       0.00037663      -0.00053231       0.00065182
