9
Lattice="4.864103780208642 -5.4082636906630945e-08 2.808291679291519 1.6213678855662648 4.585921051739204 2.8082916622833483 -1.5761310204864557e-08 -3.197558061676423e-08 5.6165833858823815" Properties=species:S:1:pos:R:3:forces:R:3 energy=-27.809146881103516 free_energy=-27.809146881103516 stress="0.0005025396822020411 -1.8361415499157374e-08 2.3265013027184978e-08 -1.8361415499157374e-08 0.0005025097634643316 1.4682323801196162e-08 2.3265013027184978e-08 1.4682323801196162e-08 0.0005024654674343765" pbc="T T T"
Cd       1.62136799       1.14648002       2.80829185      -0.00000097       0.00000012       0.00000159
Cd       4.86410377       3.43944088       8.42487543       0.00000043       0.00000050       0.00000075
Ag      -0.00000015      -0.00000005      -0.00000017      -0.00000068      -0.00000223      -0.00000166
F        1.70571929       1.20612566       5.61658348      -0.00611299      -0.00432283       0.00000186
F        4.77975241       3.37979519       5.61658304       0.00611472       0.00432357      -0.00000219
F        4.01124405       1.20612521       4.28548805       0.00305584      -0.00432333      -0.00529352
F        2.47422766       3.37979586       6.94767858      -0.00305659       0.00432378       0.00529346
F        2.47422728       3.37979503       4.28548820      -0.00305697       0.00432262      -0.00529456
F        4.01124422       1.20612590       6.94767859       0.00305715      -0.00432202       0.00529450
