9
Lattice="4.975186649723212 1.0022067282481482e-07 2.8724256454967483 1.658395624229782 4.690651596196235 2.872425680426855 -4.2006927294811194e-08 1.3077150025308473e-08 5.744851363751664" Properties=species:S:1:pos:R:3:forces:R:3 energy=-27.76202964782715 free_energy=-27.76202964782715 stress="0.00039391679456457496 -7.893581344120548e-10 2.146856914464479e-08 -7.893581344120548e-10 0.0003938108857255429 -1.647100944524027e-08 2.146856914464479e-08 -1.647100944524027e-08 0.00039381009992212057" pbc="T T T"
Cd       1.65839500       1.17266342       2.87242544      -0.00000247       0.00000197      -0.00000139
Cd       4.97518736       3.51798845       8.61727702       0.00000285      -0.00000139      -0.00000028
Au       0.00000006      -0.00000015       0.00000009       0.00000141       0.00000868      -0.00000736
F        1.71942188       1.21581523       5.74485147      -0.00745726      -0.00527201       0.00000056
F        4.91416051       3.47483661       5.74485125       0.00745150       0.00526831      -0.00000065
F        4.11547594       1.21581501       4.36148933       0.00372853      -0.00527041      -0.00645366
F        2.51810622       3.47483619       7.12821340      -0.00372871       0.00527106       0.00645472
F        2.51810588       3.47483625       4.36148900      -0.00372634       0.00526648      -0.00645152
F        4.11547604       1.21581568       7.12821378       0.00373051      -0.00527269       0.00645942
