9
Lattice="5.534765440932362 1.1632956078757081e-07 3.195498202167771 1.844921799083611 5.218227182705232 3.1954984173525225 -1.4625689911426357e-07 1.601272351948436e-07 6.390996657659856" Properties=species:S:1:pos:R:3:forces:R:3 energy=-22.369295120239258 free_energy=-22.369295120239258 stress="-0.0003006567421834916 2.6362730665141498e-08 -8.602929035816942e-09 2.6362730665141498e-08 -0.0003005879698321223 4.334650860471356e-09 -8.602929035816942e-09 4.334650860471356e-09 -0.0003005904727615416" pbc="T T T"
Cd       1.84492188       1.30455726       3.19549913      -0.00000200       0.00000143       0.00000243
Cd       5.53476421       3.91367234       9.58649459      -0.00000155       0.00000685      -0.00000137
Be      -0.00000011      -0.00000019      -0.00000006       0.00000045      -0.00000013      -0.00000075
Cl       1.80164903       1.27395817       6.39099705       0.00251889       0.00177646      -0.00000468
Cl       5.57803858       3.94426811       6.39099733      -0.00251792      -0.00177911      -0.00000039
Cl       4.63394137       1.27395787       4.75577229      -0.00126315       0.00178093       0.00217941
Cl       2.74574597       3.94426844       8.02622068       0.00125924      -0.00177754      -0.00217874
Cl       2.74574644       3.94426944       4.75577208       0.00126428      -0.00178429       0.00218116
Cl       4.63394088       1.27395837       8.02622011      -0.00125811       0.00177494      -0.00217682
