9
Lattice="6.061361291757084 -1.7821331052093612e-08 3.4995286395495224 2.0204537728641796 5.714706032482307 3.49952859495387 -2.030161106482086e-08 -6.897361402742997e-08 6.99905731426245" Properties=species:S:1:pos:R:3:forces:R:3 energy=-19.014892578125 free_energy=-19.014892578125 stress="-2.4734499675105326e-05 -3.207695442597469e-09 9.749977714079705e-09 -3.207695442597469e-09 -2.4760352971497923e-05 1.8305555959940989e-09 9.749977714079705e-09 1.8305555959940989e-09 -2.475863220752217e-05" pbc="T T T"
Cd       2.02045384       1.42867687       3.49952835       0.00000027       0.00000027      -0.00000048
Cd       6.06136122       4.28602971      10.49858619       0.00000042       0.00000129       0.00000170
Be       0.00000000      -0.00000013       0.00000012       0.00000015       0.00000054       0.00000001
Br       1.97507651       1.39658952       6.99905709       0.00062108       0.00043947       0.00000025
Br       6.10673850       4.31811617       6.99905721      -0.00062217      -0.00044039       0.00000013
Br       5.07382309       1.39658994       5.20999513      -0.00031029       0.00043998       0.00053734
Br       3.00799186       4.31811617       8.78811953       0.00031092      -0.00044104      -0.00053830
Br       3.00799208       4.31811601       5.20999529       0.00031065      -0.00044017       0.00053781
Br       5.07382310       1.39658950       8.78811933      -0.00031114       0.00044018      -0.00053839
