9
Lattice="4.424883448173055 -9.342899314758117e-08 2.554707731524132 1.4749611277674788 4.171819966641742 2.5547076164083227 -1.1504873561023541e-08 -1.4912265041235118e-07 5.109415482975291" Properties=species:S:1:pos:R:3:forces:R:3 energy=-37.227882385253906 free_energy=-37.227882385253906 stress="-3.6607394577004015e-05 -4.2252548126953116e-08 -1.2755252853935417e-08 -4.2252548126953116e-08 -3.660217407741584e-05 -2.4263979714334027e-09 -1.2755252853935417e-08 -2.4263979714334027e-09 -3.6672518035629764e-05" pbc="T T T"
Cd       1.47496119       1.04295484       2.55470763      -0.00000010      -0.00000008       0.00000006
Cd       4.42488355       3.12886462       7.66412318      -0.00000007      -0.00000028      -0.00000066
Be      -0.00000019      -0.00000016      -0.00000010       0.00000102       0.00000035       0.00000119
F        1.40846156       0.99593222       5.10941536      -0.00012815      -0.00008684      -0.00000042
F        4.49138327       3.17588753       5.10941571       0.00012529       0.00008649      -0.00000123
F        3.72065260       0.99593217       3.77447097       0.00006327      -0.00008693      -0.00010920
F        2.17919179       3.17588765       6.44435979      -0.00006333       0.00008795       0.00010735
F        2.17919184       3.17588757       3.77447079      -0.00006208       0.00008613      -0.00010765
F        3.72065262       0.99593219       6.44435976       0.00006357      -0.00008711       0.00010961
