9
Lattice="6.685030499396625 3.6229993851996436e-08 3.859604152342591 2.2283435617876726 6.302707024365282 3.8596041041381652 -1.845491392186187e-09 -6.034316037241646e-08 7.719208307881632" Properties=species:S:1:pos:R:3:forces:R:3 energy=-15.794551849365234 free_energy=-15.794551849365234 stress="6.063914497644873e-06 -3.3742747485021596e-10 2.6733744107332313e-09 -3.3742747485021596e-10 6.0550378293555696e-06 -6.323642054439915e-09 2.6733744107332313e-09 -6.323642054439915e-09 6.058015969756525e-06" pbc="T T T"
Cd       2.22834327       1.57567741       3.85960410       0.00000003       0.00000053       0.00000005
Cd       6.68503047       4.72702982      11.57881221      -0.00000007      -0.00000016      -0.00000022
Be       0.00000022      -0.00000010       0.00000035      -0.00000029      -0.00000006      -0.00000167
I        2.13362831       1.50870291       7.71920813      -0.00463456      -0.00327743      -0.00000025
I        6.77974575       4.79400385       7.71920828       0.00463556       0.00327799      -0.00000029
I        5.61821646       1.50870287       5.70738051       0.00231722      -0.00327694      -0.00401365
I        3.29515781       4.79400381       9.73103626      -0.00231846       0.00327796       0.00401470
I        3.29515762       4.79400407       5.70738050      -0.00231781       0.00327694      -0.00401359
I        5.61821635       1.50870334       9.73103589       0.00231828      -0.00327871       0.00401493
