9
Lattice="4.362717106624535 -5.959386361234361e-08 2.518815926727625 1.4542389973077776 4.113209111301421 2.5188158956340647 5.845003631328917e-08 3.248731866862865e-09 5.037631752216813" Properties=species:S:1:pos:R:3:forces:R:3 energy=-32.97159957885742 free_energy=-32.97159957885742 stress="-3.679872315842658e-05 -1.1592396731430199e-07 1.0134002081940707e-07 -1.1592396731430199e-07 -3.6799294321099296e-05 -1.581443243026115e-08 1.0134002081940707e-07 -1.581443243026115e-08 -3.705581184476614e-05" pbc="T T T"
Cd       1.45423876       1.02830228       2.51881595      -0.00000055       0.00000004       0.00000146
Cd       4.36271717       3.08490662       7.55644754      -0.00000012       0.00000260       0.00000261
C        0.00000002       0.00000063       0.00000097      -0.00000483      -0.00000812      -0.00001056
F        1.27888638       0.90430901       5.03763189       0.00036842       0.00026268       0.00000127
F        4.53807012       3.20890027       5.03763173      -0.00037742      -0.00026762       0.00000588
F        3.72327410       0.90430846       3.62636291      -0.00018004       0.00026038       0.00033131
F        2.09368213       3.20889989       6.44889977       0.00019199      -0.00026277      -0.00033006
F        2.09368222       3.20889984       3.62636356       0.00018302      -0.00025424       0.00032669
F        3.72327367       0.90430907       6.44890001      -0.00018057       0.00026745      -0.00032938
