9
Lattice="6.112900763986972 -9.606644208850628e-08 3.5292853365955046 2.0376335403687116 5.763298021510013 3.5292852622118702 2.4000473531097687e-07 7.860801741325364e-08 7.058570257490616" Properties=species:S:1:pos:R:3:forces:R:3 energy=-22.668956756591797 free_energy=-22.668956756591797 stress="0.0002168276405427605 -1.5546955722811617e-08 7.771613574902858e-09 -1.5546955722811617e-08 0.00021683871455024928 -1.597919663254288e-08 7.771613574902858e-09 -1.597919663254288e-08 0.00021685064712073654" pbc="T T T"
Cd       2.03763284       1.44082460       3.52928460      -0.00000352      -0.00000042       0.00000055
Cd       6.11290117       4.32247364      10.58785645       0.00000186       0.00000050       0.00000182
Ca       0.00000027       0.00000059      -0.00000010      -0.00000651      -0.00000473       0.00000059
Cl       2.12383515       1.50177861       7.05857042      -0.00479238      -0.00338878       0.00000133
Cl       6.02669863       4.26151917       7.05857066       0.00480199       0.00339444      -0.00000067
Cl       5.05098317       1.50177868       5.36858142       0.00239876      -0.00339244      -0.00415574
Cl       3.09955135       4.26151990       8.74855920      -0.00239959       0.00339201       0.00415449
Cl       3.09955178       4.26151885       5.36858132      -0.00239937       0.00339410      -0.00415775
Cl       5.05098385       1.50177803       8.74855938       0.00239876      -0.00339462       0.00415533
