9
Lattice="4.647209318359999 6.120845008002958e-08 2.6830675227990293 1.5490697850553634 4.381431024669051 2.683067601501955 -7.756203433092031e-08 4.154637027711406e-08 5.366135179939405" Properties=species:S:1:pos:R:3:forces:R:3 energy=-31.70945167541504 free_energy=-31.70945167541504 stress="0.0002492629864718765 -4.6394466046706384e-10 2.0983316417755304e-08 -4.6394466046706384e-10 0.00024927736376412213 6.061796398171282e-09 2.0983316417755304e-08 6.061796398171282e-09 0.0002492565254215151" pbc="T T T"
Cd       1.54907011       1.09535758       2.68306701       0.00000015      -0.00000106      -0.00000112
Cd       4.64720969       3.28607293       8.04920238       0.00000123      -0.00000226      -0.00000395
Cu      -0.00000014      -0.00000051      -0.00000058       0.00000465       0.00000960       0.00001069
F        1.57094191       1.11082416       5.36613533      -0.00680196      -0.00481041       0.00000130
F        4.62533713       3.27060758       5.36613557       0.00679377       0.00480624       0.00000157
F        3.86173824       1.11082394       4.04354337       0.00340138      -0.00481042      -0.00589079
F        2.33454039       3.27060744       6.68872743      -0.00339691       0.00480410       0.00588313
F        2.33454034       3.27060715       4.04354346      -0.00340001       0.00480863      -0.00588769
F        3.86173836       1.11082421       6.68872719       0.00339794      -0.00480449       0.00588667
