9
Lattice="6.145825959226953 4.216448529085025e-08 3.548294228227762 2.0486086778366572 5.794340274005692 3.548294254194791 3.0700471374667365e-09 3.397384973591083e-08 7.096588451138048" Properties=species:S:1:pos:R:3:forces:R:3 energy=-17.572206497192383 free_energy=-17.572206497192383 stress="-2.2442043700721115e-05 1.9994095268316414e-09 1.3685306221589144e-09 1.9994095268316414e-09 -2.2433934645960107e-05 -5.402713276758675e-10 1.3685306221589144e-09 -5.402713276758675e-10 -2.2429629098041914e-05" pbc="T T T"
Cd       2.04860851       1.44858536       3.54829416      -0.00000090       0.00000080      -0.00000048
Cd       6.14582604       4.34575502      10.64488254       0.00000025       0.00000028      -0.00000101
Cu       0.00000015      -0.00000002       0.00000020      -0.00000119      -0.00000026      -0.00000091
Br       2.04050254       1.44285350       7.09658847      -0.00087665      -0.00061987      -0.00000025
Br       6.15393212       4.35148679       7.09658846       0.00087793       0.00061974       0.00000035
Br       5.12557455       1.44285325       5.31542135       0.00043751      -0.00062017      -0.00075974
Br       3.06886005       4.35148718       8.87775557      -0.00043795       0.00062019       0.00076057
Br       3.06885998       4.35148710       5.31542137      -0.00043771       0.00061925      -0.00075929
Br       5.12557463       1.44285322       8.87775563       0.00043868      -0.00061989       0.00076070
