9
Lattice="5.760869126662444 -5.8120123304296834e-08 3.3260394179610233 1.920289716085152 5.43139985240678 3.3260393105844197 -2.1686447711949115e-08 -1.468435819675913e-07 6.652078873484068" Properties=species:S:1:pos:R:3:forces:R:3 energy=-20.13538932800293 free_energy=-20.13538932800293 stress="-6.8934791670471895e-06 2.6993554058662994e-08 -1.8869551254852013e-08 2.6993554058662994e-08 -6.871544883324532e-06 -2.555905886936216e-08 -1.8869551254852013e-08 -2.555905886936216e-08 -6.889067208248889e-06" pbc="T T T"
Cd       1.92028888       1.35785012       3.32603980      -0.00000313       0.00000271       0.00000172
Cd       5.76086914       4.07354967       9.97811786      -0.00000114      -0.00000073      -0.00000201
Cu      -0.00000007       0.00000017      -0.00000011      -0.00000108      -0.00000093      -0.00000153
Cl       1.90325899       1.34580759       6.65207853      -0.00378883      -0.00268093       0.00000044
Cl       5.77789995       4.08559193       6.65207895       0.00379160       0.00268233       0.00000018
Cl       4.80923972       1.34580732       4.97430987       0.00189638      -0.00267994      -0.00328168
Cl       2.87191924       4.08559163       8.32984801      -0.00189561       0.00268021       0.00328133
Cl       2.87191924       4.08559200       4.97431006      -0.00189452       0.00267974      -0.00328135
Cl       4.80924014       1.34580818       8.32984762       0.00189653      -0.00268263       0.00328353
