9
Lattice="6.626303941043075 -5.6353996332506564e-08 3.825698545702156 2.208767963959498 6.247339297996123 3.8256984820618327 3.618704308969981e-08 -5.235520417936112e-08 7.651397028726467" Properties=species:S:1:pos:R:3:forces:R:3 energy=-15.351776123046875 free_energy=-15.351776123046875 stress="-6.613082223339006e-05 9.764373753995415e-10 -3.2303073549400096e-09 9.764373753995415e-10 -6.613611185457557e-05 2.157361789212331e-10 -3.2303073549400096e-09 2.157361789212331e-10 -6.614288577111438e-05" pbc="T T T"
Cd       2.20876773       1.56183538       3.82569857      -0.00000006       0.00000040      -0.00000009
Cd       6.62630402       4.68550452      11.47709616       0.00000001       0.00000048       0.00000147
C        0.00000009       0.00000008       0.00000046      -0.00000004       0.00000072       0.00000041
I        2.17854978       1.54046739       7.65139699       0.00384918       0.00272208       0.00000033
I        6.65652200       4.70687183       7.65139670      -0.00384966      -0.00272298      -0.00000044
I        5.53702901       1.54046708       5.71237794      -0.00192417       0.00272188       0.00333375
I        3.29804306       4.70687167       9.59041577       0.00192474      -0.00272220      -0.00333405
I        3.29804309       4.70687156       5.71237790       0.00192478      -0.00272200       0.00333315
I        5.53702890       1.54046721       9.59041576      -0.00192475       0.00272173      -0.00333446
