9
Lattice="6.013776543926934 9.301796203365811e-08 3.472055349094418 2.00459217897981 5.669842767384935 3.4720555050263315 2.8907909958971227e-08 2.1141782712429118e-07 6.944110648118866" Properties=species:S:1:pos:R:3:forces:R:3 energy=-28.70595932006836 free_energy=-28.70595932006836 stress="3.310294050606899e-05 1.273990468675379e-09 -3.3986637504312966e-08 1.273990468675379e-09 3.3096315746661276e-05 2.4580986135447347e-08 -3.3986637504312966e-08 2.4580986135447347e-08 3.31107949023135e-05" pbc="T T T"
Cd       2.00459233       1.41746091       3.47205462       0.00000054      -0.00000077      -0.00000176
Cd       6.01377630       4.25238200      10.41616437       0.00000011      -0.00000080      -0.00000436
Cr      -0.00000041       0.00000040      -0.00000006       0.00000624      -0.00000785       0.00000109
Cl       1.89862505       1.34253084       6.94411079      -0.00021857      -0.00015617       0.00000127
Cl       6.11974337       4.32731252       6.94411157       0.00022149       0.00015505       0.00000134
Cl       5.06446405       1.34253051       5.11631321       0.00010900      -0.00015382      -0.00018738
Cl       2.95390489       4.32731221       8.77190823      -0.00011285       0.00015798       0.00019829
Cl       2.95390461       4.32731261       5.11631367      -0.00011132       0.00015621      -0.00019325
Cl       5.06446487       1.34253031       8.77190968       0.00010544      -0.00014990       0.00018458
