9
Lattice="6.318139402470708 1.8949767426117724e-07 3.6477794922205686 2.106046621762685 5.956798971827057 3.6477795344612916 -7.108647326171878e-11 5.168382235625703e-08 7.2955589845643125" Properties=species:S:1:pos:R:3:forces:R:3 energy=-25.633272171020508 free_energy=-25.633272171020508 stress="8.93770411494188e-05 9.918619703341847e-09 -9.18987275166927e-10 9.918619703341847e-09 8.936391532188281e-05 3.48915607517597e-09 -9.18987275166927e-10 3.48915607517597e-09 8.936007361626253e-05" pbc="T T T"
Cd       2.10604657       1.48919984       3.64777931      -0.00000004       0.00000015      -0.00000011
Cd       6.31813958       4.46759943      10.94333847       0.00000002      -0.00000004       0.00000002
Cr      -0.00000002      -0.00000051      -0.00000019      -0.00000195       0.00000417      -0.00000005
Br       2.01960489       1.42807643       7.29555903       0.00128801       0.00090987       0.00000015
Br       6.40458111       4.52872294       7.29555917      -0.00128694      -0.00091047       0.00000018
Br       5.30833726       1.42807657       5.39680860      -0.00064400       0.00090986       0.00111505
Br       3.11584891       4.52872298       9.19430937       0.00064467      -0.00091209      -0.00111639
Br       3.11584871       4.52872293       5.39680862       0.00064444      -0.00091230       0.00111714
Br       5.30833715       1.42807615       9.19430966      -0.00064424       0.00091084      -0.00111605
