9
Lattice="6.195527750068456 2.533501333004978e-08 3.5769896894573385 2.0651759384899258 5.841199584722498 3.5769896930698377 4.270193937330608e-08 3.4619208076739267e-08 7.1539793049527844" Properties=species:S:1:pos:R:3:forces:R:3 energy=-20.942584991455078 free_energy=-20.942584991455078 stress="0.00012140977196395397 1.0598127708760785e-08 8.839234233448678e-09 1.0598127708760785e-08 0.00012141920888097957 5.47207212875378e-09 8.839234233448678e-09 5.47207212875378e-09 0.00012142237392254174" pbc="T T T"
Cd       2.06517586       1.46030059       3.57698987      -0.00000069       0.00000021       0.00000064
Cd       6.19552778       4.38089976      10.73096987       0.00000035       0.00000083       0.00000144
Co       0.00000012      -0.00000017       0.00000040      -0.00000107       0.00000006      -0.00000153
Br       2.02023468       1.42852151       7.15397914      -0.00455587      -0.00322285      -0.00000029
Br       6.24046911       4.41267798       7.15397906       0.00455701       0.00322270       0.00000045
Br       5.18541046       1.42852179       5.32656421       0.00227742      -0.00322204      -0.00394648
Br       3.07529316       4.41267776       8.98139407      -0.00227751       0.00322194       0.00394635
Br       3.07529342       4.41267764       5.32656414      -0.00227781       0.00322133      -0.00394701
Br       5.18541031       1.42852179       8.98139403       0.00227819      -0.00322227       0.00394663
