9
Lattice="4.61086307178027 4.742611466427336e-08 2.6620829788851075 1.5369544073790635 4.3471632908445175 2.6620829695229844 3.940136699289289e-09 -8.680069816160346e-09 5.324165950945654" Properties=species:S:1:pos:R:3:forces:R:3 energy=-34.93123245239258 free_energy=-34.93123245239258 stress="-4.208109021419659e-05 8.246490068586354e-08 -9.700168668302922e-09 8.246490068586354e-08 -4.2164108890574425e-05 1.945073080378279e-08 -9.700168668302922e-09 1.945073080378279e-08 -4.222093048156239e-05" pbc="T T T"
Cd       1.53695413       1.08679058       2.66208342      -0.00000023      -0.00000163       0.00000157
Cd       4.61086297       3.26037260       7.98624938      -0.00000093       0.00000084       0.00000149
Co       0.00000006      -0.00000012      -0.00000027      -0.00000032       0.00000483       0.00000794
F        1.52553891       1.07871863       5.32416591      -0.00074250      -0.00052380      -0.00000152
F        4.62227863       3.26844447       5.32416577       0.00074243       0.00052380      -0.00000083
F        3.84809370       1.07871876       3.98323803       0.00036979      -0.00052269      -0.00064300
F        2.29972385       3.26844487       6.66509366      -0.00036798       0.00051834       0.00063597
F        2.29972380       3.26844517       3.98323814      -0.00036968       0.00052189      -0.00063808
F        3.84809388       1.07871830       6.66509362       0.00036953      -0.00052171       0.00063656
