9
Lattice="6.65078809374913 -4.3964794891494875e-08 3.8398343327322686 2.2169293163605124 6.270423339732341 3.839834344461874 -6.211813002649013e-08 -2.9558368911378266e-08 7.679668773056246" Properties=species:S:1:pos:R:3:forces:R:3 energy=-18.08988380432129 free_energy=-18.08988380432129 stress="0.0001257155672647059 -1.2709695518253739e-09 1.0345243550702321e-09 -1.2709695518253739e-09 0.00012571811384987086 -4.335434233837532e-09 1.0345243550702321e-09 -4.335434233837532e-09 0.00012570906255859882" pbc="T T T"
Cd       2.21692922       1.56760563       3.83983419      -0.00000040      -0.00000065      -0.00000004
Cd       6.65078821       4.70281771      11.51950359       0.00000065       0.00000039       0.00000095
Co       0.00000012       0.00000004      -0.00000032      -0.00000104      -0.00000035      -0.00000017
I        2.17828118       1.54027747       7.67966882      -0.00325745      -0.00230364       0.00000021
I        6.68943607       4.73014569       7.67966859       0.00325900       0.00230414      -0.00000088
I        5.56164762       1.54027758       5.72628136       0.00162897      -0.00230396      -0.00282164
I        3.30606953       4.73014584       9.63305610      -0.00162914       0.00230434       0.00282186
I        3.30606998       4.73014583       5.72628148      -0.00162932       0.00230454      -0.00282177
I        5.56164745       1.54027729       9.63305600       0.00162882      -0.00230469       0.00282134
