9
Lattice="6.8616505723021834 -3.3800739256597943e-07 3.9615761629161934 2.287216558292289 6.469226213870173 3.9615761290812728 2.101757601078361e-08 -2.6577523933798233e-08 7.923152289428898" Properties=species:S:1:pos:R:3:forces:R:3 energy=-22.23311424255371 free_energy=-22.23311424255371 stress="5.658165173372254e-05 -3.301635231878208e-08 6.823047904447321e-09 -3.301635231878208e-08 5.661607792717405e-05 -4.036364575910056e-09 6.823047904447321e-09 -4.036364575910056e-09 5.6629465689184144e-05" pbc="T T T"
Cd       2.28721687       1.61730660       3.96157640       0.00000011       0.00000083       0.00000034
Cd       6.86165038       4.85191922      11.88472810       0.00000018      -0.00000023      -0.00000029
Cr      -0.00000103      -0.00000004      -0.00000000       0.00000849       0.00000358      -0.00000079
I        2.19178005       1.54982257       7.92315224      -0.00232690      -0.00164502      -0.00000002
I        6.95708828       4.91940354       7.92315243       0.00231661       0.00163968       0.00000033
I        5.76576005       1.54982279       5.85971410       0.00116260      -0.00164424      -0.00201376
I        3.38310698       4.91940324       9.98659093      -0.00116210       0.00164524       0.00201309
I        3.38310699       4.91940291       5.85971353      -0.00116226       0.00164505      -0.00201333
I        5.76576005       1.54982258       9.98659063       0.00116327      -0.00164491       0.00201443
