9
Lattice="6.536146867443582 1.0465415143724693e-07 3.7736461184325956 2.178715718178277 6.162338215171839 3.773646123579956 9.015831379315388e-09 1.2679332297741205e-08 7.547292221249289" Properties=species:S:1:pos:R:3:forces:R:3 energy=-19.927963256835938 free_energy=-19.927963256835938 stress="0.00012506870552897453 2.1859538179569427e-08 3.641628110173656e-09 2.1859538179569427e-08 0.00012508247164078057 -3.403111570321471e-09 3.641628110173656e-09 -3.403111570321471e-09 0.00012508923828136176" pbc="T T T"
Cd       2.17871584       1.54058423       3.77364588       0.00000088      -0.00000199       0.00000012
Cd       6.53614655       4.62175372      11.32093815      -0.00000053       0.00000024      -0.00000014
Ca       0.00000016      -0.00000002      -0.00000100      -0.00000088       0.00000071       0.00000939
Br       2.28873175       1.61837770       7.54729182      -0.00346993      -0.00245376      -0.00000042
Br       6.42613082       4.54396086       7.54729194       0.00346955       0.00245457       0.00000037
Br       5.39178092       1.61837784       5.75574588       0.00173596      -0.00245570      -0.00300562
Br       3.32308120       4.54396140       9.33883957      -0.00173147       0.00244951       0.00300067
Br       3.32308178       4.54396053       5.75574605      -0.00173566       0.00245631      -0.00300547
Br       5.39178141       1.61837708       9.33883957       0.00173211      -0.00244993       0.00300123
