9
Lattice="6.631096736540473 3.671150890517956e-08 3.828465425179662 2.2103656677917196 6.251857723178041 3.828465331072367 4.394656457031001e-08 -8.418257419977273e-08 7.65693077424162" Properties=species:S:1:pos:R:3:forces:R:3 energy=-15.003360748291016 free_energy=-15.003360748291016 stress="-6.400300480891019e-05 9.343475992906747e-11 -5.212996700976191e-09 9.343475992906747e-11 -6.399328412953764e-05 2.3846993268961114e-09 -5.212996700976191e-09 2.3846993268961114e-09 -6.40047510387376e-05" pbc="T T T"
Cd       2.21036533       1.56296539       3.82846522      -0.00000066       0.00000178      -0.00000055
Cd       6.63109707       4.68889287      11.48539547       0.00000027      -0.00000084      -0.00000130
Cu      -0.00000007      -0.00000001      -0.00000004      -0.00000027       0.00000037      -0.00000012
I        2.22692991       1.57467760       7.65693073       0.00095891       0.00067872       0.00000010
I        6.61453277       4.67718022       7.65693110      -0.00096039      -0.00067886       0.00000094
I        5.51763210       1.57467723       5.75704313      -0.00047936       0.00067855       0.00083056
I        3.32383043       4.67717991       9.55681854       0.00048049      -0.00067927      -0.00083045
I        3.32383012       4.67718022       5.75704356       0.00047996      -0.00067875       0.00083189
I        5.51763210       1.57467727       9.55681845      -0.00047895       0.00067831      -0.00083102
