9
Lattice="4.8201067465450045 8.053018139162012e-10 2.7828898491833063 1.6067022401042614 4.544440298825139 2.7828898656436523 -5.322199445381894e-08 -1.7473963160241504e-08 5.565779790549842" Properties=species:S:1:pos:R:3:forces:R:3 energy=-33.721435546875 free_energy=-33.721435546875 stress="0.0002973135851789266 7.656603173700205e-08 3.904502676732591e-08 7.656603173700205e-08 0.00029729725793004036 1.4610544774029677e-08 3.904502676732591e-08 1.4610544774029677e-08 0.00029735409771092236" pbc="T T T"
Cd       1.60670124       1.13611061       2.78288892      -0.00000316       0.00000537      -0.00000512
Cd       4.82010661       3.40833009       8.34866803      -0.00000313      -0.00000187      -0.00001142
Ca      -0.00000000      -0.00000002      -0.00000043      -0.00000242       0.00000332       0.00001457
F        1.70654916       1.20671241       5.56578004      -0.00341241      -0.00241377       0.00000555
F        4.72026012       3.33772745       5.56578071       0.00341405       0.00241231       0.00000430
F        3.96683218       1.20671243       4.26080510       0.00171114      -0.00241771      -0.00295668
F        2.45997715       3.33772747       6.87075546      -0.00170025       0.00240424       0.00295183
F        2.45997640       3.33772758       4.26080511      -0.00170993       0.00241559      -0.00295506
F        3.96683285       1.20671311       6.87075504       0.00170575      -0.00240737       0.00295134
