9
Lattice="7.191781944369323 -3.654117019721041e-08 4.1521773792500705 2.397260699960059 6.780476877574998 4.1521772297941215 1.1551777278305002e-07 -1.0136186223420259e-07 8.304354558417437" Properties=species:S:1:pos:R:3:forces:R:3 energy=-17.270009994506836 free_energy=-17.270009994506836 stress="-4.7936067858245224e-05 1.29801085435588e-08 2.5536717629393024e-08 1.29801085435588e-08 -4.79640148114413e-05 -2.430242140860628e-08 2.5536717629393024e-08 -2.430242140860628e-08 -4.796198118128814e-05" pbc="T T T"
Cd       2.39726123       1.69511974       4.15217763       0.00000045       0.00000019       0.00000041
Cd       7.19178186       5.08535731      12.45653174       0.00000070      -0.00000017      -0.00000003
Ca      -0.00000061      -0.00000090      -0.00000107       0.00000325       0.00000403       0.00000570
I        2.52749054       1.78720587       8.30435498      -0.00035770      -0.00024968      -0.00000007
I        7.06155313       4.99327191       8.30435329       0.00035252       0.00024619       0.00000064
I        5.92803669       1.78720584       6.34104870       0.00017778      -0.00024917      -0.00031044
I        3.66100524       4.99327150      10.26766153      -0.00017491       0.00024546       0.00030686
I        3.66100576       4.99327117       6.34104865      -0.00017939       0.00025253      -0.00030644
I        5.92803721       1.78720452      10.26766123       0.00017735      -0.00024930       0.00030340
