9
Lattice="5.844527642519283 3.1143066687443514e-09 3.3743397121515586 1.9481759779621353 5.510273465158991 3.374339549016306 1.4370035534602438e-07 -9.818749961425172e-08 6.748679175406827" Properties=species:S:1:pos:R:3:forces:R:3 energy=-23.8554630279541 free_energy=-23.8554630279541 stress="3.5427424336376134e-06 1.7107043559505541e-09 1.4571571504973235e-08 1.7107043559505541e-09 3.548469294401002e-06 -5.029508365339552e-09 1.4571571504973235e-08 -5.029508365339552e-09 3.5472373838274507e-06" pbc="T T T"
Cd       1.94817702       1.37756914       3.37433952       0.00000251       0.00000232      -0.00000009
Cd       5.84452848       4.13270399      10.12302033       0.00000375      -0.00000318       0.00000422
Co      -0.00000062       0.00000004      -0.00000012       0.00000239       0.00000008      -0.00000397
Cl       1.85354094       1.31065190       6.74867953       0.00109845       0.00077899      -0.00000139
Cl       5.93916231       4.19962169       6.74867920      -0.00110076      -0.00077844      -0.00000275
Cl       4.91775718       1.31065090       4.97955335      -0.00055394       0.00078180       0.00095236
Cl       2.87494644       4.19962159       8.51780432       0.00054734      -0.00077619      -0.00095138
Cl       2.87494635       4.19962225       4.97955318       0.00055030      -0.00078133       0.00095239
Cl       4.91775706       1.31065171       8.51780440      -0.00055025       0.00077596      -0.00094905
