9
Lattice="5.809330807214935 5.468020302859557e-08 3.354018774179234 1.9364436444056319 5.477089837914085 3.3540187907243295 -4.3079074751237705e-08 -1.0197943063646391e-08 6.708037622973647" Properties=species:S:1:pos:R:3:forces:R:3 energy=-19.36773109436035 free_energy=-19.36773109436035 stress="-2.077624003504752e-06 1.0594118471374259e-08 4.464413283500335e-09 1.0594118471374259e-08 -2.1456760350702098e-06 -8.843181742435036e-10 4.464413283500335e-09 -8.843181742435036e-10 -2.1488876882358454e-06" pbc="T T T"
Cd       1.93644322       1.36927299       3.35401789      -0.00000120      -0.00000038      -0.00000265
Cd       5.80933032       4.10781699      10.06205588      -0.00000230      -0.00000018      -0.00000323
C        0.00000043       0.00000003      -0.00000062       0.00000072      -0.00000046      -0.00000226
Cl       1.89972026       1.34330463       6.70803801      -0.00581582      -0.00411214       0.00000275
Cl       5.84605425       4.13378511       6.70803744       0.00581899       0.00411294       0.00000164
Cl       4.85947069       1.34330508       4.99922546       0.00290802      -0.00411129      -0.00503670
Cl       2.88630386       4.13378462       8.41685070      -0.00290949       0.00411255       0.00503868
Cl       2.88630385       4.13378460       4.99922521      -0.00290877       0.00411242      -0.00503719
Cl       4.85947076       1.34330547       8.41685069       0.00290983      -0.00411351       0.00503901
