9
Lattice="4.827349402241648 1.1290361518502897e-07 2.787071670782795 1.6091165066508308 4.551269095610408 2.7870717871930397 3.9408420222046305e-08 1.7043889696604563e-07 5.574143273308111" Properties=species:S:1:pos:R:3:forces:R:3 energy=-39.10887145996094 free_energy=-39.10887145996094 stress="0.00029903167160227895 -1.6597414287389256e-07 7.484858599582367e-08 -1.6597414287389256e-07 0.0002991322544403374 -8.219456759661625e-08 7.484858599582367e-08 -8.219456759661625e-08 0.00029922451358288527" pbc="T T T"
Cd       1.60911552       1.13781743       2.78707214      -0.00000361       0.00000012       0.00000513
Cd       4.82734900       3.41345184       8.36121468      -0.00000366      -0.00000112      -0.00000118
Cr       0.00000014       0.00000006       0.00000039      -0.00000331       0.00000179      -0.00000928
F        1.57998235       1.11721611       5.57414278      -0.00344199      -0.00243473       0.00000061
F        4.85648339       3.43405287       5.57414331       0.00344664       0.00243665       0.00000167
F        4.03735788       1.11721707       4.15537698       0.00172727      -0.00244257      -0.00298896
F        2.39910846       3.43405325       6.99291017      -0.00172375       0.00244009       0.00298849
F        2.39910830       3.43405183       4.15537693      -0.00172998       0.00244504      -0.00299227
F        4.03735882       1.11721702       6.99290964       0.00173245      -0.00244537       0.00299568
