9
Lattice="5.929491318110476 -2.0892503396020082e-07 3.4233932129155087 1.9764969323896264 5.590377846052173 3.4233931725080624 -4.08320382686716e-08 -7.836141162580168e-08 6.846786496554207" Properties=species:S:1:pos:R:3:forces:R:3 energy=-25.79745101928711 free_energy=-25.79745101928711 stress="5.149493972567143e-06 -1.2578435182319936e-08 6.258218387955594e-09 -1.2578435182319936e-08 5.131175839778734e-06 -4.623794236380263e-09 6.258218387955594e-09 -4.623794236380263e-09 5.133949798619142e-06" pbc="T T T"
Cd       1.97649689       1.39759377       3.42339345       0.00000071      -0.00000166      -0.00000030
Cd       5.92949151       4.19278225      10.27017944       0.00000075      -0.00000226      -0.00000012
Fe      -0.00000018      -0.00000014       0.00000025       0.00000094       0.00000135      -0.00000656
Cl       1.84799373       1.30672952       6.84678622       0.00274494       0.00194161       0.00000021
Cl       6.05799430       4.28364928       6.84678577      -0.00274843      -0.00194231      -0.00000023
Cl       5.00549477       1.30672846       5.02380332      -0.00137533       0.00194579       0.00238153
Cl       2.90049408       4.28364824       8.66976999       0.00137231      -0.00193907      -0.00237706
Cl       2.90049361       4.28364889       5.02380322       0.00137468      -0.00194450       0.00237978
Cl       5.00549413       1.30672967       8.66976979      -0.00137061       0.00194080      -0.00237781
