9
Lattice="6.448983011060039 -1.1320743279113726e-07 3.723322873396997 2.14966108274995 6.080159313618743 3.7233225515884008 4.237649535699208e-07 -9.448631502585071e-08 7.446645012811328" Properties=species:S:1:pos:R:3:forces:R:3 energy=-23.44020652770996 free_energy=-23.44020652770996 stress="-0.000264390604570508 -3.68337964573584e-08 -6.3267067140770905e-09 -3.68337964573584e-08 -0.0002644229680299759 2.5636493816705297e-08 -6.3267067140770905e-09 2.5636493816705297e-08 -0.0002642500039655715" pbc="T T T"
Cd       2.14966217       1.52003835       3.72332276       0.00000040      -0.00000008       0.00000018
Cd       6.44898367       4.56011978      11.16996708       0.00000029       0.00000033       0.00000009
Fe      -0.00000013       0.00000001       0.00000066       0.00000483       0.00000939      -0.00000568
Br       1.85198909       1.30955258       7.44664465       0.00701068       0.00496018       0.00000112
Br       6.74665683       4.77060702       7.44664548      -0.00702916      -0.00497025       0.00000265
Br       5.52298880       1.30955244       5.32719323      -0.00350343       0.00496023       0.00606832
Br       3.07565411       4.77060672       9.56609813       0.00351129      -0.00496192      -0.00607093
Br       3.07565394       4.77060610       5.32719233       0.00351057      -0.00496265       0.00607355
Br       5.52298944       1.30955264       9.56609878      -0.00350558       0.00496489      -0.00606920
