9
Lattice="6.8035502886368695 5.482039512377611e-07 3.9280309590873532 2.267850679607307 6.414448489196673 3.9280308438307543 2.2288759510398694e-07 1.6445385920342143e-08 7.856061532122053" Properties=species:S:1:pos:R:3:forces:R:3 energy=-19.9461669921875 free_energy=-19.9461669921875 stress="-0.0002219092275481671 1.0806405725816148e-07 4.806053865991089e-08 1.0806405725816148e-07 -0.00022198213264346123 -4.3734083021718106e-08 4.806053865991089e-08 -4.3734083021718106e-08 -0.00022209115559235215" pbc="T T T"
Cd       2.26785020       1.60361256       3.92803095      -0.00000060      -0.00000064      -0.00000049
Cd       6.80355104       4.81083644      11.78409256      -0.00000083      -0.00000050      -0.00000021
Fe      -0.00000226      -0.00000191      -0.00000128       0.00005159       0.00004378       0.00002322
I        2.00616534       1.41857387       7.85606207       0.00038968       0.00027575      -0.00000320
I        7.06523877       4.99587723       7.85606182      -0.00044260      -0.00031230      -0.00000073
I        5.80046918       1.41857128       5.66541821      -0.00021486       0.00030172       0.00037009
I        3.27093186       4.99587706      10.04670588       0.00021927      -0.00030895      -0.00038303
I        3.27093277       4.99587774       5.66541796       0.00021176      -0.00030039       0.00036769
I        5.80046792       1.41857206      10.04670528      -0.00021345       0.00030139      -0.00037310
