9
Lattice="4.7214839758020375 -3.2855541193427275e-08 2.725949938493212 1.5738279453096138 4.451457689361365 2.72594996559607 -2.0609191267881833e-08 1.8621189456379045e-08 5.451899912682457" Properties=species:S:1:pos:R:3:forces:R:3 energy=-36.00060272216797 free_energy=-36.00060272216797 stress="0.0001426952367182821 6.61917525235367e-08 -1.6735254959598933e-08 6.61917525235367e-08 0.00014265457866713405 2.088481565465372e-08 -1.6735254959598933e-08 2.088481565465372e-08 0.00014255725545808673" pbc="T T T"
Cd       1.57382769       1.11286454       2.72595018      -0.00000031      -0.00000037       0.00000357
Cd       4.72148403       3.33859326       8.17785038      -0.00000076       0.00000068       0.00000188
Fe      -0.00000008      -0.00000024      -0.00000057      -0.00000387       0.00000783       0.00001887
F        1.57672387       1.11491222       5.45189915      -0.00157383      -0.00111139       0.00000005
F        4.71858777       3.33654506       5.45189978       0.00157524       0.00111346      -0.00000007
F        3.93312177       1.11491245       4.09143303       0.00078994      -0.00111785      -0.00136720
F        2.36218973       3.33654601       6.81236720      -0.00078151       0.00110271       0.00134936
F        2.36219036       3.33654548       4.09143272      -0.00078526       0.00111227      -0.00136049
F        3.93312241       1.11491188       6.81236753       0.00078039      -0.00110746       0.00135398
