9
Lattice="6.4134421514349915 -1.3834854531902083e-08 3.702802532987345 2.137814018513061 6.046651382259431 3.7028025657606594 1.0304772017950071e-08 4.742549535116946e-08 7.405605048126396" Properties=species:S:1:pos:R:3:forces:R:3 energy=-19.47112464904785 free_energy=-19.47112464904785 stress="0.0002411110617686063 1.9381170002219505e-09 -2.9703890458421256e-09 1.9381170002219505e-09 0.0002411024470347911 1.1130397048475515e-08 -2.9703890458421256e-09 1.1130397048475515e-08 0.00024109611695166677" pbc="T T T"
Cd       2.13781390       1.51166282       3.70280273      -0.00000003      -0.00000000       0.00000013
Cd       6.41344214       4.53498861      11.10840770      -0.00000019      -0.00000001       0.00000059
Ge      -0.00000002       0.00000063       0.00000024      -0.00000081      -0.00000452      -0.00000116
Br       2.04668313       1.44722363       7.40560506      -0.00107631      -0.00076182      -0.00000032
Br       6.50457258       4.59942731       7.40560505       0.00108142       0.00076422       0.00000032
Br       5.39010091       1.44722354       5.47528191       0.00053775      -0.00076216      -0.00093289
Br       3.16115586       4.59942760       9.33592780      -0.00054062       0.00076433       0.00093500
Br       3.16115567       4.59942768       5.47528215      -0.00054020       0.00076309      -0.00093448
Br       5.39010051       1.44722381       9.33592794       0.00053896      -0.00076324       0.00093276
