9
Lattice="6.876700393650929 6.388273010652518e-08 3.970264658185084 2.292233527586989 6.4834152637485944 3.970264653322406 -3.436373780496348e-08 -3.0254379793546733e-08 7.9405293758899775" Properties=species:S:1:pos:R:3:forces:R:3 energy=-16.42730140686035 free_energy=-16.42730140686035 stress="4.938267738907598e-05 1.6274329439625035e-08 5.745990350192187e-09 1.6274329439625035e-08 4.9368583859177306e-05 -1.0078983203598568e-09 5.745990350192187e-09 -1.0078983203598568e-09 4.935983815812506e-05" pbc="T T T"
Cd       2.29223312       1.62085352       3.97026443      -0.00000058      -0.00000105      -0.00000050
Cd       6.87670061       4.86256158      11.91079460       0.00000034       0.00000082       0.00000039
Ge      -0.00000016       0.00000008      -0.00000014       0.00000029       0.00000015      -0.00000033
I        2.36062590       1.66921447       7.94052953      -0.00108249      -0.00076556      -0.00000003
I        6.80830816       4.81420098       7.94052918       0.00108179       0.00076558       0.00000009
I        5.69638768       1.66921448       6.01462636       0.00054130      -0.00076510      -0.00093606
I        3.47254608       4.81420088       9.86643213      -0.00054109       0.00076495       0.00093600
I        3.47254640       4.81420113       6.01462620      -0.00054035       0.00076573      -0.00093630
I        5.69638772       1.66921408       9.86643237       0.00054076      -0.00076552       0.00093679
