9
Lattice="6.209681085350866 1.255964334352231e-07 3.5851608582203314 2.0698938819425057 5.8545437089611925 3.5851607397270744 1.804192832645024e-07 -1.7548316835680788e-08 7.170321403945346" Properties=species:S:1:pos:R:3:forces:R:3 energy=-23.05869483947754 free_energy=-23.05869483947754 stress="4.6755554649280384e-05 1.123084958365439e-09 1.2664712834009606e-08 1.123084958365439e-09 4.67737736471463e-05 -4.3078046019218164e-08 1.2664712834009606e-08 -4.3078046019218164e-08 4.674147567129694e-05" pbc="T T T"
Cd       2.06989548       1.46363984       3.58516104       0.00000137       0.00000344      -0.00000023
Cd       6.20968186       4.39090915      10.75548064       0.00000075       0.00000200      -0.00000137
Ge      -0.00000034      -0.00000052      -0.00000004      -0.00000207      -0.00000134       0.00000454
Cl       1.87891944       1.32859601       7.17032229       0.00232843       0.00164738       0.00000013
Cl       6.40065529       4.52594541       7.17032185      -0.00232553      -0.00164505      -0.00000052
Cl       5.27022047       1.32859639       5.21235288      -0.00116500       0.00164433       0.00201714
Cl       3.00935419       4.52594686       9.12828993       0.00116494      -0.00165006      -0.00201888
Cl       3.00935333       4.52594562       5.21235335       0.00116140      -0.00164445       0.00201367
Cl       5.27022086       1.32859652       9.12829010      -0.00116421       0.00164383      -0.00201429
