9
Lattice="4.583872596472589 -1.1517943615182111e-07 2.646500107573332 1.5279574421997186 4.321716449264104 2.6465000752975967 -3.7534304827985646e-08 -6.607028037679871e-08 5.293000280157964" Properties=species:S:1:pos:R:3:forces:R:3 energy=-33.88395690917969 free_energy=-33.88395690917969 stress="-1.5917117707431316e-05 -5.222584320563328e-08 9.073378492985285e-09 -5.222584320563328e-08 -1.5839405023143627e-05 3.1376380604797305e-08 9.073378492985285e-09 3.1376380604797305e-08 -1.5893390809651464e-05" pbc="T T T"
Cd       1.52795742       1.08042884       2.64650000       0.00000005      -0.00000038       0.00000025
Cd       4.58387243       3.24128739       7.93950033      -0.00000001      -0.00000024       0.00000040
Ge      -0.00000018      -0.00000013       0.00000026      -0.00000054       0.00000380      -0.00000964
F        1.52502865       1.07835785       5.29300024      -0.00021023      -0.00014779      -0.00000042
F        4.58680170       3.24335835       5.29300041       0.00020835       0.00014743      -0.00000034
F        3.82135810       1.07835817       3.96721390       0.00010644      -0.00014995      -0.00018394
F        2.29047213       3.24335780       6.61878660      -0.00010821       0.00015312       0.00018615
F        2.29047185       3.24335845       3.96721355      -0.00010420       0.00014757      -0.00018045
F        3.82135783       1.07835834       6.61878658       0.00010821      -0.00015351       0.00018781
