9
Lattice="4.995281803830983 9.901173529157107e-08 2.8840273134855203 1.6650940085232835 4.709596991198184 2.884027347150004 8.194473925026772e-08 9.917409254560025e-08 5.768054485038596" Properties=species:S:1:pos:R:3:forces:R:3 energy=-25.081029891967773 free_energy=-25.081029891967773 stress="0.0003823119914159179 -2.4498896245006563e-09 -3.8335230101438356e-08 -2.4498896245006563e-09 0.0003820671117864549 -4.812130782738677e-08 -3.8335230101438356e-08 -4.812130782738677e-08 0.0003821676946245134" pbc="T T T"
Cd       1.66509249       1.17740154       2.88402756      -0.00000753       0.00001282       0.00000229
Cd       4.99528178       3.53219729       8.65208384      -0.00000269      -0.00000411       0.00001094
Hg       0.00000003      -0.00000039       0.00000083       0.00000233       0.00000244      -0.00001331
F        1.76359686       1.24705149       5.76805437      -0.00758278      -0.00535998      -0.00000279
F        4.89677960       3.46254489       5.76805375       0.00758341       0.00535139      -0.00000574
F        4.11348484       1.24705108       4.41134505       0.00378761      -0.00534588      -0.00655487
F        2.54689183       3.46254619       7.12476306      -0.00379105       0.00535637       0.00656223
F        2.54689243       3.46254557       4.41134597      -0.00378531       0.00535044      -0.00656217
F        4.11348346       1.24705099       7.12476219       0.00379625      -0.00536352       0.00656337
