9
Lattice="6.408860654619796 -2.4239067503398277e-09 3.7001574328618942 2.1362868853930896 6.0423317830832675 3.7001574280032976 1.4413140351899631e-08 4.241040013597838e-09 7.400314840759478" Properties=species:S:1:pos:R:3:forces:R:3 energy=-13.898202896118164 free_energy=-13.898202896118164 stress="7.928096601972356e-05 2.606852733677556e-09 -1.881766742428681e-09 2.606852733677556e-09 7.931060099508613e-05 -3.0185423049999827e-09 -1.881766742428681e-09 -3.0185423049999827e-09 7.926530088298023e-05" pbc="T T T"
Cd       2.13628687       1.51058278       3.70015751      -0.00000010      -0.00000021       0.00000014
Cd       6.40886071       4.53174893      11.10047231       0.00000010      -0.00000013       0.00000018
Hg      -0.00000033      -0.00000018      -0.00000019       0.00000244      -0.00000129       0.00000066
Br       2.24457904       1.58715716       7.40031482      -0.00085172      -0.00060198       0.00000021
Br       6.30056863       4.45517484       7.40031487       0.00085035       0.00060166       0.00000001
Br       5.28657113       1.58715713       5.64401981       0.00042580      -0.00060138      -0.00073701
Br       3.25857636       4.45517485       9.15660990      -0.00042588       0.00060223       0.00073826
Br       3.25857649       4.45517465       5.64401990      -0.00042602       0.00060217      -0.00073853
Br       5.28657136       1.58715702       9.15660983       0.00042510      -0.00060098       0.00073636
