9
Lattice="6.101058695118183 -2.9001079480107223e-08 3.5224476145145074 2.0336862317268225 5.752133116789355 3.5224475671200013 2.470607096133498e-08 -4.057635384102285e-08 7.04489518623686" Properties=species:S:1:pos:R:3:forces:R:3 energy=-16.179378509521484 free_energy=-16.179378509521484 stress="0.0001168229355243966 7.913842026141538e-09 4.924265883943235e-09 7.913842026141538e-09 0.00011681029718602076 -2.199005866287962e-09 4.924265883943235e-09 -2.199005866287962e-09 0.00011681931209750473" pbc="T T T"
Cd       2.03368636       1.43803354       3.52244760      -0.00000061       0.00000007       0.00000010
Cd       6.10105870       4.31410015      10.56734282       0.00000019       0.00000186       0.00000006
Hg      -0.00000010      -0.00000017       0.00000120       0.00000095       0.00000075      -0.00001249
Cl       2.11830030       1.49786484       7.04489458      -0.00123957      -0.00087687      -0.00000184
Cl       6.01644484       4.25426797       7.04489440       0.00124028       0.00087509      -0.00000250
Cl       5.04190852       1.49786333       5.35694978       0.00061546      -0.00087285      -0.00106850
Cl       3.09283722       4.25426824       8.73284062      -0.00062184       0.00088057       0.00107816
Cl       3.09283640       4.25426921       5.35694960      -0.00061648       0.00087160      -0.00107047
Cl       5.04190759       1.49786504       8.73284086       0.00062165      -0.00088012       0.00107718
