9
Lattice="6.899253939738284 -4.0200699971441226e-08 3.9832861747550115 2.2997512820023736 6.504678969168578 3.9832861632232723 1.9801825606058716e-08 -1.2142528295515315e-10 7.966572315212271" Properties=species:S:1:pos:R:3:forces:R:3 energy=-11.555115699768066 free_energy=-11.555115699768066 stress="-0.00016129447612911463 5.5202149518152055e-09 1.404657279380217e-09 5.5202149518152055e-09 -0.00016128808783832937 1.4442116391677473e-09 1.404657279380217e-09 1.4442116391677473e-09 -0.00016129756113514304" pbc="T T T"
Cd       2.29975125       1.62616970       3.98328614      -0.00000004       0.00000024       0.00000005
Cd       6.89925398       4.87850931      11.94985844       0.00000011       0.00000007       0.00000008
Hg       0.00000002      -0.00000001      -0.00000006       0.00000020      -0.00000058       0.00000008
I        2.43114021       1.71907559       7.96657230      -0.00655454      -0.00463396      -0.00000014
I        6.76786497       4.78560320       7.96657234       0.00655448       0.00463401       0.00000012
I        5.68368386       1.71907574       6.08871548       0.00327741      -0.00463514      -0.00567637
I        3.51532142       4.78560322       9.84442926      -0.00327747       0.00463542       0.00567652
I        3.51532150       4.78560318       6.08871552      -0.00327747       0.00463566      -0.00567649
I        5.68368378       1.71907578       9.84442919       0.00327721      -0.00463569       0.00567615
