9
Lattice="6.140010928908565 -1.4633682090379403e-08 3.5449367639233142 2.04667027867514 5.788857778600169 3.5449367936527634 -4.3825550039750224e-08 5.4216760815898016e-09 7.089873603754679" Properties=species:S:1:pos:R:3:forces:R:3 energy=-21.689760208129883 free_energy=-21.689760208129883 stress="9.150863479590043e-05 -1.1295462343241525e-08 9.997476180245712e-10 -1.1295462343241525e-08 9.149849938694388e-05 1.0031004915589392e-09 9.997476180245712e-10 1.0031004915589392e-09 9.150647383648902e-05" pbc="T T T"
Cd       2.04667041       1.44721417       3.54493710       0.00000038      -0.00000040       0.00000098
Cd       6.14001089       4.34164273      10.63481093      -0.00000009      -0.00000158       0.00000164
In       0.00000024      -0.00000028       0.00000026      -0.00000343       0.00000550      -0.00000551
Cl       2.05229978       1.45119537       7.08987387      -0.00103226      -0.00072837      -0.00000082
Cl       6.13438103       4.33766303       7.08987344       0.00103122       0.00073124      -0.00000228
Cl       5.11386075       1.45119547       5.32228034       0.00051591      -0.00072984      -0.00089613
Cl       3.07282035       4.33766223       8.85746636      -0.00051750       0.00073124       0.00089371
Cl       3.07281990       4.33766264       5.32228007      -0.00051367       0.00072594      -0.00088906
Cl       5.11386127       1.45119575       8.85746620       0.00051937      -0.00073390       0.00089757
