9
Lattice="6.46447212436924 -1.1962143882575862e-08 3.7322647059447163 2.1548240306671547 6.094762708904996 3.732264705098156 -1.4747583283841639e-09 -2.0796494167091925e-09 7.464529414443793" Properties=species:S:1:pos:R:3:forces:R:3 energy=-18.651355743408203 free_energy=-18.651355743408203 stress="8.035155042307451e-05 -6.772201688320933e-10 4.008207099559513e-09 -6.772201688320933e-10 8.03576986072585e-05 -6.7268559611477485e-09 4.008207099559513e-09 -6.7268559611477485e-09 8.034320489969105e-05" pbc="T T T"
Cd       2.15482394       1.52369080       3.73226469       0.00000024       0.00000033       0.00000016
Cd       6.46447207       4.57107214      11.19679411      -0.00000006       0.00000013       0.00000023
In       0.00000001      -0.00000023       0.00000016       0.00000057       0.00000018      -0.00000195
Br       2.18916694       1.54797456       7.46452935      -0.00070232      -0.00049673      -0.00000032
Br       6.43012928       4.54678812       7.46452942       0.00070138       0.00049585      -0.00000036
Br       5.36988871       1.54797468       5.62813872       0.00035063      -0.00049484      -0.00060691
Br       3.24940746       4.54678793       9.30092007      -0.00035135       0.00049649       0.00060849
Br       3.24940743       4.54678797       5.62813885      -0.00035128       0.00049600      -0.00060783
Br       5.36988878       1.54797480       9.30092000       0.00035224      -0.00049742       0.00060850
