9
Lattice="5.1138402710404325 -2.22376845270714e-07 2.952477271293854 1.7046132823346836 4.821375020467819 2.952477152971531 1.1085500778163093e-07 -6.652843538010393e-08 5.90495435058138" Properties=species:S:1:pos:R:3:forces:R:3 energy=-32.395057678222656 free_energy=-32.395057678222656 stress="6.958805897738785e-05 3.555444827441079e-09 3.26188889232526e-08 3.555444827441079e-09 6.963152554817498e-05 2.1911407799279914e-08 3.26188889232526e-08 2.1911407799279914e-08 6.969751848373562e-05" pbc="T T T"
Cd       1.70461533       1.20534437       2.95247728       0.00000582       0.00000268       0.00000101
Cd       5.11383987       3.61603148       8.85742921       0.00000138       0.00000172      -0.00001125
In      -0.00000014      -0.00000029       0.00000019       0.00000185       0.00000093       0.00000885
F        1.70343956       1.20451396       5.90495431       0.00117017       0.00082734       0.00000092
F        5.11501400       3.61686001       5.90495541      -0.00117038      -0.00082727       0.00000488
F        4.26211930       1.20451325       4.42769954      -0.00058853       0.00082110       0.00100927
F        2.55633396       3.61686127       7.38220987       0.00058895      -0.00083041      -0.00101213
F        2.55633264       3.61686057       4.42769996       0.00058018      -0.00082591       0.00101055
F        4.26212030       1.20451379       7.38220985      -0.00058959       0.00082991      -0.00101204
