9
Lattice="6.997012145813823 -3.456851156981151e-08 4.039726831842119 2.332337294824042 6.596846470034062 4.039726926277707 -8.59494697237645e-08 5.488399164287955e-08 8.07945381255308" Properties=species:S:1:pos:R:3:forces:R:3 energy=-15.572518348693848 free_energy=-15.572518348693848 stress="0.00018766091670840979 -5.795723012624876e-09 -5.847911488388036e-09 -5.795723012624876e-09 0.0001876739988802001 2.9038462745489824e-09 -5.847911488388036e-09 2.9038462745489824e-09 0.0001876658934634179" pbc="T T T"
Cd       2.33233757       1.64921188       4.03972711       0.00000066       0.00000080       0.00000049
Cd       6.99701177       4.94763465      12.11918042      -0.00000028      -0.00000018      -0.00000025
In      -0.00000083       0.00000020      -0.00000065       0.00000507       0.00000012       0.00000553
I        2.37130270       1.67676451       8.07945375      -0.00497153      -0.00351562       0.00000059
I        6.95804726       4.92008259       8.07945388       0.00496669       0.00351234       0.00000035
I        5.81136054       1.67676440       6.09333496       0.00248618      -0.00351571      -0.00430441
I        3.51798849       4.92008206      10.06557260      -0.00248360       0.00351298       0.00430249
I        3.51798876       4.92008165       6.09333535      -0.00248641       0.00351688      -0.00430550
I        5.81136111       1.67676402      10.06557289       0.00248326      -0.00351171       0.00430079
