9
Lattice="5.820597501016695 3.5714392490722063e-08 3.360523577936148 1.9401991966138803 5.48771208107962 3.3605235849743993 2.0307850001361674e-09 1.0056051474922525e-08 6.72104715235486" Properties=species:S:1:pos:R:3:forces:R:3 energy=-21.713632583618164 free_energy=-21.713632583618164 stress="-0.000305288442177698 -8.521800154426273e-09 -1.721644693475355e-08 -8.521800154426273e-09 -0.00030540727311745286 -2.6793188112606003e-08 -1.721644693475355e-08 -2.6793188112606003e-08 -0.0003052681277040392" pbc="T T T"
Cd       1.94019915       1.37192792       3.36052354       0.00000121      -0.00000109      -0.00000101
Cd       5.82059768       4.11578393      10.08157094       0.00000029      -0.00000193       0.00000053
Mg       0.00000005       0.00000017       0.00000008      -0.00000188       0.00000037       0.00000017
Cl       1.95317361       1.38110231       6.72104711      -0.00784418      -0.00554723      -0.00000177
Cl       5.80762311       4.10660981       6.72104711       0.00784590       0.00554914      -0.00000143
Cl       4.84401073       1.38110230       5.05202148       0.00392184      -0.00554687      -0.00679151
Cl       2.91678589       4.10660983       8.39007269      -0.00392245       0.00554581       0.00679326
Cl       2.91678594       4.10660986       5.05202160      -0.00392288       0.00554819      -0.00679315
Cl       4.84401065       1.38110238       8.39007271       0.00392213      -0.00554638       0.00679500
