9
Lattice="6.406962706520637 7.917966040592047e-08 3.699061719883785 2.1356542942199925 6.040542641461494 3.6990617474897003 -3.701525306752764e-08 7.636500143953868e-09 7.398123503879817" Properties=species:S:1:pos:R:3:forces:R:3 energy=-24.7974910736084 free_energy=-24.7974910736084 stress="7.743485912214965e-05 -7.869456197795444e-09 -1.247967684747664e-08 -7.869456197795444e-09 7.745978655293584e-05 1.741153532464068e-08 -1.247967684747664e-08 1.741153532464068e-08 7.749725773464888e-05" pbc="T T T"
Cd       2.13565447       1.51013527       3.69906166       0.00000022      -0.00000057       0.00000004
Cd       6.40696260       4.53040686      11.09718624      -0.00000054       0.00000002       0.00000065
Mn      -0.00000005       0.00000013      -0.00000128      -0.00000051       0.00000238       0.00001915
Br       1.95667422       1.38357760       7.39812373       0.00159601       0.00112933      -0.00000214
Br       6.58594255       4.65696507       7.39812335      -0.00159463      -0.00112943      -0.00000113
Br       5.42862536       1.38357815       5.39359186      -0.00079467       0.00112456       0.00137622
Br       3.11399141       4.65696596       9.40265538       0.00079775      -0.00113138      -0.00138566
Br       3.11399180       4.65696477       5.39359163       0.00079528      -0.00112506       0.00137753
Br       5.42862558       1.38357719       9.40265520      -0.00079900       0.00113016      -0.00138459
