9
Lattice="6.901953493389573 4.7700107558285287e-08 3.9848446251421543 2.300651098525285 6.5072243124254685 3.9848448172438298 -1.3772026838011526e-07 1.378926177634155e-07 7.969689488822747" Properties=species:S:1:pos:R:3:forces:R:3 energy=-15.325543403625488 free_energy=-15.325543403625488 stress="7.522883242927492e-05 9.189003336018686e-09 -7.212878738727113e-09 9.189003336018686e-09 7.522769010392949e-05 1.0003669892455491e-08 -7.212878738727113e-09 1.0003669892455491e-08 7.523379463236779e-05" pbc="T T T"
Cd       2.30065086       1.62680611       3.98484490      -0.00000142       0.00000006       0.00000015
Cd       6.90195359       4.88041843      11.95453409       0.00000124       0.00000011       0.00000013
Mg      -0.00000013       0.00000028      -0.00000022       0.00000030      -0.00000074       0.00000031
I        2.36227229       1.67038013       7.96968931      -0.00169209      -0.00119537      -0.00000007
I        6.84033195       4.83684439       7.96968945       0.00169230       0.00119512       0.00000014
I        5.72081658       1.67037906       6.03063322       0.00084596      -0.00119682      -0.00146464
I        3.48178788       4.83684536       9.90874585      -0.00084560       0.00119688       0.00146484
I        3.48178778       4.83684536       6.03063349      -0.00084600       0.00119661      -0.00146419
I        5.72081700       1.67037886       9.90874567       0.00084528      -0.00119585       0.00146326
