9
Lattice="6.774200700486166 -1.8870555826268957e-07 3.911086989427921 2.2580667563433834 6.386777648397861 3.91108693037418 3.794070166739208e-08 -4.549761428962801e-08 7.822173913140616" Properties=species:S:1:pos:R:3:forces:R:3 energy=-21.51926040649414 free_energy=-21.51926040649414 stress="0.0001775647688191384 2.7386519718675117e-09 4.126336161647259e-09 2.7386519718675117e-09 0.00017756005399860442 3.013630456294436e-10 4.126336161647259e-09 3.013630456294436e-10 0.00017757319437805563" pbc="T T T"
Cd       2.25806654       1.59669413       3.91108716      -0.00000055      -0.00000014       0.00000070
Cd       6.77420062       4.79008310      11.73326045       0.00000046       0.00000024      -0.00000108
Mn       0.00000025       0.00000070       0.00000018      -0.00000242      -0.00000409      -0.00000145
I        2.22440355       1.57289085       7.82217379       0.00295615       0.00209056       0.00000012
I        6.80786343       4.81388631       7.82217423      -0.00295251      -0.00208772      -0.00000014
I        5.66199893       1.57289088       5.83747823      -0.00147811       0.00208971       0.00255875
I        3.37026898       4.81388640       9.80686948       0.00147732      -0.00208860      -0.00255705
I        3.37026882       4.81388609       5.83747835       0.00147672      -0.00208925       0.00255781
I        5.66199890       1.57289124       9.80686953      -0.00147703       0.00208934      -0.00255771
