9
Lattice="4.568740425435111 6.675979844536174e-08 2.6377634450209735 1.5229135665900804 4.307449482494002 2.6377633956518127 1.035608700772305e-07 1.2764009016410437e-08 5.275526710669233" Properties=species:S:1:pos:R:3:forces:R:3 energy=-34.94792556762695 free_energy=-34.94792556762695 stress="-0.00012000119022559375 3.5241928486584584e-08 1.8736738383040574e-08 3.5241928486584584e-08 -0.00012008630437776446 -2.8350861214221368e-08 1.8736738383040574e-08 -2.8350861214221368e-08 -0.00012014421372441575" pbc="T T T"
Cd       1.52291328       1.07686265       2.63776345      -0.00000014       0.00000203      -0.00000131
Cd       4.56874082       3.23058720       7.91329012      -0.00000107       0.00000129       0.00000097
Mg      -0.00000001      -0.00000012       0.00000000       0.00000209       0.00000305       0.00000206
F        1.53786895       1.08743759       5.27552678      -0.00112244      -0.00079226       0.00000033
F        4.55378520       3.22001179       5.27552669       0.00112048       0.00078883       0.00000040
F        3.79980595       1.08743735       3.96959669       0.00055763      -0.00079175      -0.00096757
F        2.29184811       3.22001228       6.58145691      -0.00055598       0.00078799       0.00096612
F        2.29184811       3.22001231       3.96959688      -0.00056053       0.00079045      -0.00096734
F        3.79980607       1.08743727       6.58145679       0.00056010      -0.00079001       0.00096691
