9
Lattice="6.280808595273556 -3.7340085113309436e-08 3.626226492416404 2.0936028207893935 5.921603071936689 3.6262265081732337 4.043859776544456e-09 2.2157548495101462e-08 7.252452977828645" Properties=species:S:1:pos:R:3:forces:R:3 energy=-18.479366302490234 free_energy=-18.479366302490234 stress="6.24045860604383e-05 -1.1200234517616536e-08 3.891539090972174e-09 -1.1200234517616536e-08 6.239022332010791e-05 1.925137382841058e-09 3.891539090972174e-09 1.925137382841058e-09 6.239969661692157e-05" pbc="T T T"
Cd       2.09360303       1.48040107       3.62622653       0.00000112       0.00000068      -0.00000033
Cd       6.28080877       4.44120238      10.87868002       0.00000004      -0.00000048       0.00000180
Mg      -0.00000015      -0.00000027      -0.00000042       0.00000109       0.00000072       0.00000290
Br       2.12731366       1.50423781       7.25245275      -0.00056174      -0.00039642       0.00000063
Br       6.24709797       4.41736536       7.25245274       0.00055846       0.00039517       0.00000019
Br       5.21715149       1.50423800       5.46853413       0.00028145      -0.00039706      -0.00048652
Br       3.15725939       4.41736525       9.03637194      -0.00027918       0.00039459       0.00048337
Br       3.15725996       4.41736500       5.46853418      -0.00028044       0.00039775      -0.00048600
Br       5.21715158       1.50423764       9.03637204       0.00027921      -0.00039517       0.00048400
