9
Lattice="4.794408830364729 -5.544776798007262e-08 2.7680534168523687 1.5981362016489404 4.520212209851525 2.7680534564516996 -6.666211918341069e-08 1.3617862018401869e-09 5.536106949166881" Properties=species:S:1:pos:R:3:forces:R:3 energy=-37.864768981933594 free_energy=-37.864768981933594 stress="0.00014654689584858716 2.462858503804455e-07 1.0313188170130161e-07 2.462858503804455e-07 0.00014624111645389348 -1.2408305849476164e-07 1.0313188170130161e-07 -1.2408305849476164e-07 0.00014596393157262355" pbc="T T T"
Cd       1.59813453       1.13005358       2.76805253      -0.00001131       0.00000199      -0.00000348
Cd       4.79441036       3.39015787       8.30415941       0.00000931      -0.00000524      -0.00000832
Mn       0.00000003       0.00000008      -0.00000027       0.00000461      -0.00000033       0.00001140
F        1.59206348       1.12575964       5.53610645      -0.00131471      -0.00092631       0.00000153
F        4.80048116       3.39445284       5.53610811       0.00131186       0.00092528       0.00000452
F        3.99837712       1.12576049       4.14682317       0.00065683      -0.00092018      -0.00112494
F        2.39416769       3.39445157       6.92539137      -0.00065152       0.00091463       0.00112335
F        2.39416768       3.39445267       4.14682278      -0.00065887       0.00092717      -0.00113003
F        3.99837794       1.12575994       6.92539162       0.00065389      -0.00091697       0.00112592
