9
Lattice="5.821858317327266 -1.985315123412323e-07 3.3612515418916145 1.9406192333786525 5.488900322161314 3.3612515740263746 -6.664407287320303e-08 -7.767486502393969e-09 6.722503199214033" Properties=species:S:1:pos:R:3:forces:R:3 energy=-22.30420684814453 free_energy=-22.30420684814453 stress="-3.712713805725798e-05 8.802811812813616e-09 -3.2902485180841268e-09 8.802811812813616e-09 -3.708512304001488e-05 -9.541555101577615e-09 -3.2902485180841268e-09 -9.541555101577615e-09 -3.708995063789189e-05" pbc="T T T"
Cd       1.94061877       1.37222533       3.36125216      -0.00000262       0.00000174       0.00000329
Cd       5.82185822       4.11667539      10.08375677       0.00000045       0.00000085       0.00000587
Ni       0.00000032      -0.00000018       0.00000052      -0.00000269       0.00000130      -0.00000609
Cl       1.89155291       1.33752944       6.72250314       0.00440714       0.00311628      -0.00000146
Cl       5.87092482       4.15137026       6.72250311      -0.00440770      -0.00311503      -0.00000335
Cl       4.87608185       1.33753009       4.99938350      -0.00220270       0.00311583       0.00381541
Cl       2.88639531       4.15137058       8.44562152       0.00220311      -0.00311697      -0.00381777
Cl       2.88639542       4.15136988       4.99938337       0.00220555      -0.00311731       0.00381914
Cl       4.87608243       1.33752974       8.44562097      -0.00220057       0.00311317      -0.00381494
