9
Lattice="7.17227999686399 1.73338598213052e-08 4.140917813303103 2.390760003938074 6.762090416474067 4.140917832977616 -1.819797712953974e-08 1.1228416146990992e-08 8.281835658125852" Properties=species:S:1:pos:R:3:forces:R:3 energy=-23.425491333007812 free_energy=-23.425491333007812 stress="8.84104665601626e-05 -6.92225943232927e-10 4.208267512240127e-09 -6.92225943232927e-10 8.842517854645848e-05 2.901916040798369e-09 4.208267512240127e-09 2.901916040798369e-09 8.842675742926076e-05" pbc="T T T"
Cd       2.39076014       1.69052311       4.14091785      -0.00000026       0.00000020      -0.00000039
Cd       7.17227982       5.07156754      12.42275348       0.00000003      -0.00000035      -0.00000017
Nb       0.00000008      -0.00000123      -0.00000035       0.00000222       0.00001549       0.00000397
I        2.28011025       1.61228149       8.28183569      -0.00230139      -0.00162695       0.00000007
I        7.28293079       5.14980953       8.28183558       0.00229172       0.00162105       0.00000028
I        6.03222481       1.61228143       6.11555117       0.00115089      -0.00162737      -0.00199389
I        3.53081450       5.14980942      10.44812073      -0.00114553       0.00162086       0.00198533
I        3.53081465       5.14980920       6.11555072      -0.00114755       0.00162309      -0.00198736
I        6.03222493       1.61228126      10.44812033       0.00114986      -0.00162600       0.00199213
