9
Lattice="6.607318605501097 1.0934303571937862e-07 3.81473713844252 2.202439603030623 6.229439774815303 3.8147371994557613 -2.6627009023534013e-08 5.589758597625459e-08 7.629474323004403" Properties=species:S:1:pos:R:3:forces:R:3 energy=-17.004154205322266 free_energy=-17.004154205322266 stress="-0.00010006032971432433 -3.049300145718803e-09 -5.680817594111431e-09 -3.049300145718803e-09 -0.00010005316289607435 3.7021448129337386e-09 -5.680817594111431e-09 3.7021448129337386e-09 -0.00010005967487813905" pbc="T T T"
Cd       2.20243922       1.55736014       3.81473715      -0.00000082       0.00000059       0.00000010
Cd       6.60731883       4.67208032      11.44421124       0.00000057       0.00000115      -0.00000100
Ni       0.00000009       0.00000000       0.00000021       0.00000023       0.00000004       0.00000016
I        2.19969813       1.55542141       7.62947443       0.00727774       0.00514556       0.00000012
I        6.61006010       4.67401835       7.62947446      -0.00727776      -0.00514677      -0.00000011
I        5.50746964       1.55542113       5.71973144      -0.00363863       0.00514600       0.00630301
I        3.30228864       4.67401848       9.53921724       0.00363830      -0.00514543      -0.00630245
I        3.30228839       4.67401851       5.71973140       0.00363865      -0.00514647       0.00630265
I        5.50746972       1.55542145       9.53921707      -0.00363833       0.00514529      -0.00630257
