9
Lattice="6.752643660524166 -5.8223905067193025e-08 3.8986407172304127 2.2508812075586695 6.366453551422987 3.8986406440029273 1.1415993168237335e-07 -8.961807538252556e-09 7.797281236730095" Properties=species:S:1:pos:R:3:forces:R:3 energy=-27.12374496459961 free_energy=-27.12374496459961 stress="-0.00018853221263270825 -1.7049375244937437e-08 5.949496451052028e-09 -1.7049375244937437e-08 -0.00018850172637030482 -3.4982134966554668e-09 5.949496451052028e-09 -3.4982134966554668e-09 -0.00018850454944185913" pbc="T T T"
Cd       2.25088123       1.59161327       3.89864079      -0.00000020       0.00000055       0.00000023
Cd       6.75264370       4.77484018      11.69592197      -0.00000005      -0.00000013       0.00000030
Nb       0.00000004       0.00000056       0.00000144      -0.00000011      -0.00000946      -0.00002218
Br       2.09392166       1.48062623       7.79728145       0.00636702       0.00450182      -0.00000026
Br       6.90960295       4.88582662       7.79728135      -0.00636140      -0.00449760      -0.00000013
Br       5.70568327       1.48062621       5.71202990      -0.00318607       0.00450446       0.00551709
Br       3.29784244       4.88582676       9.88253181       0.00317634      -0.00449211      -0.00550256
Br       3.29784219       4.88582724       5.71202996       0.00318305      -0.00450165       0.00551295
Br       5.70568254       1.48062685       9.88253177      -0.00317860       0.00449411      -0.00550546
