9
Lattice="6.518026090733642 -6.523863857896933e-07 3.763182785963563 2.172675054790322 6.145248995193136 3.763182255457562 8.995517743947272e-07 -1.3656214582770927e-08 7.526364013857375" Properties=species:S:1:pos:R:3:forces:R:3 energy=-43.064727783203125 free_energy=-43.064727783203125 stress="2.5616651328164153e-05 -6.101240757061532e-08 4.120613183999922e-09 -6.101240757061532e-08 2.546229188737925e-05 -1.0082144008549676e-09 4.120613183999922e-09 -1.0082144008549676e-09 2.558853884693235e-05" pbc="T T T"
Cd       2.17267519       1.53631360       3.76318759      -0.00000013      -0.00000083      -0.00000070
Cd       6.51802514       4.60893374      11.28954440      -0.00000030       0.00000080       0.00000162
Nb      -0.00000037       0.00000009       0.00000137       0.00002794       0.00000074      -0.00001751
F        1.57869586       1.11630270       7.52636090      -0.00160953      -0.00113004       0.00000715
F        7.11200731       5.02894383       7.52636108       0.00159979       0.00112385       0.00000553
F        5.72867614       1.11630380       5.13037164       0.00080538      -0.00113387      -0.00138506
F        2.96202372       5.02894799       9.92235595      -0.00080831       0.00113024       0.00139600
F        2.96202567       5.02894479       5.13037112      -0.00081336       0.00113755      -0.00139442
F        5.72868169       1.11630515       9.92235983       0.00079854      -0.00112836       0.00138739
