9
Lattice="6.138008617313659 -3.371024377050818e-08 3.543780846384128 2.0460028959731322 5.786969717301393 3.543780750571358 1.9754593856293568e-08 -1.0337762210263945e-07 7.087561658552325" Properties=species:S:1:pos:R:3:forces:R:3 energy=-19.83907127380371 free_energy=-19.83907127380371 stress="1.2690322364505846e-05 -6.574077282550661e-09 -1.0624491508792744e-08 -6.574077282550661e-09 1.2690843504969962e-05 7.831018500326081e-09 -1.0624491508792744e-08 7.831018500326081e-09 1.268738469661912e-05" pbc="T T T"
Cd       2.04600297       1.44674251       3.54378078      -0.00000040       0.00000011       0.00000011
Cd       6.13800865       4.34022713      10.63134229       0.00000029       0.00000024      -0.00000056
Ni      -0.00000031      -0.00000037       0.00000009       0.00000540       0.00000429      -0.00000027
Br       1.99643168       1.41169010       7.08756175      -0.00220400      -0.00155804      -0.00000108
Br       6.18758056       4.37527995       7.08756158       0.00219712       0.00155295       0.00000069
Br       5.13979277       1.41168982       5.27274091       0.00109978      -0.00155479      -0.00190558
Br       3.04421848       4.37527949       8.90238236      -0.00109997       0.00155649       0.00190607
Br       3.04421855       4.37527976       5.27274083      -0.00109936       0.00155467      -0.00190516
Br       5.13979277       1.41168990       8.90238236       0.00110130      -0.00155589       0.00190608
