9
Lattice="6.6608665987489735 8.57699362550299e-08 3.845653026538388 2.220288950001677 6.279925152085624 3.8456530215373808 5.1706403469453406e-08 3.0437046337138666e-08 7.691305963518638" Properties=species:S:1:pos:R:3:forces:R:3 energy=-17.11224937438965 free_energy=-17.11224937438965 stress="-3.8708207284798846e-05 2.471899662737087e-08 -3.6454090857063193e-09 2.471899662737087e-08 -3.872358502121642e-05 1.1506843256015031e-09 -3.6454090857063193e-09 1.1506843256015031e-09 -3.8731835957150906e-05" pbc="T T T"
Cd       2.22028879       1.56998128       3.84565300      -0.00000017      -0.00000043      -0.00000006
Cd       6.66086685       4.70994418      11.53695905       0.00000032       0.00000010      -0.00000031
Pd       0.00000074      -0.00000056       0.00000053      -0.00000815       0.00000343      -0.00000557
I        2.22739042       1.57500275       7.69130609      -0.00016703      -0.00011841      -0.00000008
I        6.65376495       4.70492226       7.69130597       0.00017149       0.00012070      -0.00000010
I        5.54717153       1.57500266       5.77462934       0.00008367      -0.00011814      -0.00014464
I        3.33398398       4.70492266       9.60798267      -0.00008335       0.00011795       0.00014432
I        3.33398372       4.70492296       5.77462904      -0.00008181       0.00011540      -0.00014113
I        5.54717141       1.57500291       9.60798239       0.00008499      -0.00012055       0.00014760
