9
Lattice="4.817762885914218 -8.748805808230482e-08 2.781536797201923 1.6059209591082684 4.542230151291404 2.7815366592935535 1.7018482587626735e-07 -4.8563761223087664e-08 5.563073299635176" Properties=species:S:1:pos:R:3:forces:R:3 energy=-31.274307250976562 free_energy=-31.274307250976562 stress="0.0004259936686139554 -3.648082369522854e-08 2.0643268427988914e-08 -3.648082369522854e-08 0.0004260041459929198 -1.3727442293998138e-08 2.0643268427988914e-08 -1.3727442293998138e-08 0.0004260001005604863" pbc="T T T"
Cd       1.60592078       1.13555763       2.78153707      -0.00000118      -0.00000010       0.00000160
Cd       4.81776317       3.40667242       8.34461030       0.00000064      -0.00000058       0.00000096
Pd      -0.00000012      -0.00000019      -0.00000008       0.00000511       0.00000467       0.00000019
F        1.65426865       1.16974456       5.56307318      -0.00623137      -0.00440574      -0.00000083
F        4.76941515       3.37248537       5.56307345       0.00622652       0.00440131       0.00000003
F        3.99062868       1.16974432       4.21417519       0.00311457      -0.00440442      -0.00539413
F        2.43305550       3.37248586       6.91197131      -0.00311414       0.00440458       0.00539391
F        2.43305569       3.37248549       4.21417572      -0.00311540       0.00440641      -0.00539690
F        3.99062868       1.16974438       6.91197094       0.00311509      -0.00440600       0.00539522
