9
Lattice="5.967958019492997 -1.3869839640234454e-07 3.4456022718589248 1.9893192360006222 5.626645005915262 3.4456022252048113 7.700265851968915e-08 -2.6902586136263503e-09 6.891204410345322" Properties=species:S:1:pos:R:3:forces:R:3 energy=-22.239784240722656 free_energy=-22.239784240722656 stress="0.0001930323924170807 -8.716913413309157e-09 1.1920604947590618e-08 -8.716913413309157e-09 0.00019303370208945125 -1.392188142546047e-09 1.1920604947590618e-08 -1.392188142546047e-09 0.00019304257875774056" pbc="T T T"
Cd       1.98931933       1.40666094       3.44560176       0.00000098      -0.00000059      -0.00000190
Cd       5.96795800       4.21998272      10.33680587      -0.00000053      -0.00000293      -0.00000177
Pd      -0.00000022       0.00000052      -0.00000153       0.00000354      -0.00000870       0.00004071
Cl       1.92842687       1.36360381       6.89120461      -0.00222042      -0.00156853       0.00000020
Cl       6.02885060       4.26304128       6.89120453       0.00221950       0.00157082      -0.00000128
Cl       5.00374431       1.36360409       5.11566930       0.00111327      -0.00157432      -0.00193077
Cl       2.95353283       4.26304159       8.66674036      -0.00110513       0.00156559       0.00191504
Cl       2.95353290       4.26304067       5.11566977      -0.00111638       0.00157989      -0.00193387
Cl       5.00374466       1.36360385       8.66674089       0.00110516      -0.00156119       0.00191355
