9
Lattice="6.521246172823622 -4.119105476937973e-08 3.7650433010553153 2.1737486802513155 6.1482899167256235 3.765043310041074 -9.297138533556769e-09 4.43120666338825e-09 7.53008661821372" Properties=species:S:1:pos:R:3:forces:R:3 energy=-18.46379280090332 free_energy=-18.46379280090332 stress="0.00014232682588044554 -2.056852466125747e-09 3.841456486242123e-09 -2.056852466125747e-09 0.00014232966350391507 4.029578337672035e-10 3.841456486242123e-09 4.029578337672035e-10 0.0001423257781425491" pbc="T T T"
Cd       2.17374886       1.53707276       3.76504330       0.00000064       0.00000045      -0.00000023
Cd       6.52124608       4.61121744      11.29513005      -0.00000020       0.00000054      -0.00000007
Pb       0.00000008      -0.00000002       0.00000110       0.00000034       0.00000018      -0.00000897
Br       2.27679215       1.60993501       7.53008656      -0.00007019      -0.00005012      -0.00000028
Br       6.41820284       4.53835495       7.53008649       0.00006957       0.00004896       0.00000019
Br       5.38285012       1.60993491       5.73680292       0.00003329      -0.00004700      -0.00005820
Br       3.31214482       4.53835435       9.32336975      -0.00003593       0.00005112       0.00006309
Br       3.31214457       4.53835481       5.73680294      -0.00003377       0.00004726      -0.00005858
Br       5.38284986       1.60993533       9.32336978       0.00003623      -0.00005136       0.00006296
