9
Lattice="6.283065085590319 1.5477833581347757e-08 3.6275291427143035 2.0943550126748107 5.923730449975139 3.6275291954515443 -6.581824297218657e-08 1.8049087801974493e-08 7.255058399429296" Properties=species:S:1:pos:R:3:forces:R:3 energy=-20.82120704650879 free_energy=-20.82120704650879 stress="0.0001479393831687048 2.5188494845451714e-08 -2.8679627561700727e-09 2.5188494845451714e-08 0.00014791027933824807 5.469817487835371e-09 -2.8679627561700727e-09 5.469817487835371e-09 0.00014787314285058528" pbc="T T T"
Cd       2.09435475       1.48093250       3.62752933       0.00000028      -0.00000052       0.00000012
Cd       6.28306522       4.44279781      10.88258756       0.00000004       0.00000001      -0.00000002
Pt      -0.00000043       0.00000049       0.00000041       0.00000491      -0.00000416      -0.00000301
Br       2.03699036       1.44036931       7.25505835      -0.00268611      -0.00189838       0.00000010
Br       6.34042988       4.48336108       7.25505826       0.00268432       0.00189824       0.00000023
Br       5.26457012       1.44036920       5.39161382       0.00133994      -0.00189408      -0.00232062
Br       3.11285001       4.48336108       9.11850266      -0.00134216       0.00189724       0.00232406
Br       3.11284984       4.48336129       5.39161385      -0.00134150       0.00189612      -0.00232232
Br       5.26457036       1.44036913       9.11850269       0.00134028      -0.00189449       0.00232153
