9
Lattice="6.09688872090956 2.6382507663422003e-07 3.520040282047597 2.0322964521919418 5.748201018538313 3.5200403458698935 4.382928353550764e-09 8.126527808422918e-08 7.040080556503775" Properties=species:S:1:pos:R:3:forces:R:3 energy=-23.422229766845703 free_energy=-23.422229766845703 stress="-1.799806682356575e-06 1.8798569101363682e-07 -1.217493394989333e-08 1.8798569101363682e-07 -1.909167167468695e-06 2.4128869569040035e-08 -1.217493394989333e-08 2.4128869569040035e-08 -2.0186334950267337e-06" pbc="T T T"
Cd       2.03229686       1.43705092       3.52004030       0.00000099       0.00000069      -0.00000009
Cd       6.09688885       4.31115115      10.56012093       0.00000068       0.00000032      -0.00000011
Pt       0.00000047      -0.00000136      -0.00000017      -0.00001395       0.00002388       0.00000320
Cl       1.92155097       1.35874227       7.04008060      -0.00560634      -0.00396611       0.00000009
Cl       6.20763308       4.38945916       7.04008063       0.00560934       0.00396438       0.00000015
Cl       5.13611418       1.35874087       5.18415104       0.00279686      -0.00395856      -0.00484635
Cl       2.99307117       4.38946076       8.89601047      -0.00279149       0.00394570       0.00483598
Cl       2.99307108       4.38946073       5.18415085      -0.00279138       0.00394510      -0.00483572
Cl       5.13611406       1.35874094       8.89601015       0.00279526      -0.00395529       0.00484277
