9
Lattice="6.24532924152989 -3.2752072590838896e-08 3.6057425238223777 2.081776373661968 5.88815292504052 3.605742539934539 -2.944527042405412e-08 -1.087675726761337e-09 7.211485098645464" Properties=species:S:1:pos:R:3:forces:R:3 energy=-19.817028045654297 free_energy=-19.817028045654297 stress="0.0002473473141435534 -1.6933013213815684e-08 -4.186849200671361e-10 -1.6933013213815684e-08 0.00024736468913033605 -2.9517115418542517e-09 -4.186849200671361e-10 -2.9517115418542517e-09 0.00024737673811614513" pbc="T T T"
Cd       2.08177636       1.47203818       3.60574263       0.00000006      -0.00000003       0.00000020
Cd       6.24532911       4.41611459      10.81722724      -0.00000037      -0.00000005      -0.00000021
Pd       0.00000014      -0.00000019       0.00000038      -0.00000286       0.00000362      -0.00000240
Br       2.05203088       1.45100496       7.21148502      -0.00789543      -0.00558256       0.00000004
Br       6.27507475       4.43714801       7.21148526       0.00789531       0.00558224      -0.00000040
Br       5.21931360       1.45100500       5.38285358       0.00394925      -0.00558349      -0.00683862
Br       3.10779200       4.43714790       9.04011657      -0.00394801       0.00558310       0.00683866
Br       3.10779180       4.43714798       5.38285337      -0.00394705       0.00558235      -0.00683738
Br       5.21931371       1.45100513       9.04011659       0.00394908      -0.00558513       0.00684014
