9
Lattice="5.2010806032582675 3.8354957825470054e-08 3.002844006720214 1.7336931290248616 4.903628556676383 3.0028447715171143 -2.158326011074745e-07 7.840653906161513e-07 6.005688387273464" Properties=species:S:1:pos:R:3:forces:R:3 energy=-31.85052490234375 free_energy=-31.85052490234375 stress="-3.646733603090979e-05 -1.8424626091473328e-07 9.793505739708053e-08 -1.8424626091473328e-07 -3.6191908293403685e-05 -7.982875160905678e-08 9.793505739708053e-08 -7.982875160905678e-08 -3.6332559830043465e-05" pbc="T T T"
Cd       1.73369989       1.22591411       3.00284517       0.00001737       0.00002388       0.00000266
Cd       5.20107499       3.67772330       9.00853969      -0.00001780      -0.00000909       0.00002113
Pt      -0.00000105      -0.00000031       0.00000019       0.00001177      -0.00001391      -0.00004250
F        1.63678221       1.15738299       6.00568989       0.00391886       0.00276646      -0.00000608
F        5.29798992       3.74624362       6.00568854      -0.00390783      -0.00276139      -0.00000871
F        4.38268664       1.15738989       4.42033325      -0.00195853       0.00276288       0.00339103
F        2.55208343       3.74624289       7.59103834       0.00194868      -0.00276554      -0.00336662
F        2.55209114       3.74624062       4.42033486       0.00194687      -0.00275514       0.00337568
F        4.38268640       1.15738410       7.59103564      -0.00195947       0.00275168      -0.00336674
