9
Lattice="6.702166618707092 1.7049815422654822e-07 3.8694976749820116 2.2340556963623044 6.318863400752881 3.869497681830384 7.528807820072678e-09 1.3711278524777054e-08 7.738995336923629" Properties=species:S:1:pos:R:3:forces:R:3 energy=-18.025774002075195 free_energy=-18.025774002075195 stress="4.18215204263106e-05 5.07204722666188e-09 -7.390769329873592e-09 5.07204722666188e-09 4.181978874839842e-05 6.176131162050069e-09 -7.390769329873592e-09 6.176131162050069e-09 4.181953045190312e-05" pbc="T T T"
Cd       2.23405556       1.57971590       3.86949803      -0.00000040      -0.00000047       0.00000055
Cd       6.70216700       4.73914743      11.60849293       0.00000016       0.00000016      -0.00000061
Pt      -0.00000056      -0.00000034      -0.00000122       0.00000511       0.00000443       0.00000850
I        2.21490683       1.56617583       7.73899530       0.00157481       0.00111305      -0.00000067
I        6.72131601       4.75268821       7.73899533      -0.00157977      -0.00111678       0.00000054
I        5.59471345       1.56617573       5.78766276      -0.00078725       0.00111336       0.00136391
I        3.34150852       4.75268838       9.69032837       0.00079026      -0.00111767      -0.00136815
I        3.34150874       4.75268798       5.78766282       0.00078741      -0.00111397       0.00136451
I        5.59471373       1.56617516       9.69032845      -0.00079029       0.00111791      -0.00136860
