9
Lattice="6.216108191939765 6.9715521712746245e-09 3.5888716324195067 2.0720360546631977 5.860602899959573 3.5888716599410353 -5.02341473227544e-08 -1.8140611338733883e-09 7.177743351847095" Properties=species:S:1:pos:R:3:forces:R:3 energy=-21.357751846313477 free_energy=-21.357751846313477 stress="0.00013715184468310326 -1.3560113032440313e-08 -1.6554528858847561e-09 -1.3560113032440313e-08 0.00013715686509385705 3.49145090616787e-09 -1.6554528858847561e-09 3.49145090616787e-09 0.00013717000547330827" pbc="T T T"
Cd       2.07203584       1.46515057       3.58887156      -0.00000034      -0.00000048      -0.00000014
Cd       6.21610833       4.39545252      10.76661460       0.00000036       0.00000058      -0.00000042
Pb       0.00000016      -0.00000006       0.00000009      -0.00000398       0.00000199      -0.00000314
Cl       2.11915266       1.49846733       7.17774324      -0.00154039      -0.00108962       0.00000041
Cl       6.16899141       4.36213544       7.17774358       0.00154178       0.00109052       0.00000015
Cl       5.15653193       1.49846719       5.42411202       0.00077111      -0.00109130      -0.00133686
Cl       3.13161253       4.36213567       8.93137502      -0.00077090       0.00109138       0.00133666
Cl       3.13161210       4.36213578       5.42411190      -0.00076968       0.00108945      -0.00133429
Cl       5.15653186       1.49846717       8.93137463       0.00077201      -0.00109254       0.00133763
