9
Lattice="5.725993781930637 -1.7210004796993437e-06 3.305905589362653 1.908663098710432 5.398517161092854 3.305905368858589 -2.1930837594801704e-07 -4.2513501043087307e-07 6.611811558578291" Properties=species:S:1:pos:R:3:forces:R:3 energy=-33.90162658691406 free_energy=-33.90162658691406 stress="5.42115667485632e-05 -1.4161656736177974e-07 -6.863893986519543e-08 -1.4161656736177974e-07 5.420538582256995e-05 -5.2577583176116605e-08 -6.863893986519543e-08 -5.2577583176116605e-08 5.436898209154606e-05" pbc="T T T"
Cd       1.90866712       1.34962562       3.30589860       0.00000176      -0.00000256      -0.00000118
Cd       5.72599761       4.04888654       9.91772066       0.00000113      -0.00000068      -0.00000292
Sn      -0.00000110      -0.00000081      -0.00000078       0.00000575       0.00000491       0.00001279
F        1.64323065       1.16193678       6.61181248      -0.00194150      -0.00137204       0.00000251
F        5.99142266       4.23657854       6.61181281       0.00194272       0.00137210      -0.00000643
F        4.90437702       1.16193797       4.72898519       0.00097796      -0.00137751      -0.00169189
F        2.73027771       4.23657480       8.49463636      -0.00098374       0.00137933       0.00169331
F        2.73027608       4.23657862       4.72898829      -0.00097813       0.00138019      -0.00169401
F        4.90437838       1.16194029       8.49463739       0.00097394      -0.00138372       0.00168794
