9
Lattice="7.1399218186218265 -6.467075040074952e-08 4.122235771596327 2.379973916376216 6.731582723916371 4.122235706111147 5.9214480620811256e-08 -3.8331694477756894e-08 8.244471440630283" Properties=species:S:1:pos:R:3:forces:R:3 energy=-22.523454666137695 free_energy=-22.523454666137695 stress="7.104218821041286e-05 9.057282146507362e-10 -3.385705271696793e-09 9.057282146507362e-10 7.105041004251689e-05 4.397744834960804e-09 -3.385705271696793e-09 4.397744834960804e-09 7.105311669874936e-05" pbc="T T T"
Cd       2.37997398       1.68289570       4.12223591      -0.00000028       0.00000005       0.00000069
Cd       7.13992171       5.04868693      12.36670723       0.00000001      -0.00000003      -0.00000040
Sc       0.00000032      -0.00000010      -0.00000062      -0.00000140       0.00000050       0.00000867
I        2.34092489       1.65528406       8.24447094      -0.00165005      -0.00116741      -0.00000038
I        7.17897097       5.07629871       8.24447128       0.00165123       0.00116781       0.00000119
I        5.96945919       1.65528423       6.14953641       0.00082870      -0.00116995      -0.00143276
I        3.55043592       5.07629903      10.33940711      -0.00082509       0.00116506       0.00142750
I        3.55043644       5.07629818       6.14953608      -0.00082644       0.00116856      -0.00143124
I        5.96945983       1.65528371      10.33940735       0.00082332      -0.00116457       0.00142677
