9
Lattice="6.5397546304146426 -6.838261913770119e-08 3.775729141124579 2.179918197705913 6.165739695824122 3.7757290509896926 4.38605966601244e-08 -7.937815944045867e-08 7.55145820628044" Properties=species:S:1:pos:R:3:forces:R:3 energy=-16.463424682617188 free_energy=-16.463424682617188 stress="9.138116729445755e-05 2.2116921627457486e-09 -6.357698811854107e-10 2.2116921627457486e-09 9.136788139585406e-05 4.1989034471612285e-09 -6.357698811854107e-10 4.1989034471612285e-09 9.137440065387636e-05" pbc="T T T"
Cd       2.17991829       1.54143507       3.77572915      -0.00000006       0.00000038      -0.00000001
Cd       6.53975473       4.62430470      11.32718735      -0.00000009       0.00000030       0.00000011
Se       0.00000020      -0.00000042      -0.00000028      -0.00000107       0.00000161       0.00000128
Br       2.13309557       1.50832617       7.55145814      -0.00082226      -0.00058190       0.00000003
Br       6.58657722       4.65741340       7.55145827       0.00082287       0.00058125      -0.00000042
Br       5.47320683       1.50832635       5.62304390       0.00041195      -0.00058217      -0.00071306
Br       3.24646581       4.65741329       9.47987260      -0.00041134       0.00058124       0.00071269
Br       3.24646582       4.65741341       5.62304404      -0.00041116       0.00058126      -0.00071274
Br       5.47320699       1.50832620       9.47987240       0.00041119      -0.00058197       0.00071211
