9
Lattice="6.127996049879247 -3.019434160726263e-07 3.5379999830512645 2.042665145352648 5.777529860881499 3.537999844369614 5.9316468709640905e-08 -1.2790659656024225e-07 7.075999863363389" Properties=species:S:1:pos:R:3:forces:R:3 energy=-18.731914520263672 free_energy=-18.731914520263672 stress="-0.0002519469417165965 -6.462563817422051e-09 -7.27313231863036e-09 -6.462563817422051e-09 -0.0002519168483559042 1.7768625459879672e-09 -7.27313231863036e-09 1.7768625459879672e-09 -0.00025194179033860564" pbc="T T T"
Cd       2.04266564       1.44438279       3.53800037      -0.00000015       0.00000108       0.00000058
Cd       6.12799587       4.33314731      10.61399961      -0.00000010       0.00000021      -0.00000007
S       -0.00000015       0.00000004       0.00000045       0.00000048      -0.00000052      -0.00000361
Cl       1.96421390       1.38890826       7.07599987       0.00008091       0.00005664       0.00000022
Cl       6.20644696       4.38861945       7.07599993      -0.00007910      -0.00005445       0.00000057
Cl       5.14588895       1.38890956       5.23905957      -0.00003977       0.00005433       0.00006786
Cl       3.02477224       4.38862010       8.91293986       0.00003833      -0.00005487      -0.00006750
Cl       3.02477252       4.38862024       5.23905912       0.00003922      -0.00005712       0.00006953
Cl       5.14588927       1.38890994       8.91293977      -0.00003983       0.00005473      -0.00006768
