9
Lattice="6.328177344123512 1.1710626074735028e-07 3.6535749628680634 2.1093925483216287 5.966262865101242 3.653574980410912 -7.773753803524922e-08 -3.3483190044061156e-08 7.307150060381462" Properties=species:S:1:pos:R:3:forces:R:3 energy=-23.18381118774414 free_energy=-23.18381118774414 stress="6.934892007848248e-05 2.1173141462327294e-08 3.3875036109520806e-09 2.1173141462327294e-08 6.933059194125235e-05 -4.028748001871918e-09 3.3875036109520806e-09 -4.028748001871918e-09 6.930570816621184e-05" pbc="T T T"
Cd       2.10939252       1.49156609       3.65357465      -0.00000014       0.00000086      -0.00000018
Cd       6.32817704       4.47469814      10.96072455      -0.00000064       0.00000075      -0.00000012
Sn      -0.00000065       0.00000000      -0.00000029       0.00000071      -0.00000307       0.00000845
Cl       2.01800531       1.42694503       7.30715011      -0.00227180      -0.00160665       0.00000065
Cl       6.41956442       4.53931720       7.30714992       0.00227468       0.00160825       0.00000076
Cl       5.31917495       1.42694524       5.40121879       0.00113573      -0.00160737      -0.00196763
Cl       3.11839500       4.53931775       9.21308190      -0.00113376       0.00160258       0.00196348
Cl       3.11839530       4.53931757       5.40121896      -0.00113779       0.00160768      -0.00196847
Cl       5.31917536       1.42694486       9.21308139       0.00113310      -0.00160309       0.00196318
