9
Lattice="7.423097175914544 -4.031482758532156e-07 4.285727522246036 2.47436551405946 6.998562986511549 4.2857272297953 1.743697844281643e-07 -2.348793512203434e-07 8.571454742474776" Properties=species:S:1:pos:R:3:forces:R:3 energy=-17.1164608001709 free_energy=-17.1164608001709 stress="-8.68936040205881e-05 -1.4381088542236853e-09 5.01879293679508e-09 -1.4381088542236853e-09 -8.689741662237793e-05 -7.415574376778977e-09 5.01879293679508e-09 -7.415574376778977e-09 -8.689089008839801e-05" pbc="T T T"
Cd       2.47436606       1.74964085       4.28572717       0.00000001       0.00000054      -0.00000112
Cd       7.42309698       5.24892153      12.85718255      -0.00000007      -0.00000009       0.00000134
Sr       0.00000026       0.00000020      -0.00000018      -0.00000178       0.00000029      -0.00000038
I        2.63615141       1.86404000       8.57145487       0.00307687       0.00217593      -0.00000036
I        7.26131165       5.13452205       8.57145442      -0.00307588      -0.00217479       0.00000031
I        6.10502186       1.86404089       6.56870168      -0.00153761       0.00217517       0.00266312
I        3.79244056       5.13452146      10.57420845       0.00153829      -0.00217652      -0.00266430
I        3.79244188       5.13452288       6.56870152       0.00153749      -0.00217430       0.00266331
I        6.10502075       1.86403954      10.57420745      -0.00153735       0.00217377      -0.00266196
