9
Lattice="6.53098673645808 -3.166594076961652e-09 3.7706668972692055 2.1769955749862553 6.15747331281735 3.770666898737371 -1.5805273057473974e-08 -9.377920156935004e-09 7.541333821913959" Properties=species:S:1:pos:R:3:forces:R:3 energy=-26.055618286132812 free_energy=-26.055618286132812 stress="8.952675125328824e-05 -2.603490978358991e-09 6.014362341488777e-09 -2.603490978358991e-09 8.956444071372971e-05 6.752221892725174e-09 6.014362341488777e-09 6.752221892725174e-09 8.951721247285604e-05" pbc="T T T"
Cd       2.17699577       1.53936866       3.77066687       0.00000003       0.00000068      -0.00000008
Cd       6.53098666       4.61810507      11.31200093      -0.00000019      -0.00000001       0.00000058
Sc       0.00000004      -0.00000025      -0.00000037       0.00000036       0.00000508       0.00000485
Br       2.15022836       1.52044106       7.54133373      -0.00098956      -0.00069914       0.00000038
Br       6.55775391       4.63703214       7.54133369       0.00098739       0.00069785      -0.00000070
Br       5.45587243       1.52044134       5.63281920       0.00049555      -0.00070029      -0.00085818
Br       3.25210967       4.63703220       9.44984871      -0.00049358       0.00069662       0.00085321
Br       3.25210982       4.63703206       5.63281915      -0.00049465       0.00069959      -0.00085689
Br       5.45587252       1.52044098       9.44984851       0.00049472      -0.00070033       0.00085680
