9
Lattice="6.153747251678818 2.7565043312969793e-08 3.552868028831226 2.0512491893070193 5.8018087763270065 3.552867891262115 -2.7547012028394658e-08 -1.8796574630664044e-07 7.105736105375243" Properties=species:S:1:pos:R:3:forces:R:3 energy=-29.290054321289062 free_energy=-29.290054321289062 stress="0.00012006971519440413 -2.964313416953246e-08 8.898818570912681e-09 -2.964313416953246e-08 0.00012013061495963484 3.486806843255863e-09 8.898818570912681e-09 3.486806843255863e-09 0.00012017766130156815" pbc="T T T"
Cd       2.05124920       1.45045134       3.55286813      -0.00000082      -0.00000146       0.00000061
Cd       6.15374610       4.35135628      10.65860457      -0.00000144      -0.00000039       0.00000104
Sc      -0.00000044      -0.00000005       0.00000008       0.00000848       0.00000440      -0.00000217
Cl       2.01634830       1.42577318       7.10573628      -0.00156719      -0.00110971      -0.00000080
Cl       6.18864930       4.37603561       7.10573644       0.00155897       0.00110450       0.00000017
Cl       5.14557370       1.42577451       5.29907633       0.00078316      -0.00110666      -0.00135762
Cl       3.05942330       4.37603526       8.91239452      -0.00078283       0.00110947       0.00135839
Cl       3.05942297       4.37603514       5.29907708      -0.00078278       0.00110870      -0.00135802
Cl       5.14557320       1.42577319       8.91239465       0.00078445      -0.00110883       0.00135840
