9
Lattice="6.869041824851887 2.065111848869349e-08 3.9658431536681804 2.289680613699043 6.476194786880534 3.9658431780121983 -4.24464499701829e-08 -1.9886885285692315e-10 7.931686380855611" Properties=species:S:1:pos:R:3:forces:R:3 energy=-13.909261703491211 free_energy=-13.909261703491211 stress="0.00021899549756199121 -1.0811610273719907e-08 -5.5487902467232786e-11 -1.0811610273719907e-08 0.00021900719730183482 9.288402269547191e-10 -5.5487902467232786e-11 9.288402269547191e-10 0.00021900715364608914" pbc="T T T"
Cd       2.28968049       1.61904867       3.96584318      -0.00000000       0.00000009      -0.00000006
Cd       6.86904182       4.85714608      11.89752967      -0.00000008       0.00000013       0.00000021
Se      -0.00000012      -0.00000020      -0.00000029       0.00000033       0.00000078       0.00000060
I        2.36864344       1.67488399       7.93168638      -0.00611261      -0.00432231      -0.00000005
I        6.79007897       4.80131097       7.93168640       0.00611164       0.00432203       0.00000002
I        5.68472022       1.67488373       6.01714838       0.00305652      -0.00432239      -0.00529453
I        3.47400219       4.80131119       9.84622439      -0.00305596       0.00432210       0.00529350
I        3.47400233       4.80131089       6.01714872      -0.00305656       0.00432262      -0.00529353
I        5.68472024       1.67488388       9.84622403       0.00305677      -0.00432303       0.00529387
