9
Lattice="6.509681876292609 -6.837989440792861e-08 3.7583667424610003 2.1698939017885257 6.13738676366688 3.7583667294819136 4.4137500501236856e-08 1.5313833855417108e-08 7.516733408473605" Properties=species:S:1:pos:R:3:forces:R:3 energy=-19.867143630981445 free_energy=-19.867143630981445 stress="0.00012985515058971941 -1.1968156243824524e-08 3.9479844393675023e-10 -1.1968156243824524e-08 0.00012986265937797725 6.404878294397065e-10 3.9479844393675023e-10 6.404878294397065e-10 0.00012986466754227877" pbc="T T T"
Cd       2.16989386       1.53434675       3.75836676       0.00000000       0.00000020      -0.00000002
Cd       6.50968191       4.60303999      11.27510034      -0.00000006      -0.00000030       0.00000032
Sn      -0.00000010      -0.00000037       0.00000019       0.00000102       0.00000302      -0.00000000
Br       2.16009865       1.52742046       7.51673331      -0.00081929      -0.00057960      -0.00000003
Br       6.51947717       4.60996660       7.51673332       0.00081752       0.00057799       0.00000042
Br       5.42963250       1.52742048       5.62906729       0.00041030      -0.00058030      -0.00071070
Br       3.24994336       4.60996623       9.40439957      -0.00040929       0.00057921       0.00070945
Br       3.24994342       4.60996619       5.62906721      -0.00040982       0.00057915      -0.00070944
Br       5.42963257       1.52742053       9.40439952       0.00040963      -0.00057940       0.00071003
