9
Lattice="6.250435812611741 -1.2384078316511182e-08 3.608691077789687 2.0834785796498534 5.892967222417224 3.608691100095429 2.7496326799330666e-07 2.2174732643124237e-07 7.217381679328976" Properties=species:S:1:pos:R:3:forces:R:3 energy=-19.388446807861328 free_energy=-19.388446807861328 stress="-0.00010206191655015573 8.62876259333234e-09 -7.479148855793483e-09 8.62876259333234e-09 -0.00010207602463196963 2.409769450650856e-08 -7.479148855793483e-09 2.409769450650856e-08 -0.00010208624007645994" pbc="T T T"
Cd       2.08347891       1.47324293       3.60868948       0.00000113       0.00000132      -0.00000194
Cd       6.25043700       4.41972604      10.82607285       0.00000043       0.00000050      -0.00000040
Se      -0.00000040       0.00000020      -0.00000022       0.00000317      -0.00000271       0.00000252
Cl       1.99953672       1.41388552       7.21738184       0.00029553       0.00020967       0.00000070
Cl       6.33437822       4.47908166       7.21738157      -0.00029698      -0.00020985       0.00000050
Cl       5.25066755       1.41388503       5.34034078      -0.00014830       0.00020917       0.00025713
Cl       3.08324683       4.47908120       9.09442393       0.00014746      -0.00020959      -0.00025621
Cl       3.08324645       4.47908189       5.34034034       0.00014860      -0.00021154       0.00025878
Cl       5.25066741       1.41388526       9.09442484      -0.00015101       0.00021306      -0.00026109
