9
Lattice="5.058124254459659 6.625517625365869e-08 2.9203092692308985 1.6860414487768793 4.768845624009321 2.920309324383511 1.688919197995067e-08 7.949031020122229e-08 5.840618509208906" Properties=species:S:1:pos:R:3:forces:R:3 energy=-31.4708251953125 free_energy=-31.4708251953125 stress="0.00023553959908895195 -3.287531669116106e-08 3.363811629242264e-08 -3.287531669116106e-08 0.00023556590895168483 -6.735167801252828e-08 3.363811629242264e-08 -6.735167801252828e-08 0.00023564536240883172" pbc="T T T"
Cd       1.68604148       1.19221204       2.92030886      -0.00000090       0.00000386      -0.00000365
Cd       5.05812358       3.57663373       8.76092745      -0.00000393      -0.00000375      -0.00000481
Sr       0.00000025       0.00000011      -0.00000003      -0.00000500      -0.00000197      -0.00000275
F        1.81246605       1.28160694       5.84061897       0.00157272       0.00111187       0.00000353
F        4.93169985       3.48723845       5.84061844      -0.00156676      -0.00111102       0.00000172
F        4.15189120       1.28160721       4.48995074      -0.00078407       0.00111209       0.00136046
F        2.59227497       3.48723861       7.19128634       0.00078761      -0.00111192      -0.00135788
F        2.59227436       3.48723813       4.48995110       0.00078232      -0.00110887       0.00135609
F        4.15189122       1.28160797       7.19128660      -0.00078190       0.00110976      -0.00135285
