9
Lattice="5.002171640685332 -2.1262837803673615e-07 2.888004988934075 1.667390387137376 4.716092169777544 2.888004918421982 -2.6801054531662484e-09 -8.825449496051664e-08 5.7760099825102715" Properties=species:S:1:pos:R:3:forces:R:3 energy=-41.346343994140625 free_energy=-41.346343994140625 stress="0.0005623157485388219 6.785781181406492e-08 -2.976352497796597e-08 6.785781181406492e-08 0.0005622887401841581 3.775378942805219e-08 -2.976352497796597e-08 3.775378942805219e-08 0.0005622925818897784" pbc="T T T"
Cd       1.66739154       1.17902276       2.88800561       0.00000460      -0.00000057       0.00000376
Cd       5.00217133       3.53706851       8.66401599       0.00000115      -0.00000219       0.00000417
Sc      -0.00000006      -0.00000001      -0.00000006       0.00000425       0.00000008       0.00000171
F        1.63854512       1.15862682       5.77600963      -0.00574309      -0.00406052      -0.00000149
F        5.03101678       3.55746569       5.77600983       0.00573856       0.00405899      -0.00000096
F        4.18289847       1.15862638       4.30702598       0.00286800      -0.00405765      -0.00497256
F        2.48666234       3.55746588       7.24499280      -0.00287194       0.00406039       0.00497040
F        2.48666345       3.55746559       4.30702611      -0.00286782       0.00405724      -0.00497206
F        4.18289911       1.15862587       7.24499352       0.00286602      -0.00405577       0.00496703
