9
Lattice="6.713209781699358 1.192851829568323e-08 3.875873466263892 2.237736605587539 6.32927486942226 3.875873465499336 2.4468745936186808e-08 1.6365604672206838e-08 7.751746890146723" Properties=species:S:1:pos:R:3:forces:R:3 energy=-13.682619094848633 free_energy=-13.682619094848633 stress="-3.274719711043872e-05 2.7778650490972723e-09 -7.37476635315204e-10 2.7778650490972723e-09 -3.2753192499512807e-05 6.46304076923343e-09 -7.37476635315204e-10 6.46304076923343e-09 -3.276448114775121e-05" pbc="T T T"
Cd       2.23773655       1.58231877       3.87587332      -0.00000009      -0.00000014      -0.00000025
Cd       6.71320986       4.74695608      11.62762066      -0.00000008      -0.00000015       0.00000063
S       -0.00000000      -0.00000013       0.00000027      -0.00000026       0.00000050       0.00000007
I        2.34938818       1.66126839       7.75174697      -0.00179788      -0.00127129       0.00000017
I        6.60155830       4.66800657       7.75174667       0.00179781       0.00127053       0.00000017
I        5.53851576       1.66126849       5.91050328       0.00089929      -0.00127122      -0.00155663
I        3.41243060       4.66800645       9.59299038      -0.00089877       0.00127121       0.00155699
I        3.41243072       4.66800659       5.91050332      -0.00089860       0.00127100      -0.00155708
I        5.53851569       1.66126837       9.59299045       0.00089856      -0.00127043       0.00155595
