9
Lattice="6.348591454264424 -2.9117584493787733e-08 3.6653610235988956 2.1161971370195194 5.9855094177115795 3.6653610009950572 -1.8263000633741332e-08 -4.0597856646159035e-08 7.330722078830281" Properties=species:S:1:pos:R:3:forces:R:3 energy=-16.11904525756836 free_energy=-16.11904525756836 stress="0.00022316222020890564 -2.1648125514417416e-09 1.8278756286349562e-09 -2.1648125514417416e-09 0.00022317808179650456 6.257956375321783e-10 1.8278756286349562e-09 6.257956375321783e-10 0.00022315788373816758" pbc="T T T"
Cd       2.11619726       1.49637750       3.66536082      -0.00000012       0.00000001       0.00000014
Cd       6.34859131       4.48913182      10.99608308       0.00000017       0.00000004       0.00000023
S        0.00000004      -0.00000006       0.00000001      -0.00000008       0.00000014       0.00000039
Br       2.10667013       1.48964066       7.33072209      -0.00123371      -0.00087189      -0.00000028
Br       6.35811834       4.49586864       7.33072203       0.00123306       0.00087190      -0.00000033
Br       5.29525628       1.48964082       5.48979120       0.00061701      -0.00087209      -0.00106847
Br       3.16953234       4.49586847       9.17165300      -0.00061660       0.00087181       0.00106785
Br       3.16953240       4.49586873       5.48979110      -0.00061663       0.00087180      -0.00106812
Br       5.29525617       1.48964080       9.17165310       0.00061695      -0.00087172       0.00106866
