9
Lattice="6.705412224494018 -6.211865251001485e-08 3.8713716516108283 2.2351373712001106 6.321923292993771 3.871371614196004 3.856251016526104e-08 -1.8555810722407524e-08 7.742743236429454" Properties=species:S:1:pos:R:3:forces:R:3 energy=-19.41642951965332 free_energy=-19.41642951965332 stress="1.531884481664747e-05 -6.863527968192784e-09 -5.941503400386239e-10 -6.863527968192784e-09 1.5312332834582776e-05 3.273202597853242e-09 -5.941503400386239e-10 3.273202597853242e-09 1.5323976185754873e-05" pbc="T T T"
Cd       2.23513714       1.58048100       3.87137152       0.00000013       0.00000019      -0.00000041
Cd       6.70541213       4.74144264      11.61411455      -0.00000094       0.00000018      -0.00000070
Sr       0.00000007      -0.00000010       0.00000020      -0.00000041      -0.00000049      -0.00000032
Br       2.39970029       1.69684396       7.74274334      -0.00015420      -0.00010955       0.00000017
Br       6.54084904       4.62507900       7.74274337       0.00015511       0.00011004       0.00000005
Br       5.50556243       1.69684413       5.94957328       0.00007737      -0.00010927      -0.00013310
Br       3.43498779       4.62507878       9.53591343      -0.00007749       0.00010961       0.00013440
Br       3.43498748       4.62507879       5.94957316      -0.00007733       0.00010901      -0.00013465
Br       5.50556214       1.69684466       9.53591314       0.00007775      -0.00010969       0.00013464
