9
Lattice="7.0092252725956525 2.2859505876072915e-09 4.046778085355452 2.3364084302683708 6.60836089822295 4.046778078575167 1.0482247999184301e-08 -8.921224084740413e-10 8.093556152555204" Properties=species:S:1:pos:R:3:forces:R:3 energy=-16.524599075317383 free_energy=-16.524599075317383 stress="8.040435932343826e-05 1.3918464991657942e-10 -4.038507750436793e-09 1.3918464991657942e-10 8.040864486247301e-05 2.310264424210118e-09 -4.038507750436793e-09 2.310264424210118e-09 8.04120791144669e-05" pbc="T T T"
Cd       2.33640860       1.65209029       4.04677789      -0.00000016      -0.00000008      -0.00000033
Cd       7.00922512       4.95627070      12.14033421      -0.00000044      -0.00000010      -0.00000026
Sn      -0.00000032      -0.00000026       0.00000031       0.00000221       0.00000174      -0.00000159
I        2.40902156       1.70343542       8.09355609      -0.00076215      -0.00053948       0.00000024
I        6.93661238       4.90492569       8.09355601       0.00076009       0.00053768       0.00000024
I        5.80471460       1.70343534       6.13305177       0.00038030      -0.00053795      -0.00065947
I        3.54091921       4.90492541      10.05406060      -0.00038023       0.00053854       0.00066040
I        3.54091917       4.90492570       6.13305179      -0.00038032       0.00053807      -0.00065883
I        5.80471453       1.70343531      10.05406060       0.00038068      -0.00053841       0.00065966
