9
Lattice="6.306629531880939 -4.256034879661662e-08 3.6411343510403236 2.102209843159009 5.9459475537623945 3.6411342829274203 5.641095567963659e-08 -4.353228759378375e-08 7.282268604374099" Properties=species:S:1:pos:R:3:forces:R:3 energy=-21.852657318115234 free_energy=-21.852657318115234 stress="0.00015130997053347528 -1.6247470924213303e-08 -9.60086499190993e-09 -1.6247470924213303e-08 0.0001513502502348274 3.4744957133625576e-08 -9.60086499190993e-09 3.4744957133625576e-08 0.00015134421119000763" pbc="T T T"
Cd       2.10220987       1.48648653       3.64113441       0.00000013      -0.00000053      -0.00000009
Cd       6.30662993       4.45946123      10.92340206       0.00000140       0.00000116      -0.00000228
Sr       0.00000006       0.00000011       0.00000023       0.00000032      -0.00000118       0.00000273
Cl       2.24111891       1.58470991       7.28226883      -0.00519668      -0.00367514       0.00000043
Cl       6.16772080       4.36123676       7.28226887       0.00519895       0.00367571       0.00000235
Cl       5.18606972       1.58471044       5.58200062       0.00259998      -0.00367906      -0.00450426
Cl       3.22276892       4.36123743       8.98253621      -0.00260087       0.00367742       0.00450224
Cl       3.22276942       4.36123696       5.58200052      -0.00260122       0.00367751      -0.00450355
Cl       5.18607012       1.58471049       8.98253724       0.00259800      -0.00367591       0.00450240
