9
Lattice="4.6010676672202875 -3.108213073961026e-08 2.6564276563782934 1.533689217524528 4.33792815866513 2.6564276140776926 2.726404384540614e-08 -3.252886896065456e-08 5.312855265533866" Properties=species:S:1:pos:R:3:forces:R:3 energy=-30.238426208496094 free_energy=-30.238426208496094 stress="0.00013614309136755764 -7.51319504388448e-08 1.1128985732966612e-08 -7.51319504388448e-08 0.00013615908392239362 -1.5717094292710954e-09 1.1128985732966612e-08 -1.5717094292710954e-09 0.00013619493984151632" pbc="T T T"
Cd       1.53368923       1.08448208       2.65642766      -0.00000025       0.00000010       0.00000028
Cd       4.60106762       3.25344604       7.96928292      -0.00000008      -0.00000027      -0.00000005
S        0.00000007      -0.00000015       0.00000019       0.00000061       0.00000068      -0.00000209
F        1.55917365       1.10250221       5.31285524      -0.00456554      -0.00322863       0.00000002
F        4.57558312       3.23542579       5.31285527       0.00456631       0.00322890       0.00000001
F        3.82148069       1.10250246       4.00671190       0.00228429      -0.00323157      -0.00395690
F        2.31327629       3.23542567       6.61899849      -0.00228506       0.00323148       0.00395782
F        2.31327629       3.23542573       4.00671189      -0.00228488       0.00323102      -0.00395705
F        3.82148070       1.10250252       6.61899857       0.00228468      -0.00323176       0.00395782
