9
Lattice="7.124367869941831 -3.269419127073594e-07 4.1132559046819335 2.3747890625411054 6.716918258864643 4.113255764724631 4.7959058330816246e-08 -1.3749985711874115e-07 8.226511726296193" Properties=species:S:1:pos:R:3:forces:R:3 energy=-22.451385498046875 free_energy=-22.451385498046875 stress="0.000221613488974981 -1.9288341590595337e-08 9.020172164753149e-09 -1.9288341590595337e-08 0.0002216403663624078 -1.4758326116748322e-08 9.020172164753149e-09 -1.4758326116748322e-08 0.00022164896654430777" pbc="T T T"
Cd       2.37478893       1.67922924       4.11325589      -0.00000007      -0.00000010       0.00000009
Cd       7.12436780       5.03768828      12.33976741       0.00000025      -0.00000031       0.00000005
Ti       0.00000019      -0.00000087       0.00000042       0.00000004       0.00000670      -0.00000221
I        2.24205421       1.58537160       8.22651175      -0.00584306      -0.00413176      -0.00000008
I        7.25710366       5.13154688       8.22651168       0.00583833       0.00412951      -0.00000011
I        6.00334044       1.58537143       6.05493241       0.00292223      -0.00413196      -0.00506198
I        3.49581599       5.13154661      10.39809145      -0.00292050       0.00413064       0.00505897
I        3.49581647       5.13154602       6.05493186      -0.00292110       0.00413174      -0.00505989
I        6.00334024       1.58537192      10.39809067       0.00292394      -0.00413453       0.00506508
