9
Lattice="5.819947343280779 2.229724400974544e-07 3.3601484288332335 1.939983158768124 5.487096065568268 3.360147561443645 4.4431066490449133e-07 -7.481561374781369e-07 6.7202960880984355" Properties=species:S:1:pos:R:3:forces:R:3 energy=-41.9783821105957 free_energy=-41.9783821105957 stress="1.6235637758654775e-06 3.186385910680656e-08 4.2763495855524525e-08 3.186385910680656e-08 1.6535889244551072e-06 -1.2609594080004172e-07 4.2763495855524525e-08 -1.2609594080004172e-07 1.683653636064264e-06" pbc="T T T"
Cd       1.93998069       1.37176893       3.36014578      -0.00000122      -0.00000264      -0.00000059
Cd       5.81994511       4.11531805      10.08044198      -0.00000044      -0.00000263      -0.00000118
Ti       0.00000062      -0.00000023       0.00000055      -0.00000068       0.00000788       0.00000064
F        1.55029630       1.09622684       6.72029522      -0.00026760      -0.00019480       0.00000324
F        6.20963278       4.39087239       6.72029583       0.00027603       0.00019257      -0.00000009
F        5.04480182       1.09622401       4.70274693       0.00013150      -0.00018750      -0.00022802
F        2.71513233       4.39087270       8.73784622      -0.00013365       0.00018694       0.00023392
F        2.71513335       4.39087117       4.70274495      -0.00013806       0.00019614      -0.00024670
F        5.04480025       1.09622841       8.73785153       0.00013417      -0.00019580       0.00023913
