9
Lattice="6.566228091079822 -4.4469795666811775e-09 3.7910135049207163 2.1887426906123517 6.190699175488341 3.791013508768631 3.557849991720211e-08 2.987055306546412e-08 7.582026948217643" Properties=species:S:1:pos:R:3:forces:R:3 energy=-25.956653594970703 free_energy=-25.956653594970703 stress="0.00012155462172813714 -3.447829355351928e-09 4.008528176058235e-09 -3.447829355351928e-09 0.00012157144374214113 -1.6931386292995398e-09 4.008528176058235e-09 -1.6931386292995398e-09 0.00012157778110122308" pbc="T T T"
Cd       2.18874270       1.54767486       3.79101351      -0.00000018       0.00000019       0.00000011
Cd       6.56622818       4.64302447      11.37304037       0.00000042       0.00000002       0.00000007
Ti       0.00000000       0.00000055       0.00000082       0.00000140      -0.00000349      -0.00000681
Br       2.06820285       1.46244052       7.58202692      -0.00210120      -0.00148596      -0.00000024
Br       6.68676804       4.72825849       7.58202705       0.00210205       0.00148624      -0.00000031
Br       5.53212688       1.46244003       5.58212968       0.00104914      -0.00148433      -0.00181826
Br       3.22284427       4.72825838       9.58192377      -0.00105289       0.00148889       0.00182435
Br       3.22284390       4.72825883       5.58212992      -0.00105109       0.00148658      -0.00182167
Br       5.53212653       1.46244066       9.58192373       0.00105241      -0.00148816       0.00182284
