9
Lattice="6.226768452349055 -3.2421141260388865e-07 3.59502686123231 2.0755892603056845 5.870653121594362 3.5950267194488403 3.554703881999928e-08 -1.4851307611824854e-07 7.190053660895288" Properties=species:S:1:pos:R:3:forces:R:3 energy=-28.60890769958496 free_energy=-28.60890769958496 stress="0.00025548157282173634 -4.152698096504537e-08 1.518501413499962e-08 -4.152698096504537e-08 0.0002554598031565547 1.2434548501971676e-08 1.518501413499962e-08 1.2434548501971676e-08 0.00025550444843247533" pbc="T T T"
Cd       2.07558967       1.46766458       3.59502682       0.00000010       0.00000142      -0.00000034
Cd       6.22676802       4.40298964      10.78508122      -0.00000029       0.00000098       0.00000039
V        0.00000013       0.00000050       0.00000069      -0.00000182      -0.00000873      -0.00001464
Cl       1.90505401       1.34707531       7.19005465      -0.00322324      -0.00227751      -0.00000230
Cl       6.39730343       4.52357647       7.19005413       0.00322843       0.00228117      -0.00000072
Cl       5.27424160       1.34707587       5.24485193       0.00161129      -0.00227821      -0.00279206
Cl       3.02811698       4.52357512       9.13525361      -0.00161949       0.00228901       0.00280336
Cl       3.02811648       4.52357660       5.24485221      -0.00161365       0.00227895      -0.00279418
Cl       5.27424062       1.34707651       9.13525367       0.00161868      -0.00228700       0.00280064
