9
Lattice="6.9310373434637125 3.984908011048129e-08 4.001636287164622 2.310345855473733 6.534644472106449 4.001636223513337 7.011886478949257e-08 -2.8375080698081108e-08 8.003272452879825" Properties=species:S:1:pos:R:3:forces:R:3 energy=-22.019559860229492 free_energy=-22.019559860229492 stress="4.952128801960498e-05 9.640656273290915e-09 5.429844573967557e-09 9.640656273290915e-09 4.951726441504434e-05 -5.451655127330923e-09 5.429844573967557e-09 -5.451655127330923e-09 4.949411595589481e-05" pbc="T T T"
Cd       2.31034630       1.63366080       4.00163657       0.00000103       0.00000069       0.00000036
Cd       6.93103754       4.90098389      12.00490851       0.00000002      -0.00000071      -0.00000004
V        0.00000004       0.00000014       0.00000029      -0.00000159      -0.00000165       0.00000038
I        2.19599902       1.55280573       8.00327226       0.00284199       0.00200918       0.00000003
I        7.04538410       4.98183851       8.00327257      -0.00283983      -0.00200765      -0.00000011
I        5.83303744       1.55280632       5.90342683      -0.00142122       0.00200947       0.00246178
I        3.40834556       4.98183816      10.10311824       0.00142054      -0.00200938      -0.00246181
I        3.40834539       4.98183814       5.90342699       0.00142027      -0.00200854       0.00246109
I        5.83303776       1.55280638      10.10311766      -0.00142119       0.00200860      -0.00246173
