9
Lattice="4.984520271035807 4.7859795922885466e-08 2.8778137267766812 1.6615067723771946 4.699450323603492 2.8778137783180955 -1.410402378114137e-07 -3.660551366726182e-08 5.755627697842256" Properties=species:S:1:pos:R:3:forces:R:3 energy=-39.06070327758789 free_energy=-39.06070327758789 stress="-2.0586259779520333e-05 3.8363932475249385e-08 2.5158424676874347e-08 3.8363932475249385e-08 -2.0647661585826427e-05 4.388449426073748e-08 2.5158424676874347e-08 4.388449426073748e-08 -2.0675417545135133e-05" pbc="T T T"
Cd       1.66150663       1.17486351       2.87781574       0.00000047       0.00000530       0.00001199
Cd       4.98451954       3.52458861       8.63343983      -0.00000711       0.00000230      -0.00000527
V       -0.00000037       0.00000006       0.00000002       0.00000449      -0.00000554       0.00000759
F        1.62045793       1.14583571       5.75562667      -0.00220182      -0.00155979      -0.00000318
F        5.02556887       3.55361375       5.75562774       0.00220617       0.00155942       0.00000284
F        4.17429072       1.14583612       4.28117121       0.00110013      -0.00156268      -0.00190851
F        2.47173580       3.55361454       7.23008498      -0.00109671       0.00155564       0.00190490
F        2.47173590       3.55361257       4.28116975      -0.00110526       0.00155462      -0.00191210
F        4.17429308       1.14583677       7.23008474       0.00109967      -0.00154934       0.00190177
