9
Lattice="6.429936463781891 2.809829569841512e-08 3.71232550642547 2.143312218892822 6.06220205871004 3.712325440940821 7.127659275709885e-08 -2.9801786746800504e-08 7.424650889396281" Properties=species:S:1:pos:R:3:forces:R:3 energy=-25.2720947265625 free_energy=-25.2720947265625 stress="0.0003104752395302057 1.8328536910416915e-08 1.591222797969749e-08 1.8328536910416915e-08 0.0003104475326836109 -1.5338248005036803e-08 1.591222797969749e-08 -1.5338248005036803e-08 0.0003104342904407531" pbc="T T T"
Cd       2.14331202       1.51555066       3.71232536      -0.00000012       0.00000007      -0.00000012
Cd       6.42993661       4.54665157      11.13697617      -0.00000024      -0.00000027      -0.00000005
V        0.00000014      -0.00000029       0.00000079      -0.00000148       0.00000262      -0.00000876
Br       2.03785878       1.44098379       7.42465114      -0.00603768      -0.00426942      -0.00000066
Br       6.53538984       4.62121822       7.42465108       0.00603849       0.00426964      -0.00000030
Br       5.41100778       1.44098303       5.47716247       0.00301555      -0.00426497      -0.00522403
Br       3.16224153       4.62121844       9.37213910      -0.00301863       0.00426850       0.00522798
Br       3.16224136       4.62121886       5.47716240      -0.00301635       0.00426546      -0.00522554
Br       5.41100697       1.44098396       9.37213887       0.00302044      -0.00427151       0.00523175
