9
Lattice="7.3388016303816 -6.242564598982903e-08 4.237059088553473 2.4462671636873283 6.919088524279291 4.237059067048789 1.2199675389398315e-08 -1.7711210887202267e-08 8.47411815597639" Properties=species:S:1:pos:R:3:forces:R:3 energy=-23.335145950317383 free_energy=-23.335145950317383 stress="-0.0001047269906848669 6.870918056733899e-09 -4.21741086498173e-09 6.870918056733899e-09 -0.00010473905422259122 6.972781241287862e-10 -4.21741086498173e-09 6.972781241287862e-10 -0.00010474261216586456" pbc="T T T"
Cd       2.44626701       1.72977201       4.23705921       0.00000025      -0.00000031       0.00000029
Cd       7.33880177       5.18931625      12.71117710       0.00000018       0.00000008      -0.00000070
Y       -0.00000049      -0.00000034      -0.00000063       0.00000457       0.00000481       0.00000556
I        2.46002172       1.73949759       8.47411770       0.00243092       0.00172026      -0.00000006
I        7.32504814       5.17959150       8.47411794      -0.00243730      -0.00172494       0.00000140
I        6.10879077       1.73949731       6.36750030      -0.00121456       0.00172143       0.00210661
I        3.67627723       5.17959181      10.58073667       0.00121758      -0.00172517      -0.00211070
I        3.67627791       5.17959049       6.36750005       0.00121759      -0.00172018       0.00210651
I        6.10879115       1.73949710      10.58073694      -0.00121922       0.00172397      -0.00210895
