9
Lattice="6.329170548097086 -5.5687876690160654e-08 3.6541481584130864 2.109723487258207 5.96719945561009 3.6541481173133925 -2.2305080966366277e-08 -6.610866215473269e-08 7.3082963554596585" Properties=species:S:1:pos:R:3:forces:R:3 energy=-29.81256103515625 free_energy=-29.81256103515625 stress="-4.947373963659629e-05 1.6783878731274626e-09 1.4212005794433935e-08 1.6783878731274626e-09 -4.945299951941706e-05 -2.2332999449758972e-08 1.4212005794433935e-08 -2.2332999449758972e-08 -4.947404522681609e-05" pbc="T T T"
Cd       2.10972376       1.49179998       3.65414828       0.00000038       0.00000024      -0.00000038
Cd       6.32917032       4.47539943      10.96244387       0.00000034      -0.00000031      -0.00000042
Y        0.00000017      -0.00000069      -0.00000048      -0.00000207       0.00000917       0.00000826
Cl       2.12642224       1.50360777       7.30829606      -0.00125162      -0.00088480      -0.00000004
Cl       6.31247238       4.46359181       7.30829623       0.00124776       0.00088333       0.00000053
Cl       5.26595912       1.50360771       5.49568427       0.00062689      -0.00088691      -0.00108674
Cl       3.17293440       4.46359179       9.12090931      -0.00062113       0.00087859       0.00107685
Cl       3.17293440       4.46359187       5.49568411      -0.00062530       0.00088463      -0.00108185
Cl       5.26595932       1.50360764       9.12090892       0.00062479      -0.00088388       0.00108389
