9
Lattice="6.707110320137645 -4.881537421002312e-08 3.872351976685188 2.235703343278581 6.323524487244007 3.872352064575793 -3.005585421222644e-08 8.639092848932671e-08 7.744704005428616" Properties=species:S:1:pos:R:3:forces:R:3 energy=-26.72846221923828 free_energy=-26.72846221923828 stress="2.1670331989298575e-05 -1.2729983289716529e-08 2.1243233561119013e-10 -1.2729983289716529e-08 2.168490391341038e-05 -2.0098018804759477e-09 2.1243233561119013e-10 -2.0098018804759477e-09 2.1687495973310433e-05" pbc="T T T"
Cd       2.23570328       1.58088123       3.87235193       0.00000032       0.00000044      -0.00000040
Cd       6.70711017       4.74264313      11.61705603       0.00000015       0.00000016      -0.00000010
Y        0.00000010       0.00000026       0.00000028       0.00000127      -0.00000098      -0.00000136
Br       2.26543418       1.60190415       7.74470400      -0.00143129      -0.00101193       0.00000044
Br       6.67737999       4.72162062       7.74470401       0.00142907       0.00101048      -0.00000031
Br       5.57439303       1.60190403       5.83427566       0.00071588      -0.00101172      -0.00123836
Br       3.36842046       4.72162027       9.65513237      -0.00071595       0.00101274       0.00123968
Br       3.36842040       4.72162032       5.83427569      -0.00071529       0.00101337      -0.00123968
Br       5.57439292       1.60190413       9.65513224       0.00071588      -0.00101255       0.00124011
