9
Lattice="5.214392702365398 1.4140239779035066e-07 3.010530752266052 1.738130974917507 4.916177668834003 3.0105308547798275 6.400386315392743e-08 1.7081082923706993e-07 6.021061393674108" Properties=species:S:1:pos:R:3:forces:R:3 energy=-41.06523132324219 free_energy=-41.06523132324219 stress="0.0003697807260323316 2.3606819610222374e-08 3.47816211387908e-08 2.3606819610222374e-08 0.0003697631473187357 -1.0682847495502301e-08 3.47816211387908e-08 -1.0682847495502301e-08 0.000369884044630453" pbc="T T T"
Cd       1.73813233       1.22904572       3.01053148       0.00000614       0.00000668       0.00000422
Cd       5.21439241       3.68713322       9.03159240      -0.00000196      -0.00000209       0.00000152
Y       -0.00000012      -0.00000008      -0.00000002      -0.00000172      -0.00000049       0.00000015
F        1.75009180       1.23750221       6.02106111      -0.00124868      -0.00088339      -0.00000160
F        5.20243185       3.67867574       6.02106102       0.00125170       0.00088401      -0.00000132
F        4.33934589       1.23750209       4.52615410       0.00062026      -0.00088283      -0.00108439
F        2.61317705       3.67867515       7.51596896      -0.00062433       0.00088060       0.00108375
F        2.61317703       3.67867506       4.52615459      -0.00062652       0.00088184      -0.00108703
F        4.33934681       1.23750264       7.51596821       0.00062502      -0.00088450       0.00108468
