9
Lattice="5.7819652463195625 1.608071034786858e-07 3.3382193798785 1.927321923243593 5.451289637251524 3.338219340283849 3.483792753767599e-08 -2.3859304418368346e-08 6.676438699415962" Properties=species:S:1:pos:R:3:forces:R:3 energy=-19.180150985717773 free_energy=-19.180150985717773 stress="-3.277287760283798e-05 1.4215970622899476e-08 -6.51739195944856e-09 1.4215970622899476e-08 -3.2746753277024254e-05 -5.811850556369791e-09 -6.51739195944856e-09 -5.811850556369791e-09 -3.277259020251222e-05" pbc="T T T"
Cd       1.92732247       1.36282268       3.33821903       0.00000303       0.00000131      -0.00000193
Cd       5.78196488       4.08846650      10.01465784      -0.00000293      -0.00000319      -0.00000019
Zn      -0.00000010      -0.00000029      -0.00000006       0.00000220       0.00000445       0.00000063
Cl       1.93567804       1.36873144       6.67643823      -0.00258580      -0.00182912      -0.00000147
Cl       5.77360907       4.08255980       6.67643851       0.00257769       0.00182530      -0.00000029
Cl       4.81412601       1.36873131       5.01456563       0.00129242      -0.00182632      -0.00223657
Cl       2.89516040       4.08255743       8.33831296      -0.00129057       0.00182608       0.00223695
Cl       2.89516124       4.08255897       5.01456543      -0.00129013       0.00182603      -0.00223392
Cl       4.81412693       1.36873133       8.33831209       0.00129414      -0.00182457       0.00223699
