9
Lattice="6.769004660902631 -1.6080735671723085e-07 3.9080868635940607 2.256334713106035 6.381878987629617 3.9080869021339435 -1.0144537955171036e-07 -2.4531326395322976e-08 7.816173902896612" Properties=species:S:1:pos:R:3:forces:R:3 energy=-13.469193458557129 free_energy=-13.469193458557129 stress="0.00010416778241051361 -9.372075560065696e-09 -3.3540974442303195e-09 -9.372075560065696e-09 0.00010417440353194252 -1.562824696044185e-11 -3.3540974442303195e-09 -1.562824696044185e-11 0.00010417131124995649" pbc="T T T"
Cd       2.25633482       1.59546959       3.90808706       0.00000022      -0.00000061      -0.00000009
Cd       6.76900450       4.78640930      11.72426087      -0.00000009       0.00000079       0.00000078
Zn       0.00000033       0.00000009      -0.00000104      -0.00000227      -0.00000112       0.00000519
I        2.27495589       1.60863693       7.81617359      -0.00432637      -0.00305988       0.00000034
I        6.75038228       4.77324144       7.81617362       0.00432982       0.00306270       0.00000061
I        5.63152626       1.60863777       5.87825792       0.00216543      -0.00306326      -0.00375092
I        3.39381288       4.77324192       9.75409047      -0.00216381       0.00305918       0.00374745
I        3.39381345       4.77324121       5.87825777      -0.00216538       0.00306216      -0.00375108
I        5.63152665       1.60863697       9.75409040       0.00216238      -0.00305989       0.00374775
