9
Lattice="6.2260191545722 4.1286214544521495e-08 3.594593870366607 2.0753397621261076 5.869947215292847 3.594593861688344 5.439890366664701e-09 -6.782067521551577e-09 7.189187731311064" Properties=species:S:1:pos:R:3:forces:R:3 energy=-16.36173439025879 free_energy=-16.36173439025879 stress="0.0001548718282720074 6.164607713188275e-10 3.1173108538951055e-09 6.164607713188275e-10 0.0001548796717543155 -1.6729571061802062e-09 3.1173108538951055e-09 -1.6729571061802062e-09 0.00015486497431993484" pbc="T T T"
Cd       2.07533985       1.46748717       3.59459346       0.00000017       0.00000074      -0.00000060
Cd       6.22601922       4.40246030      10.78378196       0.00000031      -0.00000033       0.00000120
Zn       0.00000025      -0.00000008      -0.00000021      -0.00000348       0.00000077       0.00000168
Br       2.08447671       1.47394774       7.18918772      -0.00601891      -0.00425494       0.00000057
Br       6.21688191       4.39599927       7.18918752       0.00602061       0.00425792      -0.00000006
Br       5.18378082       1.47394804       5.39980407       0.00301089      -0.00425763      -0.00521588
Br       3.11757795       4.39599931       8.97857174      -0.00300942       0.00425427       0.00521171
Br       3.11757835       4.39599950       5.39980420      -0.00301024       0.00425689      -0.00521317
Br       5.18378070       1.47394778       8.97857135       0.00301012      -0.00425762       0.00521462
