9
Lattice="4.646695201711574 2.913072427664686e-08 2.682770756166507 1.5488984052893517 4.380946277733795 2.6827707955634827 -2.4512545733928187e-09 4.6517968070847156e-08 5.365541516578683" Properties=species:S:1:pos:R:3:forces:R:3 energy=-30.751888275146484 free_energy=-30.751888275146484 stress="0.00015306896239053458 5.8939413349889946e-08 1.0541674200226225e-08 5.8939413349889946e-08 0.0001529650908196345 3.63709276030022e-08 1.0541674200226225e-08 3.63709276030022e-08 0.00015304380212910473" pbc="T T T"
Cd       1.54889819       1.09523658       2.68277128      -0.00000022      -0.00000094       0.00000130
Cd       4.64669506       3.28570856       8.04831262      -0.00000003      -0.00000593       0.00000191
Zn      -0.00000002       0.00000006      -0.00000021       0.00000387      -0.00000272       0.00000715
F        1.58577574       1.12131375       5.36554125      -0.00418797      -0.00296021       0.00000039
F        4.60981763       3.25963349       5.36554090       0.00418437       0.00295961       0.00000141
F        3.85380734       1.12131350       4.05609293       0.00209370      -0.00296083      -0.00362390
F        2.34178637       3.25963350       6.67499004      -0.00208886       0.00295880       0.00362203
F        2.34178638       3.25963318       4.05609287      -0.00209455       0.00296193      -0.00362602
F        3.85380760       1.12131290       6.67499056       0.00208959      -0.00294980       0.00361562
