9
Lattice="4.803304536711512 1.3004102921258014e-07 2.773189303914903 1.6011016205819086 4.528599220847612 2.773189328612422 1.444741416069267e-07 1.3240680170154124e-07 5.546378357593255" Properties=species:S:1:pos:R:3:forces:R:3 energy=-25.75055694580078 free_energy=-25.75055694580078 stress="0.0003291708417236805 -1.7519653283670777e-08 3.1651826049028386e-08 -1.7519653283670777e-08 0.0003291695611551404 -7.657605749500362e-08 3.1651826049028386e-08 -7.657605749500362e-08 0.0003290378663223237" pbc="T T T"
Cl       1.60110167       1.13215005       2.77318914      -0.00000145      -0.00000103       0.00000017
Cl       4.80330470       3.39644952       8.31956792       0.00000153      -0.00000027      -0.00000092
Co       0.00000002      -0.00000015       0.00000021      -0.00000287       0.00001095      -0.00000237
F        1.48594828       1.05072421       5.54637827       0.00128469       0.00090721       0.00000045
F        4.91845790       3.47787525       5.54637859      -0.00128292      -0.00091069      -0.00000008
F        4.06033037       1.05072415       4.06005827      -0.00064082       0.00090817       0.00111681
F        2.34407593       3.47787546       7.03269871       0.00064138      -0.00091030      -0.00111466
F        2.34407585       3.47787530       4.06005834       0.00064326      -0.00091091       0.00111411
F        4.06033044       1.05072412       7.03269871      -0.00064266       0.00090712      -0.00111365
