9
Lattice="5.033778938713437 1.5463507738122828e-05 2.9062572688792856 1.6779449789761238 4.745877139869486 2.9062501899085973 5.391009303569877e-07 -8.288752884018588e-06 5.812513604007048" Properties=species:S:1:pos:R:3:forces:R:3 energy=-26.873151779174805 free_energy=-26.873151779174805 stress="0.0005962800933048129 1.8615369299368467e-06 -4.104329491383396e-06 1.8615369299368467e-06 0.0005996840191073716 -1.3207354641053826e-06 -4.104329491383396e-06 -1.3207354641053826e-06 0.0005985592724755406" pbc="T T T"
Cl       1.67789870       1.18621952       2.90618243       0.00018124       0.00089895       0.00017578
Cl       5.03367504       3.55936589       8.71882452       0.00048766       0.00027395      -0.00021519
C       -0.00020742      -0.00023707       0.00009597       0.00396199       0.00484291      -0.00161444
F        1.25296373       0.88598011       5.81254935      -0.00163746      -0.00088578      -0.00014852
F        5.45914853       3.86018077       5.81253775      -0.00422585      -0.00315577      -0.00017024
F        4.40738586       0.88589008       3.99119327      -0.00049901       0.00086188       0.00116134
F        2.30433159       3.86010100       7.63380932       0.00073797      -0.00139844      -0.00115895
F        2.30430981       3.86008631       3.99109886       0.00118357      -0.00189340       0.00225246
F        4.40737913       0.88591475       7.63379366      -0.00019050       0.00045633      -0.00028002
