9
Lattice="4.850078743593604 6.30326588500022e-08 2.800194531301593 1.6166929730583273 4.572698800573062 2.8001945328615245 1.058365451985113e-07 7.674826186138379e-08 5.600388879288937" Properties=species:S:1:pos:R:3:forces:R:3 energy=-27.19001007080078 free_energy=-27.19001007080078 stress="0.00029028806602582335 3.8894487630614094e-08 -2.03936281195638e-08 3.8894487630614094e-08 0.0002907846646849066 2.2262258703165116e-09 -2.03936281195638e-08 2.2262258703165116e-09 0.0002906030276790261" pbc="T T T"
Cl       1.61669290       1.14317476       2.80019447      -0.00000043       0.00000171      -0.00000013
Cl       4.85007876       3.42952375       8.40058362       0.00000065       0.00000001       0.00000071
Fe      -0.00000003       0.00000011      -0.00000009      -0.00000210       0.00000134       0.00000058
F        1.59072439       1.12481209       5.60038891      -0.00221044      -0.00156221       0.00000055
F        4.87604757       3.44788704       5.60038895       0.00220960       0.00156274      -0.00000055
F        4.05471664       1.12481200       4.17780213       0.00110608      -0.00156337      -0.00191528
F        2.41205529       3.44788694       7.02297575      -0.00110492       0.00156128       0.00191283
F        2.41205505       3.44788700       4.17780224      -0.00110519       0.00156310      -0.00191474
F        4.05471666       1.12481207       7.02297567       0.00110674      -0.00156426       0.00191623
