9
Lattice="5.052113486463406 1.82575817034977e-07 2.9168391472824924 1.6840379849533507 4.763178801801195 2.916839174998564 -1.6754677374885585e-08 2.209782725138423e-08 5.833678323584884" Properties=species:S:1:pos:R:3:forces:R:3 energy=-28.530990600585938 free_energy=-28.530990600585938 stress="0.0001956961496034637 -1.448184505647987e-08 2.8200862089988732e-08 -1.448184505647987e-08 0.00019552141020540148 -2.57452477114839e-08 2.8200862089988732e-08 -2.57452477114839e-08 0.0001955293264472857" pbc="T T T"
Cl       1.68403862       1.19079520       2.91683943      -0.00000126       0.00000011      -0.00000066
Cl       5.05211324       3.57238354       8.75051772       0.00000125      -0.00000079       0.00000040
Ge      -0.00000008       0.00000022      -0.00000029      -0.00000556      -0.00000032       0.00001215
F        1.51771460       1.07318617       5.83367848       0.00083125       0.00058973       0.00000015
F        5.21843679       3.68999284       5.83367810      -0.00082898      -0.00058639      -0.00000023
F        4.29325640       1.07318583       4.23121896      -0.00041401       0.00058734       0.00071561
F        2.44289484       3.68999310       7.43613805       0.00041837      -0.00059241      -0.00072527
F        2.44289512       3.68999284       4.23121828       0.00041491      -0.00058693       0.00071824
F        4.29325641       1.07318642       7.43613785      -0.00041664       0.00059015      -0.00072002
