9
Lattice="5.175080069171497 -2.1869409871280385e-07 2.987833670432264 1.7250264799957427 4.8791117793443 2.9878336765660047 -3.2200141412349025e-07 -2.2017710755195639e-07 5.975667898587381" Properties=species:S:1:pos:R:3:forces:R:3 energy=-41.19780731201172 free_energy=-41.19780731201172 stress="-1.8869550331146456e-05 -7.190384287980578e-09 2.3042652230742533e-08 -7.190384287980578e-09 -1.8770251699606888e-05 -1.8258495160239363e-08 2.3042652230742533e-08 -1.8258495160239363e-08 -1.8845059457817115e-05" pbc="T T T"
Cl       1.72502629       1.21977784       2.98783394       0.00000000      -0.00000097      -0.00000056
Cl       5.17507987       3.65933330       8.96350125      -0.00000056       0.00000107       0.00000032
Hf       0.00000005       0.00000009       0.00000015      -0.00000159       0.00000220      -0.00000335
F        1.65777896       1.17222611       5.97566796       0.00040090       0.00028434       0.00000075
F        5.24232750       3.70688533       5.97566727      -0.00040275      -0.00028524      -0.00000029
F        4.34619019       1.17222684       4.42351204      -0.00019988       0.00028488       0.00034815
F        2.55391580       3.70688471       7.52782324       0.00020146      -0.00028422      -0.00034869
F        2.55391557       3.70688520       4.42351251       0.00020209      -0.00028574       0.00035030
F        4.34619055       1.17222619       7.52782264      -0.00019947       0.00028366      -0.00034678
