9
Lattice="5.473515677116299 3.3141206796179565e-07 3.160135716095493 1.8245053287632131 5.1604809243121466 3.160136078787899 -1.3837054188124023e-07 3.4636281483446825e-07 6.320271671855956" Properties=species:S:1:pos:R:3:forces:R:3 energy=-31.3790340423584 free_energy=-31.3790340423584 stress="-7.442023343173787e-05 -2.3208539090546765e-08 -8.284615660159034e-09 -2.3208539090546765e-08 -7.434760482283309e-05 2.1739261057973636e-08 -8.284615660159034e-09 2.1739261057973636e-08 -7.437780732288957e-05" pbc="T T T"
Cl       1.82450564       1.29012117       3.16013594       0.00000052      -0.00000047       0.00000063
Cl       5.47351527       3.87036075       9.48040788      -0.00000077       0.00000004       0.00000052
Ir       0.00000015      -0.00000000      -0.00000059      -0.00000322      -0.00001559       0.00004248
F        1.52964794       1.08162541       6.32027171       0.00058864       0.00041327      -0.00000156
F        5.76837250       4.07885584       6.32027198      -0.00057873      -0.00040770      -0.00000101
F        4.70869161       1.08162551       4.48485052      -0.00028729       0.00040432       0.00049456
F        2.58932922       4.07885614       8.15569291       0.00029454      -0.00041347      -0.00050955
F        2.58932946       4.07885591       4.48485070       0.00028475      -0.00040059       0.00049034
F        4.70869169       1.08162561       8.15569259      -0.00029845       0.00042027      -0.00051663
