9
Lattice="9.546182911377914 1.2319497816315356e-06 5.511491326039082 3.1820617817025982 9.000227056664958 5.5114919326901735 -1.6134979742232662e-06 -3.9792295805039146e-07 11.022985446739092" Properties=species:S:1:pos:R:3:forces:R:3 energy=-33.995262145996094 free_energy=-33.995262145996094 stress="-2.9776996598229744e-05 -4.120019436726352e-09 2.719331249068091e-08 -4.120019436726352e-09 -2.9760063625872135e-05 -2.089222128631718e-08 2.719331249068091e-08 -2.089222128631718e-08 -2.9734097552136518e-05" pbc="T T T"
Cl       3.18205867       2.25005530       5.51148965      -0.00000183       0.00000246       0.00000022
Cl       9.54617814       6.75017027      16.53447653       0.00000151       0.00000145      -0.00000011
Mn      -0.00000057      -0.00000432       0.00000234       0.00004105       0.00010119      -0.00006191
F        1.49219452       1.05513911      11.02298307      -0.00213903      -0.00151354       0.00000073
F       11.23605316       7.94509003      11.02298518       0.00206941       0.00145996       0.00000016
F        8.80009036       1.05514096       6.80376948       0.00104675      -0.00148475      -0.00181663
F        3.92815425       7.94508699      15.24219838      -0.00105131       0.00148600       0.00182122
F        3.92815966       7.94508741       6.80376702      -0.00104088       0.00146967      -0.00180358
F        8.80008362       1.05514388      15.24219952       0.00107417      -0.00152272       0.00185972
