9
Lattice="5.560651828421565 3.998776121729644e-08 3.2104436900893396 1.8535506718219967 5.2426326343064416 3.2104436473988485 1.567751429926508e-07 5.8571868311192706e-08 6.420887108636101" Properties=species:S:1:pos:R:3:forces:R:3 energy=-35.12131118774414 free_energy=-35.12131118774414 stress="-3.30362054228317e-05 -1.1585850501205641e-07 -3.954722416210643e-08 -1.1585850501205641e-07 -3.297022340120748e-05 6.691850984452685e-08 -3.954722416210643e-08 6.691850984452685e-08 -3.2948461011983454e-05" pbc="T T T"
Cl       1.85355303       1.31065884       3.21044474       0.00000040      -0.00000099       0.00000032
Cl       5.56065143       3.93197364       9.63132982      -0.00000051      -0.00000055       0.00000045
Mo       0.00000033      -0.00000049       0.00000170      -0.00005102       0.00000746      -0.00010991
F        1.53026943       1.08206370       6.42088720      -0.00025007      -0.00017601       0.00000075
F        5.88393214       4.16056847       6.42088805       0.00028117       0.00019874      -0.00000238
F        4.79551646       1.08206450       4.53569588       0.00012954      -0.00018081      -0.00022095
F        2.61868649       4.16056817       8.30607741      -0.00015181       0.00021194       0.00025967
F        2.61868494       4.16056884       4.53569590      -0.00011499       0.00016356      -0.00019871
F        4.79551670       1.08206500       8.30607710       0.00015695      -0.00022364       0.00027156
