9
Lattice="4.593558940191746 -1.28689299406917e-08 2.6520925414290217 1.5311862736215955 4.330848845493804 2.652092589307618 -4.2402449338340646e-08 2.865598874295693e-08 5.304185156301255" Properties=species:S:1:pos:R:3:forces:R:3 energy=-39.73051452636719 free_energy=-39.73051452636719 stress="-4.049691415275447e-05 -4.765341010681823e-09 1.6177145312212815e-07 -4.765341010681823e-09 -4.0631068259244785e-05 -1.2352377609659015e-07 1.6177145312212815e-07 -1.2352377609659015e-07 -4.061346044181846e-05" pbc="T T T"
Cl       1.53118626       1.08271215       2.65209263       0.00000302       0.00000211      -0.00000389
Cl       4.59355916       3.24813658       7.95627781      -0.00000412      -0.00000112      -0.00000378
Nb      -0.00000008      -0.00000000       0.00000008       0.00000220       0.00000200      -0.00000226
F        1.55490615       1.09948473       5.30418509       0.00324458       0.00229195       0.00000330
F        4.56983887       3.23136420       5.30418506      -0.00324637      -0.00229570       0.00000183
F        3.81610575       1.09948475       3.99868088      -0.00162442       0.00229260       0.00280854
F        2.30863929       3.23136427       6.60968932       0.00162525      -0.00229707      -0.00280577
F        2.30863955       3.23136411       3.99868092       0.00162114      -0.00229225       0.00280452
F        3.81610568       1.09948457       6.60968934      -0.00162072       0.00229764      -0.00280318
