9
Lattice="4.695626596787977 9.297493826651105e-09 2.7110213761050117 1.5652088715640518 4.4270790396692625 2.711021380950774 5.797627576598579e-08 4.6930255454891066e-08 5.422042651792159" Properties=species:S:1:pos:R:3:forces:R:3 energy=-34.698936462402344 free_energy=-34.698936462402344 stress="-0.0001687062467681244 3.550780292016498e-08 7.799607182334967e-09 3.550780292016498e-08 -0.00016885307559277862 -2.8410722663352317e-08 7.799607182334967e-09 -2.8410722663352317e-08 -0.0001688235643086955" pbc="T T T"
Cl       1.56520895       1.10676980       2.71102120      -0.00000103       0.00000023      -0.00000020
Cl       4.69562649       3.32030929       8.13306403       0.00000505       0.00000014       0.00000122
Os       0.00000006      -0.00000001      -0.00000025      -0.00000264      -0.00000111       0.00001980
F        1.52674270       1.07957000       5.42204267       0.00480948       0.00340303      -0.00000032
F        4.73409286       3.34750912       5.42204270      -0.00480628      -0.00340176      -0.00000029
F        3.93225523       1.07957006       4.03321951      -0.00240187       0.00339817       0.00416240
F        2.32858022       3.34750912       6.81086619       0.00240587      -0.00340602      -0.00417329
F        2.32858019       3.34750901       4.03321937       0.00240088      -0.00339746       0.00416407
F        3.93225544       1.07957006       6.81086623      -0.00240967       0.00340489      -0.00417352
