9
Lattice="4.68475480500236 8.031656082387812e-08 2.704744557192358 1.5615849890640654 4.416829434153569 2.704744594708418 1.992145494892606e-08 6.003417722639375e-08 5.409489079879749" Properties=species:S:1:pos:R:3:forces:R:3 energy=-25.442373275756836 free_energy=-25.442373275756836 stress="-0.00017320808547083288 -2.5849937301813952e-08 3.909329393536609e-08 -2.5849937301813952e-08 -0.00017301712068729103 1.0672266403943809e-09 3.909329393536609e-08 1.0672266403943809e-09 -0.0001730503427097574" pbc="T T T"
Cl       1.56158482       1.10420742       2.70474465       0.00000171       0.00000001      -0.00000143
Cl       4.68475488       3.31262193       8.11423358       0.00000037       0.00000140      -0.00000098
Pt       0.00000002       0.00000014       0.00000025       0.00000443      -0.00000868      -0.00002356
F        1.55930539       1.10259551       5.40948921      -0.00719898      -0.00509208       0.00000116
F        4.68703442       3.31423406       5.40948913       0.00720071       0.00509320       0.00000134
F        3.90510222       1.10259555       4.05514256       0.00359631      -0.00508947      -0.00622804
F        2.34123774       3.31423398       6.76383550      -0.00360495       0.00509848       0.00624663
F        2.34123765       3.31423412       4.05514264      -0.00360041       0.00509269      -0.00623655
F        3.90510215       1.10259554       6.76383551       0.00360099      -0.00509559       0.00624146
