9
Lattice="5.363198424664313 -1.4980372753005808e-07 3.096444073768779 1.7877326226815309 5.056472026724293 3.096444150504795 -1.76422465136653e-07 -3.076743987065231e-08 6.192888453110237" Properties=species:S:1:pos:R:3:forces:R:3 energy=-25.819414138793945 free_energy=-25.819414138793945 stress="-6.395375748979859e-06 9.757387786635263e-09 -2.4462247338874477e-08 9.757387786635263e-09 -6.387262601492694e-06 3.61800154280445e-08 -2.4462247338874477e-08 3.61800154280445e-08 -6.409327852452407e-06" pbc="T T T"
Cl       1.78773293       1.26411793       3.09644402       0.00000063      -0.00000085      -0.00000035
Cl       5.36319836       3.79235436       9.28933238       0.00000018       0.00000061      -0.00000035
Pb      -0.00000023       0.00000008      -0.00000020       0.00000173      -0.00000369       0.00000369
F        1.67727465       1.18601194       6.19288848       0.00148171       0.00104763       0.00000020
F        5.47365609       3.87045967       6.19288850      -0.00148156      -0.00104700       0.00000028
F        4.52456109       1.18601232       4.54900638      -0.00074048       0.00104742       0.00128287
F        2.62636976       3.87045959       7.83677019       0.00074002      -0.00104724      -0.00128293
F        2.62636969       3.87045954       4.54900659       0.00074099      -0.00104737       0.00128371
F        4.52456105       1.18601219       7.83677037      -0.00074324       0.00105044      -0.00128704
