9
Lattice="5.122871215546772 -2.2836271727219017e-07 2.957691139303259 1.707623618253624 4.8298886634458045 2.957690974688313 -1.3913678737264314e-08 -2.114497337593145e-07 5.915382302705688" Properties=species:S:1:pos:R:3:forces:R:3 energy=-24.302091598510742 free_energy=-24.302091598510742 stress="0.00012624177907127887 1.0353687684983015e-07 -1.6771329214293473e-08 1.0353687684983015e-07 0.0001254487142432481 1.6104229061397746e-08 -1.6771329214293473e-08 1.6104229061397746e-08 0.00012606695236172527" pbc="T T T"
Cl       1.70762347       1.20747179       2.95769098       0.00000097       0.00000050       0.00000004
Cl       5.12287111       3.62241609       8.87307358       0.00000015      -0.00000038      -0.00000060
Pd      -0.00000011       0.00000015      -0.00000006       0.00000169      -0.00000622      -0.00001004
F        1.55002514       1.09603306       5.91538225      -0.00184682      -0.00130560      -0.00000001
F        5.28047000       3.73385518       5.91538211       0.00184782       0.00130704       0.00000077
F        4.34785875       1.09603251       4.30005206       0.00091807      -0.00129962      -0.00159167
F        2.48263610       3.73385559       7.53071248      -0.00092310       0.00130604       0.00159851
F        2.48263591       3.73385568       4.30005183      -0.00092013       0.00130104      -0.00159323
F        4.34785886       1.09603271       7.53071273       0.00092151      -0.00130286       0.00159589
