9
Lattice="4.493281868418783 1.4122568232291967e-07 2.5941975019311467 1.4977607364024645 4.2363067532023475 2.5941975357973117 1.0744085025709434e-07 1.1744956783490821e-07 5.188394817769277" Properties=species:S:1:pos:R:3:forces:R:3 energy=-30.77633285522461 free_energy=-30.77633285522461 stress="-0.00038293504621833563 -4.554929944333708e-08 2.1694923191262205e-07 -4.554929944333708e-08 -0.0003830186033155769 -8.971581877403878e-08 2.1694923191262205e-07 -8.971581877403878e-08 -0.00038277971907518804" pbc="T T T"
Cl       1.49776055       1.05907675       2.59419706       0.00000584      -0.00000075      -0.00000523
Cl       4.49328226       3.17723011       7.78259276      -0.00000201      -0.00000109       0.00000511
P       -0.00000000       0.00000015       0.00000016      -0.00000079      -0.00000122      -0.00000628
F        1.37880308       0.97496116       5.18839456      -0.00182277      -0.00128943      -0.00000044
F        4.61223940       3.26134589       5.18839521       0.00182414       0.00129187       0.00000249
F        3.80388040       0.97496118       3.78827623       0.00090709      -0.00128889      -0.00158215
F        2.18716234       3.26134587       6.58851366      -0.00090882       0.00128973       0.00158381
F        2.18716227       3.26134568       3.78827609      -0.00091055       0.00128895      -0.00158244
F        3.80388058       0.97496142       6.58851366       0.00090829      -0.00128871       0.00158304
