9
Lattice="4.651183709397055 5.733386310597032e-08 2.6853622276778766 1.5503945653591131 4.38517840438991 2.6853623289938318 -9.385227003298303e-08 5.772261649223528e-08 5.370724617912668" Properties=species:S:1:pos:R:3:forces:R:3 energy=-39.46120071411133 free_energy=-39.46120071411133 stress="0.00015405204612761736 -5.923111245920154e-08 1.3062965820154204e-08 -5.923111245920154e-08 0.00015414485824294388 4.126092179035368e-08 1.3062965820154204e-08 4.126092179035368e-08 0.00015423983859363943" pbc="T T T"
Cl       1.55039463       1.09629475       2.68536223      -0.00000203       0.00000072       0.00000054
Cl       4.65118370       3.28888376       8.05608694       0.00000060       0.00000289       0.00000080
Re      -0.00000003      -0.00000008       0.00000005       0.00000264       0.00000082      -0.00000851
F        1.50798604       1.06630731       5.37072463      -0.00632301      -0.00447361       0.00000001
F        4.69359213       3.31887117       5.37072439       0.00632322       0.00447021       0.00000041
F        3.89719056       1.06630734       3.99131666       0.00316349      -0.00447337      -0.00547791
F        2.30438752       3.31887119       6.75013261      -0.00316656       0.00447701       0.00548238
F        2.30438760       3.31887120       3.99131677      -0.00316261       0.00447288      -0.00547892
F        3.89719057       1.06630735       6.75013246       0.00316469      -0.00447762       0.00548092
