9
Lattice="5.315468355137599 5.402805127091846e-08 3.068886926780057 1.7718228317339637 5.011471410009867 3.0688869341414473 -3.789615114637007e-09 6.336162419871984e-09 6.137773860123878" Properties=species:S:1:pos:R:3:forces:R:3 energy=-32.60821533203125 free_energy=-32.60821533203125 stress="0.00024017180840019137 3.2741343858333494e-08 -3.290776007247587e-08 3.2741343858333494e-08 0.0002402553363936022 7.616415942379717e-09 -3.290776007247587e-08 7.616415942379717e-09 0.0002401847596047446" pbc="T T T"
Cl       1.77182252       1.25286881       3.06888707       0.00000058      -0.00000184       0.00000021
Cl       5.31546874       3.75860343       9.20666044      -0.00000036      -0.00000115       0.00000150
Ru      -0.00000009      -0.00000022      -0.00000018      -0.00000791      -0.00000244      -0.00000691
F        1.53969460       1.08872871       6.13777378      -0.00021380      -0.00015202      -0.00000023
F        5.54759612       3.92274223       6.13777405       0.00022143       0.00015745      -0.00000054
F        4.54562100       1.08872876       4.40230186       0.00010726      -0.00015250      -0.00018585
F        2.54167024       3.92274262       7.87324566      -0.00010905       0.00015464       0.00019008
F        2.54167031       3.92274233       4.40230192      -0.00010666       0.00015271      -0.00018591
F        4.54562106       1.08872891       7.87324610       0.00010887      -0.00015503       0.00018829
