9
Lattice="5.374143118002867 -6.364411784288243e-08 3.1027629666605074 1.7913811036798544 5.066790188902438 3.102762751280272 4.465767739026208e-08 -2.3220799729786255e-07 6.205525855971607" Properties=species:S:1:pos:R:3:forces:R:3 energy=-28.044536590576172 free_energy=-28.044536590576172 stress="5.520886406884529e-05 5.606118236300972e-08 -1.413234773650629e-08 5.606118236300972e-08 5.515154043678194e-05 2.9661835654337665e-08 -1.413234773650629e-08 2.9661835654337665e-08 5.5135715228971094e-05" pbc="T T T"
Cl       1.79138082       1.26669743       3.10276272      -0.00000019       0.00000060       0.00000056
Cl       5.37414364       3.80009237       9.30828830      -0.00000012       0.00000012       0.00000003
Rh       0.00000001      -0.00000019      -0.00000028      -0.00000210       0.00001131       0.00003518
F        1.54170297       1.09014847       6.20552597       0.00314367       0.00222237      -0.00000010
F        5.62382131       3.97664157       6.20552543      -0.00314656      -0.00222594       0.00000024
F        4.60329167       1.09014842       4.43791713      -0.00156704       0.00221682       0.00271386
F        2.56223233       3.97664149       7.97313516       0.00158069      -0.00223431      -0.00273708
F        2.56223262       3.97664156       4.43791671       0.00157088      -0.00222361       0.00272140
F        4.60329183       1.09014827       7.97313494      -0.00157921       0.00223254      -0.00273418
