9
Lattice="4.485186190427962 -2.672676743195043e-08 2.5895234412350803 1.4950620678190882 4.228673932405888 2.58952339006797 6.705063089545025e-08 -1.5254693801340706e-08 5.179046766335062" Properties=species:S:1:pos:R:3:forces:R:3 energy=-25.177169799804688 free_energy=-25.177169799804688 stress="-5.6626551668159664e-05 -1.7392027373830388e-08 -2.2219287743041605e-08 -1.7392027373830388e-08 -5.636599598801695e-05 -4.4087407502502174e-08 -2.2219287743041605e-08 -4.4087407502502174e-08 -5.630631494568661e-05" pbc="T T T"
Cl       1.49506205       1.05716849       2.58952350       0.00000079      -0.00000227      -0.00000419
Cl       4.48518612       3.17150536       7.76857018       0.00000233      -0.00000186       0.00000602
Se      -0.00000026      -0.00000031      -0.00000007      -0.00000402      -0.00000200      -0.00000004
F        1.45028068       1.02550317       5.17904674      -0.00080407      -0.00056702       0.00000396
F        4.52996786       3.20317084       5.17904691       0.00080246       0.00057209      -0.00000666
F        3.76004590       1.02550312       3.84550325       0.00040513      -0.00056940      -0.00069731
F        2.22020240       3.20317088       6.51259041      -0.00040442       0.00056875       0.00069410
F        2.22020241       3.20317082       3.84550310      -0.00039953       0.00057143      -0.00069416
F        3.76004610       1.02550322       6.51259034       0.00040099      -0.00057006       0.00069743
