9
Lattice="5.130294185817079 7.245793707939733e-07 2.9619765558269764 1.7100984423793704 4.836887056244723 2.9619770801180625 1.7473783634645636e-06 1.8777059824203856e-06 5.92395008510607" Properties=species:S:1:pos:R:3:forces:R:3 energy=-32.65217971801758 free_energy=-32.65217971801758 stress="-5.049919127486646e-05 3.619672028776222e-08 -2.8500471316306175e-08 3.619672028776222e-08 -5.10980753460899e-05 -2.3601826626418188e-07 -2.8500471316306175e-08 -2.3601826626418188e-07 -5.070720726507716e-05" pbc="T T T"
Cl       1.71009919       1.20922218       2.96197249       0.00000206       0.00000178       0.00000130
Cl       5.13029543       3.62766703       8.88593001      -0.00000140       0.00000093      -0.00000046
Si      -0.00000013       0.00000014      -0.00000013       0.00000043      -0.00000169      -0.00000178
F        1.41350847       0.99950266       5.92394981       0.00049448       0.00034940       0.00000102
F        5.42688602       3.83738711       5.92395445      -0.00049412      -0.00035167      -0.00000190
F        4.42354062       0.99950047       4.18610930      -0.00024849       0.00035489       0.00043297
F        2.41685378       3.83738983       7.66179416       0.00024813      -0.00035536      -0.00043058
F        2.41685193       3.83738680       4.18610975       0.00024861      -0.00035155       0.00042820
F        4.42354260       0.99950278       7.66179402      -0.00024861       0.00035238      -0.00042951
