9
Lattice="4.529816161464933 -1.0606418358281615e-07 2.6152905836771625 1.5099386674123114 4.270751354302873 2.615290502405403 3.371519235120276e-08 -7.569691687861884e-08 5.230581108957888" Properties=species:S:1:pos:R:3:forces:R:3 energy=-27.953643798828125 free_energy=-27.953643798828125 stress="-2.9585175070678815e-05 2.2616964301391818e-08 3.1050220172801346e-08 2.2616964301391818e-08 -2.9235659894766286e-05 8.639449333713856e-08 3.1050220172801346e-08 8.639449333713856e-08 -2.9386919777607545e-05" pbc="T T T"
Cl       1.50993867       1.06768770       2.61529053       0.00000065      -0.00000355       0.00000010
Cl       4.52981612       3.20306334       7.84587145       0.00000180       0.00000508       0.00000328
S        0.00000021       0.00000005      -0.00000002      -0.00000474      -0.00000347      -0.00000172
F        1.30478735       0.92262391       5.23058108       0.00065196       0.00046062      -0.00000037
F        4.73496752       3.34812720       5.23058108      -0.00065386      -0.00045627      -0.00000291
F        3.87742234       0.92262398       3.74526961      -0.00032443       0.00045770       0.00056386
F        2.16233238       3.34812738       6.71589266       0.00032789      -0.00045782      -0.00056529
F        2.16233245       3.34812730       3.74526955       0.00032616      -0.00045782       0.00056446
F        3.87742237       0.92262380       6.71589286      -0.00032532       0.00045681      -0.00056422
