9
Lattice="4.628579434332117 -5.593073217776028e-08 2.6723116938077425 1.5428597812823943 4.363866507700056 2.6723116547147376 1.4651315591349181e-08 -3.751891735287593e-08 5.344623362238655" Properties=species:S:1:pos:R:3:forces:R:3 energy=-28.311702728271484 free_energy=-28.311702728271484 stress="-0.0002498113317415118 -3.614097821014184e-08 -1.5011790921448664e-08 -3.614097821014184e-08 -0.0002499144757166505 -4.920421403653563e-08 -1.5011790921448664e-08 -4.920421403653563e-08 -0.00024996738648042083" pbc="T T T"
Cl       1.54285988       1.09096652       2.67231174      -0.00000310      -0.00000139      -0.00000128
Cl       4.62857932       3.27289989       8.01693493       0.00000514       0.00000125      -0.00000175
Te      -0.00000009      -0.00000006      -0.00000002       0.00000647       0.00000661      -0.00000164
F        1.52884299       1.08105524       5.34462348       0.00058055       0.00041363       0.00000011
F        4.64259635       3.28281118       5.34462334      -0.00058779      -0.00041905      -0.00000066
F        3.86415802       1.08105525       3.99632854      -0.00029099       0.00041267       0.00050867
F        2.30728121       3.28281114       6.69291816       0.00029089      -0.00041366      -0.00050864
F        2.30728130       3.28281120       3.99632848       0.00028934      -0.00041261       0.00050917
F        3.86415791       1.08105519       6.69291821      -0.00029033       0.00041255      -0.00050390
