9
Lattice="5.161777798717528 5.104963698097031e-08 2.9801536205926804 1.7205925990488178 4.866570905914668 2.9801537048634277 1.670610704197068e-07 2.2134017728306086e-07 5.960306951827118" Properties=species:S:1:pos:R:3:forces:R:3 energy=-36.241519927978516 free_energy=-36.241519927978516 stress="0.00045175341074354947 6.007306296851311e-08 -5.246827328164727e-08 6.007306296851311e-08 0.00045171380043029785 -1.0341259404356151e-08 -5.246827328164727e-08 -1.0341259404356151e-08 0.0004518222704064101" pbc="T T T"
Cl       1.72059262       1.21664240       2.98015335      -0.00000045       0.00000067      -0.00000042
Cl       5.16177793       3.64992882       8.94046122       0.00000018      -0.00000141      -0.00000021
Ti       0.00000015      -0.00000007       0.00000017      -0.00000027       0.00000168       0.00000270
F        1.56742383       1.10833633       5.96030665      -0.00178623      -0.00126278       0.00000116
F        5.31494658       3.75823488       5.96030745       0.00178599       0.00126255      -0.00000114
F        4.37806569       1.10833597       4.33758245       0.00089622      -0.00126457      -0.00155085
F        2.50430476       3.75823538       7.58303175      -0.00089449       0.00126344       0.00154960
F        2.50430449       3.75823454       4.33758250      -0.00089365       0.00126487      -0.00154936
F        4.37806620       1.10833647       7.58303164       0.00089318      -0.00126433       0.00154901
