9
Lattice="4.566188830515909 1.4227106604211571e-07 2.6362901975430026 1.5220629754956034 4.305044181871905 2.6362903744618618 -1.7075687835233498e-07 9.59371187347809e-08 5.27258069084559" Properties=species:S:1:pos:R:3:forces:R:3 energy=-42.49697494506836 free_energy=-42.49697494506836 stress="0.00010895902960328385 2.3210496635783784e-08 7.314761774068756e-08 2.3210496635783784e-08 0.00010893103171838447 -5.082128851086054e-08 7.314761774068756e-08 -5.082128851086054e-08 0.00010883832874242216" pbc="T T T"
Cl       1.52206262       1.07626107       2.63628998      -0.00000034      -0.00000092      -0.00000164
Cl       4.56618873       3.22878324       7.90887122      -0.00000225       0.00000037      -0.00000025
Ta       0.00000018       0.00000017       0.00000017       0.00000217       0.00000091       0.00000639
F        1.55281526       1.09800652       5.27258043       0.00443779       0.00313501      -0.00000004
F        4.53543665       3.20703813       5.27258063      -0.00443792      -0.00313936       0.00000062
F        3.78978092       1.09800628       3.98106762      -0.00222043       0.00314191       0.00384843
F        2.29847053       3.20703824       6.56409344       0.00222399      -0.00314330      -0.00384892
F        2.29847048       3.20703771       3.98106790       0.00221809      -0.00313601       0.00384258
F        3.78978117       1.09800631       6.56409367      -0.00222069       0.00314157      -0.00384792
