9
Lattice="9.65990762820965 1.5092213045053927e-06 5.57714749321667 3.2199696027468456 9.107450430964668 5.577149276473219 -1.78497793576081e-06 9.21865407909136e-07 11.154298078104645" Properties=species:S:1:pos:R:3:forces:R:3 energy=-37.92060470581055 free_energy=-37.92060470581055 stress="-3.001479626618675e-06 5.5678381016832645e-08 -7.506327648343358e-08 5.5678381016832645e-08 -2.997232513735071e-06 8.839330689625058e-08 -7.506327648343358e-08 8.839330689625058e-08 -3.039187049580505e-06" pbc="T T T"
Cl       3.21997142       2.27686566       5.57714870      -0.00000202       0.00000261      -0.00000030
Cl       9.65990666       6.83059206      16.73144561      -0.00000188      -0.00000009       0.00000160
V       -0.00005802       0.00000286      -0.00000669       0.00270671      -0.00018558       0.00034586
F        1.47034343       1.03969426      11.15429674      -0.00030872      -0.00024369       0.00000604
F       11.40956904       8.06778469      11.15429816      -0.00145599      -0.00105032       0.00000109
F        8.92474602       1.03967393       6.85048076      -0.00046630       0.00069731       0.00086018
F        3.95513540       8.06776528      15.45809838       0.00010569      -0.00011134      -0.00012520
F        3.95513826       8.06776462       6.85050132       0.00002712       0.00000817      -0.00000754
F        8.92474976       1.03966787      15.45811728      -0.00060447       0.00088289      -0.00108179
