9
Lattice="5.175083972727815 8.855947754698809e-07 2.987835512189274 1.7250287524625434 4.879113906161735 2.9878356393105494 2.0157507880142877e-07 2.9822619488668145e-07 5.975670675240253" Properties=species:S:1:pos:R:3:forces:R:3 energy=-38.6807975769043 free_energy=-38.6807975769043 stress="0.00028933811699971557 3.895517863838904e-08 -8.252211358694694e-08 3.895517863838904e-08 0.00028941911295987666 1.6496166210799856e-08 -8.252211358694694e-08 1.6496166210799856e-08 0.00028921596822328866" pbc="T T T"
Cl       1.72503010       1.21977403       2.98783610      -0.00000334       0.00000843      -0.00000855
Cl       5.17508424       3.65933609       8.96350905      -0.00000174       0.00000577      -0.00000815
Zr      -0.00000315       0.00000735      -0.00000910       0.00008516      -0.00018570       0.00026933
F        1.68087735       1.18856278       5.97566550       0.00218225       0.00152698       0.00002282
F        5.21923043       3.69055563       5.97566799      -0.00212669      -0.00152522       0.00002053
F        4.33464124       1.18856610       4.44351810      -0.00105640       0.00149146       0.00186229
F        2.56546588       3.69055853       7.50782077       0.00109887      -0.00156376      -0.00187206
F        2.56547426       3.69054605       4.44352838       0.00099137      -0.00140765       0.00172675
F        4.33465071       1.18855319       7.50783036      -0.00116909       0.00164950      -0.00201213
