9
Lattice="6.5331107025950255 -1.4002259948034388e-08 3.771893237148269 2.17770354712501 6.1594758092723065 3.7718932496280315 -6.336108379435962e-09 1.0804216047000892e-08 7.5437864852710055" Properties=species:S:1:pos:R:3:forces:R:3 energy=-19.017562866210938 free_energy=-19.017562866210938 stress="0.00010548560385359451 8.646476867824049e-10 -2.875387039580346e-09 8.646476867824049e-10 0.00010548809223109856 1.3409529042718304e-09 -2.875387039580346e-09 1.3409529042718304e-09 0.00010548260615905747" pbc="T T T"
Co       2.17770339       1.53986890       3.77189336      -0.00000034       0.00000001      -0.00000013
Co       6.53311069       4.61960699      11.31567972      -0.00000037       0.00000002      -0.00000034
Au      -0.00000009       0.00000006       0.00000019      -0.00000136      -0.00000100       0.00000008
I        2.30766946       1.63176866       7.54378650      -0.00139339      -0.00098611      -0.00000010
I        6.40314495       4.52770704       7.54378645       0.00139396       0.00098594       0.00000027
I        5.37927605       1.63176856       5.77039352       0.00069759      -0.00098570      -0.00120749
I        3.33153829       4.52770721       9.31717933      -0.00069657       0.00098621       0.00120775
I        3.33153820       4.52770721       5.77039344      -0.00069673       0.00098596      -0.00120749
I        5.37927602       1.63176861       9.31717936       0.00069717      -0.00098537       0.00120741
