9
Lattice="4.737621386417982 4.978738913184878e-09 2.735266957962872 1.579207103286399 4.466672572529415 2.7352670102942995 -9.447249134041139e-08 -2.7094704485456704e-09 5.470534079556806" Properties=species:S:1:pos:R:3:forces:R:3 energy=-32.489349365234375 free_energy=-32.489349365234375 stress="0.0005905755097046494 -6.170136845895513e-09 -6.667173124697001e-08 -6.170136845895513e-09 0.0005906574660912156 -5.0701501663752424e-08 -6.667173124697001e-08 -5.0701501663752424e-08 0.0005906381411477923" pbc="T T T"
Co       1.57920723       1.11666808       2.73526630       0.00000073      -0.00000002      -0.00000843
Co       4.73762071       3.35000509       8.20580150      -0.00000585       0.00000641       0.00000805
Ag      -0.00000000      -0.00000002       0.00000017       0.00000209       0.00000325       0.00000238
F        1.64935722       1.16627159       5.47053445      -0.00627577      -0.00444025       0.00000314
F        4.66747134       3.30040078       5.47053338       0.00627470       0.00443631      -0.00000520
F        3.91294261       1.16627153       4.16365218       0.00313888      -0.00443971      -0.00543690
F        2.40388604       3.30040046       6.77741631      -0.00313640       0.00443590       0.00543597
F        2.40388580       3.30040122       4.16365243      -0.00313516       0.00444019      -0.00543454
F        3.91294245       1.16627156       6.77741570       0.00313686      -0.00444224       0.00543559
