9
Lattice="4.833832405061798 -6.027548042873954e-08 2.7908147541057904 1.6112774663318483 4.5573811169274325 2.790814659178717 5.4079824921055946e-08 -7.802124527521887e-08 5.581629414542546" Properties=species:S:1:pos:R:3:forces:R:3 energy=-32.966793060302734 free_energy=-32.966793060302734 stress="0.0003419458807911724 -4.181497814670365e-09 1.3407475130122748e-08 -4.181497814670365e-09 0.0003420528955757618 -7.504414867298692e-09 1.3407475130122748e-08 -7.504414867298692e-09 0.00034206098644062877" pbc="T T T"
Co       1.61127831       1.13934689       2.79081463       0.00000383       0.00000804       0.00000058
Co       4.83383290       3.41803531       8.37244374       0.00000254      -0.00000245      -0.00000130
Au      -0.00000023      -0.00000029       0.00000035       0.00000026      -0.00000487      -0.00001823
F        1.65824300       1.17255477       5.58162940      -0.00517984      -0.00366173       0.00000126
F        4.78686657       3.38482598       5.58162960       0.00518087       0.00366137      -0.00000022
F        4.00471071       1.17255432       4.22689576       0.00258682      -0.00365834      -0.00448074
F        2.44039876       3.38482615       6.93636280      -0.00259515       0.00366479       0.00449220
F        2.44039897       3.38482552       4.22689533      -0.00258964       0.00365722      -0.00448567
F        4.00471077       1.17255558       6.93636359       0.00258999      -0.00366398       0.00449199
