9
Lattice="6.494495370037285 -3.0651606040399126e-08 3.7495986815905016 2.1648317589389916 6.1230690269805885 3.749598685357296 -3.165524834916237e-08 -1.777024097524563e-08 7.499197418009505" Properties=species:S:1:pos:R:3:forces:R:3 energy=-18.50425148010254 free_energy=-18.50425148010254 stress="2.264076283609029e-05 -5.883285414398642e-09 7.775173282986714e-10 -5.883285414398642e-09 2.265838884341065e-05 -6.04974736972963e-10 7.775173282986714e-10 -6.04974736972963e-10 2.2635722416453063e-05" pbc="T T T"
Co       2.16483195       1.53076723       3.74959871       0.00000036       0.00000010      -0.00000015
Co       6.49449533       4.59230193      11.24879581      -0.00000003       0.00000033      -0.00000142
Ag      -0.00000019      -0.00000020       0.00000007       0.00000035       0.00000160      -0.00000076
I        2.28048650       1.61254725       7.49919740      -0.00482816      -0.00341440      -0.00000004
I        6.37884079       4.51052162       7.49919751       0.00482763       0.00341331       0.00000079
I        5.35425211       1.61254727       5.72455797       0.00241385      -0.00341395      -0.00418073
I        3.30507505       4.51052167       9.27383693      -0.00241303       0.00341378       0.00418084
I        3.30507488       4.51052164       5.72455786      -0.00241438       0.00341319      -0.00418048
I        5.35425195       1.61254751       9.27383691       0.00241346      -0.00341400       0.00418194
