9
Lattice="5.6602054807391955 1.8596394182468876e-08 3.2679211509272763 1.8867351618893795 5.336492970686028 3.2679211784493467 -2.911001738436578e-08 1.3123616662818864e-08 6.535842352274602" Properties=species:S:1:pos:R:3:forces:R:3 energy=-24.236106872558594 free_energy=-24.236106872558594 stress="7.426708179991692e-05 4.2099630448433345e-09 2.4024253697518816e-09 4.2099630448433345e-09 7.424652721965685e-05 9.504063314125233e-09 2.4024253697518816e-09 9.504063314125233e-09 7.424847717629746e-05" pbc="T T T"
Co       1.88673520       1.33412337       3.26792065       0.00000038       0.00000202      -0.00000284
Co       5.66020521       4.00237002       9.80376479      -0.00000158       0.00000032       0.00000499
Ag       0.00000015      -0.00000006      -0.00000024      -0.00000240       0.00000037       0.00000493
Cl       1.96592929       1.39012179       6.53584258       0.00053205       0.00037621       0.00000181
Cl       5.58101141       3.94637106       6.53584171      -0.00053038      -0.00037445      -0.00000251
Cl       4.67724105       1.39012202       4.97046590      -0.00026334       0.00037441       0.00045899
Cl       2.86969951       3.94637106       8.10121887       0.00026517      -0.00037979      -0.00046173
Cl       2.86970000       3.94637107       4.97046568       0.00026806      -0.00037518       0.00045811
Cl       4.67724061       1.39012170       8.10121880      -0.00026801       0.00037619      -0.00046170
