9
Lattice="6.044217533650326 -3.6007416729037616e-09 3.489630595746499 2.014739167944536 5.698542970277441 3.4896306070811995 -1.4145094479762818e-08 3.880033632927579e-09 6.979261215993017" Properties=species:S:1:pos:R:3:forces:R:3 energy=-21.313867568969727 free_energy=-21.313867568969727 stress="6.894153921166435e-05 8.139040552634924e-09 -2.306857993517042e-08 8.139040552634924e-09 6.896148988744244e-05 3.459365061075914e-08 -2.306857993517042e-08 3.459365061075914e-08 6.900924927322194e-05" pbc="T T T"
Co       2.01473865       1.42463553       3.48963055      -0.00000300      -0.00000365      -0.00000249
Co       6.04421712       4.27390653      10.46889075      -0.00000391      -0.00000555      -0.00000672
Ag      -0.00000008       0.00000010      -0.00000001       0.00000133      -0.00000101       0.00000010
Br       2.09375403       1.48050780       6.97926131       0.00047043       0.00033228       0.00000115
Br       5.96520288       4.21803553       6.97926176      -0.00047046      -0.00033195       0.00000275
Br       4.99734065       1.48050778       5.30287490      -0.00023413       0.00033511       0.00041044
Br       3.06161640       4.21803536       8.65564752       0.00023605      -0.00033003      -0.00040568
Br       3.06161611       4.21803547       5.30287499       0.00023649      -0.00033164       0.00040770
Br       4.99734096       1.48050779       8.65564796      -0.00023282       0.00033636      -0.00040738
