9
Lattice="5.69885841365341 4.6746933629219024e-08 3.2902374271814065 1.8996195113066674 5.372935184963848 3.290237434082893 4.802035116301375e-08 4.240806344671645e-08 6.580474771189129" Properties=species:S:1:pos:R:3:forces:R:3 energy=-24.706947326660156 free_energy=-24.706947326660156 stress="6.923405453562737e-05 6.433912513870155e-09 -1.2186277542625135e-09 6.433912513870155e-09 6.921499880263582e-05 -6.314102130033916e-09 -1.2186277542625135e-09 -6.314102130033916e-09 6.921758176758885e-05" pbc="T T T"
Co       1.89961942       1.34323435       3.29023765       0.00000016       0.00000409       0.00000006
Co       5.69885824       4.02970168       9.87071356      -0.00000029       0.00000189       0.00000936
Au       0.00000011       0.00000007      -0.00000009       0.00000063      -0.00000099      -0.00000199
Cl       1.96242571       1.38764428       6.58047485       0.00138243       0.00097665       0.00000112
Cl       5.63605251       3.98529058       6.58047411      -0.00138152      -0.00097888      -0.00000385
Cl       4.71764570       1.38764452       4.98974758      -0.00069129       0.00097892       0.00119559
Cl       2.88083203       3.98529087       8.17120178       0.00068932      -0.00097893      -0.00119807
Cl       2.88083244       3.98529066       4.98974729       0.00069240      -0.00097906       0.00119649
Cl       4.71764577       1.38764407       8.17120181      -0.00069180       0.00097635      -0.00119871
