9
Lattice="5.429933102459972 1.8921009933848045e-08 3.1349732894072835 1.809977713361488 5.11938998284716 3.1349732985827172 -2.4437579450828106e-08 -6.042465822108382e-09 6.269946621141685" Properties=species:S:1:pos:R:3:forces:R:3 energy=-28.638338088989258 free_energy=-28.638338088989258 stress="7.60476614232175e-05 1.2519622671902653e-08 3.745720889014592e-08 1.2519622671902653e-08 7.612114131916314e-05 2.7494488463730704e-08 3.745720889014592e-08 2.7494488463730704e-08 7.607096631545573e-05" pbc="T T T"
Co       1.80997643       1.27984934       3.13497305      -0.00000845       0.00001534      -0.00000294
Co       5.42993291       3.83954192       9.40492199      -0.00000038      -0.00000555       0.00001580
Be      -0.00000005       0.00000007      -0.00000014       0.00000042      -0.00000018       0.00000080
Cl       1.77601262       1.25583106       6.26994665      -0.00157642      -0.00111203       0.00000058
Cl       5.46389848       3.86355902       6.26994562       0.00157750       0.00110684      -0.00000577
Cl       4.54192748       1.25583082       4.67304519       0.00079288      -0.00111115      -0.00136319
Cl       2.69798359       3.86355871       7.86684791      -0.00078992       0.00110824       0.00136274
Cl       2.69798467       3.86355881       4.67304477      -0.00078483       0.00111128      -0.00136779
Cl       4.54192708       1.25583025       7.86684775       0.00078931      -0.00111259       0.00135961
