9
Lattice="4.280279102621155 3.265484276308887e-08 2.471220319246182 1.4267597177103037 4.035486003838327 2.4712203434095064 -1.537894608487605e-08 1.871935012058203e-08 4.942440665129482" Properties=species:S:1:pos:R:3:forces:R:3 energy=-42.25218963623047 free_energy=-42.25218963623047 stress="0.00015534114209003747 3.200563725158645e-08 2.4307146517799083e-08 3.200563725158645e-08 0.000155523739522323 3.153677141654043e-08 2.4307146517799083e-08 3.153677141654043e-08 0.00015514752885792404" pbc="T T T"
Co       1.42676004       1.00887158       2.47122060       0.00000552       0.00000026       0.00000125
Co       4.28027988       3.02661460       7.41366141       0.00000684       0.00000091       0.00000453
Be      -0.00000010       0.00000015       0.00000007      -0.00000098      -0.00000243      -0.00000076
F        1.37967723       0.97557907       4.94244055       0.00697559       0.00493494      -0.00000028
F        4.32736140       3.05990690       4.94244059      -0.00698197      -0.00493348      -0.00000127
F        3.59044038       0.97557919       3.66605564      -0.00348988       0.00493452       0.00604296
F        2.11659782       3.05990690       6.21882532       0.00348717      -0.00493482      -0.00604707
F        2.11659808       3.05990694       3.66605577       0.00348741      -0.00493374       0.00604463
F        3.59044035       0.97557895       6.21882545      -0.00349054       0.00493354      -0.00604385
