9
Lattice="5.871768372866755 1.0929197319287561e-07 3.390067066390498 1.9572561968812763 5.535956388550416 3.3900671191298835 1.5917103449989366e-08 7.584741326334762e-08 6.78013410521176" Properties=species:S:1:pos:R:3:forces:R:3 energy=-24.53527069091797 free_energy=-24.53527069091797 stress="2.1096508135087788e-05 -1.3562829970226176e-08 -1.9260154360267734e-08 -1.3562829970226176e-08 2.1075016775284894e-05 3.2783629144716997e-09 -1.9260154360267734e-08 3.2783629144716997e-09 2.1078176359878853e-05" pbc="T T T"
Co       1.95725775       1.38398932       3.39006734       0.00001127       0.00000216       0.00000187
Co       5.87176957       4.15196846      10.17019921       0.00000631       0.00000678      -0.00001469
Be      -0.00000013      -0.00000006       0.00000009      -0.00000008      -0.00000070       0.00000160
Br       1.93106154       1.36546660       6.78013400       0.00293508       0.00207364       0.00000047
Br       5.89796254       4.17048986       6.78013505      -0.00293533      -0.00207265       0.00000668
Br       4.90623654       1.36546676       5.06241554      -0.00147253       0.00206929       0.00254232
Br       2.92278676       4.17048953       8.49785317       0.00146699      -0.00207776      -0.00253877
Br       2.92278641       4.17048925       5.06241587       0.00146014      -0.00207545       0.00254200
Br       4.90623737       1.36546659       8.49785284      -0.00147182       0.00207476      -0.00254128
