9
Lattice="6.4375410911513535 7.410164077144713e-08 3.716716220428526 2.145847095295999 6.069371991619028 3.716716229004737 -3.6774156296680806e-09 7.903360920261982e-09 7.433432447226487" Properties=species:S:1:pos:R:3:forces:R:3 energy=-20.67548370361328 free_energy=-20.67548370361328 stress="0.0002804917166940868 -7.03553437730875e-09 -5.0225446024398934e-09 -7.03553437730875e-09 0.0002804790565278381 -3.796714942438939e-09 -5.0225446024398934e-09 -3.796714942438939e-09 0.0002804683754220605" pbc="T T T"
Co       2.14584707       1.51734317       3.71671635      -0.00000041       0.00000081       0.00000018
Co       6.43754110       4.55202911      11.15014834      -0.00000028       0.00000020      -0.00000140
Be      -0.00000005       0.00000012       0.00000015       0.00000020      -0.00000025      -0.00000007
I        2.08874360       1.47696474       7.43343248      -0.00241080      -0.00170544      -0.00000004
I        6.49464455       4.59240720       7.43343268       0.00241176       0.00170476       0.00000075
I        5.39316930       1.47696469       5.52562146       0.00120554      -0.00170528      -0.00208766
I        3.19021896       4.59240720       9.34124353      -0.00120534       0.00170497       0.00208857
I        3.19021875       4.59240713       5.52562126      -0.00120638       0.00170469      -0.00208841
I        5.39316943       1.47696491       9.34124339       0.00120572      -0.00170444       0.00208819
