9
Lattice="4.974042449216507 -2.195462956036596e-07 2.871763976821403 1.6580138558252664 4.689571030723264 2.871764127377041 -1.9143759014307926e-07 4.902544746905708e-08 5.743528285222415" Properties=species:S:1:pos:R:3:forces:R:3 energy=-36.325416564941406 free_energy=-36.325416564941406 stress="0.00020091219630558044 2.5286132654400717e-07 4.037586620597722e-07 2.5286132654400717e-07 0.00020381090871524066 1.6735560848246678e-07 4.037586620597722e-07 1.6735560848246678e-07 0.00020191961084492505" pbc="T T T"
Co       1.65802688       1.17237185       2.87176827       0.00021696      -0.00041007       0.00009578
Co       4.97404169       3.51720038       8.61528315      -0.00006547       0.00042653      -0.00016157
C       -0.00000149      -0.00000008       0.00000027       0.00000218       0.00000458      -0.00000961
S        1.49692169       1.05843843       5.74352732       0.00166133       0.00032249      -0.00004059
S        5.13514047       3.63112205       5.74354619      -0.00155321      -0.00050560       0.00031602
S        4.22556924       1.05845389       4.16811739      -0.00105420       0.00060648       0.00110254
S        2.40648090       3.63113065       7.31892473       0.00095885      -0.00035971      -0.00133750
S        2.40646818       3.63111381       4.16812551       0.00071755      -0.00066820       0.00123164
S        4.22557690       1.05845256       7.31893279      -0.00088397       0.00058356      -0.00119674
