9
Lattice="5.604425863058886 -6.787055720290623e-08 3.2357167871950856 1.8681418964988723 5.283903803999954 3.235716776569147 -1.71657657006074e-07 -1.3439430776206412e-07 6.4714338717099364" Properties=species:S:1:pos:R:3:forces:R:3 energy=-26.107688903808594 free_energy=-26.107688903808594 stress="-0.00037610135041177273 -7.785103406376948e-08 4.063887004690514e-08 -7.785103406376948e-08 -0.0003761002153623849 1.057735232734558e-08 4.063887004690514e-08 1.057735232734558e-08 -0.00037626284756697714" pbc="T T T"
Co       1.86814276       1.32097637       3.23571336       0.00000577       0.00000326      -0.00002845
Co       5.60442053       3.96292547       9.70715097      -0.00003704      -0.00001680       0.00000357
C        0.00000240       0.00000159       0.00000642       0.00002111       0.00001464       0.00005869
Cl       1.84331504       1.30341972       6.47143501       0.00076622       0.00053705       0.00000897
Cl       5.62925156       3.98048256       6.47143337      -0.00077604      -0.00054806      -0.00000424
Cl       4.68276969       1.30342120       4.83207283      -0.00037284       0.00054304       0.00065277
Cl       2.78980114       3.98048124       8.11079261       0.00039767      -0.00055698      -0.00067044
Cl       2.78980010       3.98048375       4.83207261       0.00038804      -0.00053451       0.00065048
Cl       4.68276723       1.30342275       8.11079242      -0.00039279       0.00055837      -0.00067105
