9
Lattice="5.6721185131275815 3.65051786825571e-08 3.274799127236634 1.890706206019039 5.347724580945128 3.2747991262682388 -2.913685236683824e-09 -3.2462983748756906e-09 6.5495982595198905" Properties=species:S:1:pos:R:3:forces:R:3 energy=-24.040367126464844 free_energy=-24.040367126464844 stress="0.00033345023985020816 1.8573768301166638e-08 -9.755751761986176e-10 1.8573768301166638e-08 0.0003334667708259076 7.679095581636375e-09 -9.755751761986176e-10 7.679095581636375e-09 0.00033343935501761734" pbc="T T T"
Co       1.89070698       1.33693139       3.27479919       0.00000617      -0.00000006       0.00000094
Co       5.67211898       4.01079458       9.82439774       0.00000237       0.00000758       0.00000480
Cd       0.00000008      -0.00000013      -0.00000006      -0.00000099       0.00000422       0.00000453
Cl       1.99855622       1.41319217       6.54959812      -0.00288248      -0.00203960       0.00000021
Cl       5.56426844       3.93453223       6.54959800       0.00287837       0.00203822      -0.00000211
Cl       4.67284020       1.41319225       5.00559945       0.00144035      -0.00204046      -0.00249726
Cl       2.88998381       3.93453208       8.09359724      -0.00144058       0.00203488       0.00249115
Cl       2.88998400       3.93453194       5.00559922      -0.00144048       0.00203526      -0.00249502
Cl       4.67284016       1.41319196       8.09359713       0.00143721      -0.00204014       0.00249276
