9
Lattice="4.507784962836684 -5.1830212241286497e-08 2.602570905186173 1.502594986889803 4.249980175539007 2.6025708217990626 1.0879407743873817e-08 -9.443501280117034e-08 5.205141791528645" Properties=species:S:1:pos:R:3:forces:R:3 energy=-36.80235290527344 free_energy=-36.80235290527344 stress="0.0006318764644674957 -2.581345270868951e-08 2.8710296362532972e-08 -2.581345270868951e-08 0.000631899805739522 -2.264429532772283e-08 2.8710296362532972e-08 -2.264429532772283e-08 0.0006319694803096354" pbc="T T T"
Co       1.50259532       1.06249490       2.60257089       0.00000216      -0.00000162       0.00000256
Co       4.50778511       3.18748520       7.80771233       0.00000420       0.00000329       0.00000002
Cu      -0.00000005       0.00000003       0.00000002       0.00000026       0.00000268      -0.00000148
F        1.52454595       1.07801659       5.20514167      -0.00354459      -0.00250377      -0.00000079
F        4.48583412       3.17196350       5.20514174       0.00354151       0.00250304       0.00000125
F        3.74551166       1.07801660       3.92286642       0.00177083      -0.00250541      -0.00306856
F        2.26486789       3.17196340       6.48741735      -0.00177173       0.00250296       0.00306702
F        2.26486795       3.17196335       3.92286649      -0.00177405       0.00250626      -0.00306842
F        3.74551183       1.07801653       6.48741714       0.00177127      -0.00250728       0.00306843
