9
Lattice="6.403765750378273 -5.6566557468056564e-08 3.6972159738409465 2.1345885533773563 6.037528345004625 3.6972159335717962 5.069483945542235e-08 -1.3472727275273072e-08 7.394431859875868" Properties=species:S:1:pos:R:3:forces:R:3 energy=-20.74273681640625 free_energy=-20.74273681640625 stress="-0.00010932618170045316 1.4566783335112632e-09 1.1279554179566276e-08 1.4566783335112632e-09 -0.00010935612954199314 4.218632998487237e-09 1.1279554179566276e-08 4.218632998487237e-09 -0.0001093518003472127" pbc="T T T"
Co       2.13458837       1.50938097       3.69721566      -0.00000005      -0.00000399      -0.00000088
Co       6.40376560       4.52814624      11.09164864      -0.00000021      -0.00000048       0.00000373
C        0.00000003       0.00000008       0.00000011      -0.00000030      -0.00000011       0.00000028
I        2.14644160       1.51776351       7.39443191       0.00263852       0.00186652       0.00000046
I        6.39191245       4.51976528       7.39443162      -0.00264025      -0.00186482      -0.00000201
I        5.33054512       1.51776361       5.55608916      -0.00131866       0.00186694       0.00228521
I        3.20780957       4.51976497       9.23277447       0.00131997      -0.00186479      -0.00228637
I        3.20780974       4.51976501       5.55608915       0.00132114      -0.00186449       0.00228614
I        5.33054494       1.51776340       9.23277433      -0.00132033       0.00186536      -0.00228649
