9
Lattice="5.544082111984165 -1.1589714275159086e-08 3.200877299632685 1.8480273612099078 5.227010713844056 3.20087729707719 -9.571399678806213e-10 -3.8066212895069185e-09 6.401754600923167" Properties=species:S:1:pos:R:3:forces:R:3 energy=-26.781415939331055 free_energy=-26.781415939331055 stress="7.283012382686138e-05 -3.230691270061925e-09 -4.772366057892441e-09 -3.230691270061925e-09 7.2848291893024e-05 5.398947955370659e-09 -4.772366057892441e-09 5.398947955370659e-09 7.283104787347838e-05" pbc="T T T"
Co       1.84802821       1.30675232       3.20087720       0.00000571      -0.00000195      -0.00000079
Co       5.54408257       3.92025848       9.60263215       0.00000293       0.00000270       0.00000592
Cu       0.00000004      -0.00000008       0.00000015       0.00000024       0.00000287      -0.00000089
Cl       1.87032757       1.32252107       6.40175458      -0.00015977      -0.00011203      -0.00000006
Cl       5.52178181       3.90448967       6.40175459       0.00015563       0.00011191      -0.00000296
Cl       4.60891814       1.32252113       4.82062824       0.00007877      -0.00011125      -0.00013775
Cl       2.78319086       3.90448941       7.98288071      -0.00008208       0.00011221       0.00013468
Cl       2.78319101       3.90448958       4.82062836      -0.00007878       0.00011140      -0.00013593
Cl       4.60891768       1.32252126       7.98288082       0.00007717      -0.00011590       0.00013757
