9
Lattice="6.03454603921929 -8.369789871940633e-09 3.4840468089157195 2.0115153486309243 5.689424420775423 3.4840467913949777 1.0467371104391616e-08 -1.405684510422704e-08 6.968093599701327" Properties=species:S:1:pos:R:3:forces:R:3 energy=-23.337175369262695 free_energy=-23.337175369262695 stress="-0.00024828565074130893 -1.6567158311886487e-08 7.207164642863972e-09 -1.6567158311886487e-08 -0.0002482951676938683 1.4869627307234623e-08 7.207164642863972e-09 1.4869627307234623e-08 -0.00024836312513798475" pbc="T T T"
Co       2.01151623       1.42235617       3.48404626       0.00000586       0.00000131      -0.00000294
Co       6.03454439       4.26706534      10.45214233      -0.00000934      -0.00001611       0.00001125
C       -0.00000010      -0.00000035      -0.00000063       0.00000111      -0.00000147      -0.00000278
Br       1.94728412       1.37693879       6.96809329       0.00111896       0.00079553       0.00000130
Br       6.09877744       4.31248673       6.96809318      -0.00112081      -0.00079091      -0.00000423
Br       5.06090400       1.37693911       5.17044363      -0.00056039       0.00080064       0.00096813
Br       2.98515764       4.31248665       8.76574323       0.00056049      -0.00079317      -0.00097084
Br       2.98515835       4.31248665       5.17044403       0.00056694      -0.00079152       0.00096995
Br       5.06090355       1.37693856       8.76574343      -0.00056289       0.00079586      -0.00096950
