9
Lattice="6.390873399730158 -3.299850030994155e-08 3.6897724946261548 2.130291112774707 6.025373224994778 3.6897724761926374 -4.16274107676838e-09 -2.5519833391778466e-08 7.379544996462384" Properties=species:S:1:pos:R:3:forces:R:3 energy=-20.180686950683594 free_energy=-20.180686950683594 stress="0.00010203184501733631 2.480272653926363e-09 -4.743288872788298e-09 2.480272653926363e-09 0.0001020425115711987 9.150474156172095e-09 -4.743288872788298e-09 9.150474156172095e-09 0.00010202035628026351" pbc="T T T"
Co       2.13029118       1.50634359       3.68977231       0.00000026       0.00000041      -0.00000048
Co       6.39087313       4.51902932      11.06931703      -0.00000140      -0.00000275      -0.00000277
Cu      -0.00000004       0.00000004       0.00000026       0.00000037      -0.00000042      -0.00000114
I        2.15962140       1.52708296       7.37954502      -0.00645504      -0.00456432       0.00000007
I        6.36154337       4.49829033       7.37954509       0.00645485       0.00456448       0.00000060
I        5.31106280       1.52708284       5.56005951       0.00322689      -0.00456297      -0.00558961
I        3.21010199       4.49829021       9.19903064      -0.00322698       0.00456496       0.00559220
I        3.21010163       4.49829037       5.56005941      -0.00322764       0.00456376      -0.00559002
I        5.31106258       1.52708301       9.19903058       0.00322868      -0.00456314       0.00559103
