9
Lattice="6.0346099797366275 2.421385397701114e-07 3.4840835594023103 2.011536780918183 5.689485005928744 3.484083745224388 -1.7017347341389645e-07 1.0725380716555771e-07 6.968167413553744" Properties=species:S:1:pos:R:3:forces:R:3 energy=-23.337177276611328 free_energy=-23.337177276611328 stress="-0.0001702686568023637 -4.612956772120924e-08 -5.244445588914459e-08 -4.612956772120924e-08 -0.0001701273286016658 -4.209504922414453e-08 -5.244445588914459e-08 -4.209504922414453e-08 -0.00017039102385751903" pbc="T T T"
Co       2.01153832       1.42238351       3.48408340       0.00000827       0.00006499      -0.00000149
Co       6.03460238       4.26711242      10.45224308      -0.00004146      -0.00000943      -0.00004493
C       -0.00000085      -0.00000024      -0.00000192      -0.00000123      -0.00000093      -0.00000512
Br       1.94775310       1.37726933       6.96816712      -0.00099245      -0.00070930       0.00000296
Br       6.09839578       4.31221241       6.96817036       0.00101107       0.00068802       0.00001679
Br       5.06073353       1.37726808       5.17088860       0.00049622      -0.00070879      -0.00085998
Br       2.98541667       4.31221299       8.76545180      -0.00048493       0.00068755       0.00088784
Br       2.98541407       4.31221236       5.17088628      -0.00049536       0.00068527      -0.00087270
Br       5.06073333       1.37727048       8.76545005       0.00049998      -0.00069751       0.00087655
