9
Lattice="5.643718840199828 4.775679394767998e-08 3.2584024419423927 1.8812396234329076 5.320949230166091 3.2584025025513164 -7.635642317994696e-08 2.0238337139981823e-08 6.516805016137978" Properties=species:S:1:pos:R:3:forces:R:3 energy=-34.67555236816406 free_energy=-34.67555236816406 stress="0.0001964528055395931 4.069432080200386e-08 -4.135630504720211e-08 4.069432080200386e-08 0.00019643937412183732 1.3539189325229017e-08 -4.135630504720211e-08 1.3539189325229017e-08 0.00019644273561425507" pbc="T T T"
Co       1.88123977       1.33023775       3.25840294       0.00000225       0.00000353       0.00000381
Co       5.64371907       3.99071181       9.77520639       0.00000299       0.00000051      -0.00000713
Cr       0.00000005       0.00000003      -0.00000023      -0.00000161       0.00000145      -0.00000027
Cl       1.86306523       1.31738643       6.51680481      -0.00106571      -0.00075288      -0.00000160
Cl       5.66189288       4.00356306       6.51680562       0.00106590       0.00075306       0.00000146
Cl       4.71218609       1.31738586       4.87186409       0.00052985      -0.00075318      -0.00092075
Cl       2.81277233       4.00356289       8.16174602      -0.00053275       0.00075086       0.00092077
Cl       2.81277183       4.00356319       4.87186403      -0.00053134       0.00074777      -0.00091654
Cl       4.71218628       1.31738616       8.16174607       0.00053053      -0.00075103       0.00092000
