9
Lattice="6.0293462117287095 -6.144242484423094e-08 3.4810446616678012 2.0097819794934018 5.684522139162797 3.4810447190928895 -3.764741352082761e-08 4.371030684821051e-08 6.962089388542877" Properties=species:S:1:pos:R:3:forces:R:3 energy=-31.354843139648438 free_energy=-31.354843139648438 stress="0.00015615344455000013 8.278805196937356e-09 3.963179562305186e-09 8.278805196937356e-09 0.00015614462608937174 -7.887014596974495e-09 3.963179562305186e-09 -7.887014596974495e-09 0.0001561605022288859" pbc="T T T"
Co       2.00978227       1.42113051       3.48104494       0.00000029      -0.00000015       0.00000076
Co       6.02934621       4.26339249      10.44313459       0.00000001       0.00000406       0.00000044
Cr      -0.00000010       0.00000009       0.00000024      -0.00000191      -0.00000288      -0.00000612
Br       1.97820970       1.39880529       6.96208948      -0.00000809      -0.00000837      -0.00000012
Br       6.06091843       4.28571648       6.96208928       0.00001211       0.00000900      -0.00000084
Br       5.04024102       1.39880523       5.19422463       0.00000256      -0.00000683      -0.00000768
Br       2.99888707       4.28571652       8.72995359      -0.00000641       0.00000940       0.00001219
Br       2.99888676       4.28571642       5.19422480      -0.00000462       0.00000545      -0.00000947
Br       5.04024122       1.39880548       8.72995350       0.00000603      -0.00000956       0.00001086
