9
Lattice="4.0670448627267115 7.036670499272636e-08 2.3481091817631676 1.3556816380316854 3.8344470847551504 2.3481092670139647 -5.7464218980305476e-08 6.377716724247664e-08 4.696218463057264" Properties=species:S:1:pos:R:3:forces:R:3 energy=-46.54118347167969 free_energy=-46.54118347167969 stress="-0.00012225234240759164 -4.0735496753541156e-08 8.962155817471285e-08 -4.0735496753541156e-08 -0.00012275665358174592 2.0994399108076323e-08 8.962155817471285e-08 2.0994399108076323e-08 -0.00012285327829886228" pbc="T T T"
Co       1.35568409       0.95860886       2.34810875       0.00003098      -0.00003716      -0.00000265
Co       4.06704536       2.87583530       7.04432944       0.00001061      -0.00000593       0.00002143
C        0.00000059      -0.00000008      -0.00000056       0.00000854      -0.00000492       0.00000131
O        1.24076684       0.87735616       4.69621809       0.00280905       0.00200319      -0.00000073
O        4.18195806       2.95709248       4.69621736      -0.00283051      -0.00198448      -0.00000930
O        3.44665984       0.87735523       3.42264569      -0.00142086       0.00199449       0.00243366
O        1.97606528       2.95709225       5.96979132       0.00140584      -0.00198221      -0.00244558
O        1.97606564       2.95709289       3.42264583       0.00140953      -0.00197792       0.00243914
O        3.44665977       0.87735586       5.96979147      -0.00142300       0.00199425      -0.00243616
