9
Lattice="6.52782588465633 -8.969359248418661e-08 3.768842059115336 2.175941877459421 6.154493288727806 3.768842058299106 -3.251149033594875e-08 -2.3988746189391398e-08 7.537684174542209" Properties=species:S:1:pos:R:3:forces:R:3 energy=-27.13705825805664 free_energy=-27.13705825805664 stress="0.0001397743762936443 -3.130382841831647e-09 1.3362355666401982e-09 -3.130382841831647e-09 0.00013977701019030064 -5.978009753881963e-10 1.3362355666401982e-09 -5.978009753881963e-10 0.00013978163769934326" pbc="T T T"
Co       2.17594213       1.53862340       3.76884160       0.00000068       0.00000022      -0.00000162
Co       6.52782598       4.61586982      11.30652657       0.00000009       0.00000010       0.00000011
Cr       0.00000006      -0.00000009       0.00000033      -0.00000048       0.00000045      -0.00000090
I        2.14837877       1.51913320       7.53768432      -0.00034824      -0.00024663       0.00000098
I        6.55538888       4.63535999       7.53768406       0.00034878       0.00024652      -0.00000068
I        5.45363626       1.51913335       5.62939300       0.00017430      -0.00024683      -0.00030188
I        3.25013132       4.63535956       9.44597516      -0.00017526       0.00024678       0.00030236
I        3.25013140       4.63535993       5.62939304      -0.00017451       0.00024657      -0.00030160
I        5.45363609       1.51913351       9.44597511       0.00017467      -0.00024716       0.00030316
