9
Lattice="6.62130368102942 -6.183427346091234e-08 3.822811488184172 2.2071011744050555 6.242625038711381 3.822811478323435 1.7060783779278253e-09 -1.0870581029125503e-08 7.645622973413396" Properties=species:S:1:pos:R:3:forces:R:3 energy=-17.698198318481445 free_energy=-17.698198318481445 stress="4.6054250560700893e-05 2.7443372019320122e-09 -1.6638097566357146e-09 2.7443372019320122e-09 4.605728463502601e-05 6.586067247127403e-09 -1.6638097566357146e-09 6.586067247127403e-09 4.605073991115205e-05" pbc="T T T"
Co       2.20710084       1.56065674       3.82281151      -0.00000170       0.00000116       0.00000037
Co       6.62130321       4.68196855      11.46843428      -0.00000104      -0.00000037       0.00000016
Cd      -0.00000016      -0.00000006       0.00000020       0.00000002       0.00000007      -0.00000040
I        2.36088046       1.66939457       7.64562295      -0.00011753      -0.00008371      -0.00000087
I        6.46752465       4.57323021       7.64562292       0.00011833       0.00008243      -0.00000010
I        5.44086356       1.66939453       5.86739401       0.00005889      -0.00008309      -0.00010169
I        3.38754171       4.57323032       9.42385196      -0.00005835       0.00008346       0.00010328
I        3.38754157       4.57323023       5.86739405      -0.00005861       0.00008327      -0.00010297
I        5.44086356       1.66939476       9.42385186       0.00005991      -0.00008327       0.00010224
