9
Lattice="6.067933239392911 -1.080197945606007e-07 3.5033227742636375 2.0226442600036063 5.720902282482144 3.503322863092475 -5.4508439618647836e-08 7.02493707698459e-08 7.0066456429385955" Properties=species:S:1:pos:R:3:forces:R:3 energy=-21.063709259033203 free_energy=-21.063709259033203 stress="0.00015355517098214477 2.0017765223201422e-09 4.230627226320394e-08 2.0017765223201422e-09 0.00015357894881162792 3.505986967411445e-08 4.230627226320394e-08 3.505986967411445e-08 0.00015365995932370424" pbc="T T T"
Co       2.02264540       1.43022635       3.50332256       0.00000762       0.00000650      -0.00000112
Co       6.06793245       4.29067647      10.50996713      -0.00000293      -0.00000058      -0.00001398
Cd       0.00000002      -0.00000012       0.00000040       0.00000146      -0.00000061      -0.00000376
Br       2.15497504       1.52379727       7.00664565      -0.00050384      -0.00035700       0.00000167
Br       5.93560247       4.19710473       7.00664609       0.00050038       0.00035395       0.00000367
Br       4.99044546       1.52379735       5.36958580       0.00024971      -0.00035477      -0.00043374
Br       3.10013193       4.19710452       8.64370580      -0.00025186       0.00035542       0.00044109
Br       3.10013145       4.19710467       5.36958597      -0.00025246       0.00035325      -0.00043431
Br       4.99044552       1.52379773       8.64370576       0.00025186      -0.00035614       0.00044042
