9
Lattice="4.366895014544131 -7.148342623848299e-08 2.5212279898122167 1.455631512327161 4.117148412810487 2.5212281488011667 -4.54634997028157e-07 -1.2675460978833143e-07 5.04245676707536" Properties=species:S:1:pos:R:3:forces:R:3 energy=-38.99312210083008 free_energy=-38.99312210083008 stress="-7.421707414323464e-05 -4.490207317076056e-08 2.6087230153848395e-08 -4.490207317076056e-08 -7.419763278448954e-05 1.5699926336765202e-07 2.6087230153848395e-08 1.5699926336765202e-07 -7.434801227645949e-05" pbc="T T T"
Co       1.45563045       1.02928699       2.52122742      -0.00001016      -0.00000223      -0.00000772
Co       4.36689454       3.08786074       7.56368495       0.00000097      -0.00000195       0.00000239
C        0.00000016       0.00000012       0.00000020      -0.00000465      -0.00000102       0.00000258
F        1.28579651       0.90919557       5.04245699      -0.00090012      -0.00063673      -0.00000386
F        4.53672983       3.20795287       5.04245604       0.00090155       0.00063446       0.00000026
F        3.72399684       0.90919562       3.63476093       0.00045235      -0.00063473      -0.00077337
F        2.09852951       3.20795247       6.45015201      -0.00044864       0.00064129       0.00077820
F        2.09853013       3.20795259       3.63476116      -0.00045076       0.00063771      -0.00077614
F        3.72399618       0.90919562       6.45015204       0.00045928      -0.00063714       0.00077781
