9
Lattice="4.367266563228617 1.3440630081499914e-07 2.521442664019705 1.4557556326885865 4.117498599043209 2.521442690185999 1.7073617924188893e-07 1.527757473739466e-07 5.0428850323156" Properties=species:S:1:pos:R:3:forces:R:3 energy=-38.993125915527344 free_energy=-38.993125915527344 stress="0.00011142933362862095 7.468398166565748e-08 1.7877978564229124e-07 7.468398166565748e-08 0.00011153030936839059 -4.561077915354872e-08 1.7877978564229124e-07 -4.561077915354872e-08 0.00011133472435176373" pbc="T T T"
Co       1.45575554       1.02937434       2.52144208      -0.00000076      -0.00000175      -0.00000360
Co       4.36726611       3.08812392       7.56432754      -0.00000360      -0.00000167      -0.00000069
C       -0.00000025       0.00000026      -0.00000060       0.00000425       0.00000263       0.00000581
F        1.28586435       0.90924448       5.04288540      -0.00133431      -0.00094634      -0.00000001
F        4.53715806       3.20825476       5.04288541       0.00134078       0.00094932       0.00000400
F        3.72433430       0.90924393       3.63503406       0.00066268      -0.00094751      -0.00115785
F        2.09868777       3.20825549       6.45073682      -0.00066274       0.00094229       0.00115559
F        2.09868860       3.20825498       3.63503468      -0.00067091       0.00094813      -0.00116026
F        3.72433499       0.90924335       6.45073649       0.00066437      -0.00094530       0.00115767
