9
Lattice="5.605753249007725 -7.78105299069536e-08 3.236483159056537 1.8685843595214842 5.285154900926401 3.2364831303979 -3.7886837774005384e-08 -6.188958464501319e-08 6.472966383734968" Properties=species:S:1:pos:R:3:forces:R:3 energy=-26.107723236083984 free_energy=-26.107723236083984 stress="-7.784237095620483e-05 -1.4170831619253477e-08 5.645377143537189e-08 -1.4170831619253477e-08 -7.779288716847077e-05 2.726149794796129e-08 5.645377143537189e-08 2.726149794796129e-08 -7.782845932524651e-05" pbc="T T T"
Co       1.86858497       1.32129025       3.23648255       0.00000494       0.00001101      -0.00000383
Co       5.60575366       3.96386565       9.70945376       0.00000144      -0.00000432       0.00003082
C        0.00000091      -0.00000023      -0.00000359       0.00000839      -0.00000001      -0.00003052
Cl       1.84357524       1.30360462       6.47296658      -0.00024566      -0.00017239       0.00000081
Cl       5.63076151       3.98154929       6.47296513       0.00024137       0.00016771      -0.00001073
Cl       4.68396501       1.30360621       4.83306668       0.00011810      -0.00016041      -0.00020584
Cl       2.79037085       3.98154986       8.11286663      -0.00013184       0.00017274       0.00021589
Cl       2.79037276       3.98154934       4.83306654      -0.00011634       0.00016511      -0.00020980
Cl       4.68396535       1.30360403       8.11286648       0.00011961      -0.00017931       0.00021308
