9
Lattice="4.7713592116109735 1.584448096278653e-07 2.7547455931853952 1.5904532425612055 4.498480490673861 2.754745553970055 5.6085548472208273e-08 -8.370319278184838e-09 5.5094910892278" Properties=species:S:1:pos:R:3:forces:R:3 energy=-32.558467864990234 free_energy=-32.558467864990234 stress="0.0003605978563427925 -9.047704452314065e-08 -1.86835258375595e-08 -9.047704452314065e-08 0.00036061659920960665 -4.6078674209582005e-09 -1.86835258375595e-08 -4.6078674209582005e-09 0.0003602215729188174" pbc="T T T"
Co       1.59045186       1.12461888       2.75474557      -0.00001427      -0.00001461      -0.00000238
Co       4.77136139       3.37386114       8.26423658       0.00002088       0.00000908      -0.00000337
Cd      -0.00000010      -0.00000001      -0.00000013      -0.00000071       0.00000093       0.00000270
F        1.69608922       1.19931636       5.50949139       0.00297675       0.00210579       0.00000189
F        4.66572305       3.29916474       5.50949124      -0.00297832      -0.00210252       0.00000164
F        3.92331495       1.19931603       4.22360219      -0.00148556       0.00210217       0.00258386
F        2.43849731       3.29916485       6.79537982       0.00148509      -0.00210270      -0.00258675
F        2.43849709       3.29916473       4.22360273       0.00148208      -0.00210042       0.00258753
F        3.92331540       1.19931585       6.79537968      -0.00148575       0.00210261      -0.00258574
