9
Lattice="4.53777000683441 5.482289720568509e-08 2.619882808476657 1.5125900340552094 4.278250648033509 2.619882842962582 1.8903954101585062e-08 5.560358095286404e-08 5.239765584210747" Properties=species:S:1:pos:R:3:forces:R:3 energy=-41.54385757446289 free_energy=-41.54385757446289 stress="-0.00011590291251195595 1.1428674007163409e-08 -1.5505714046071262e-08 1.1428674007163409e-08 -0.0001161281907116063 -2.5635308986693417e-08 -1.5505714046071262e-08 -2.5635308986693417e-08 -0.00011602534505072981" pbc="T T T"
Co       1.51259021       1.06956257       2.61988265       0.00000115       0.00000171      -0.00000000
Co       4.53777062       3.20868737       7.85964869       0.00000754      -0.00000839       0.00000160
Fe       0.00000016       0.00000022       0.00000010       0.00000135      -0.00000301      -0.00000270
F        1.54088478       1.08957083       5.23976532      -0.00071280      -0.00049885       0.00000071
F        4.50947529       3.18868026       5.23976562       0.00070924       0.00050335       0.00000019
F        3.76732747       1.08957041       3.95432832       0.00035478      -0.00050046      -0.00061394
F        2.28303202       3.18868050       6.52520270      -0.00035831       0.00050277       0.00061294
F        2.28303248       3.18868047       3.95432837      -0.00035470       0.00050361      -0.00061439
F        3.76732720       1.08957051       6.52520315       0.00035184      -0.00050070       0.00061557
