9
Lattice="6.13232785072088 -1.6794444450861523e-08 3.540501248933876 2.044109267416481 5.781614279305332 3.5405012494935018 -4.979157025140091e-08 -3.452256790512309e-08 7.081002584109336" Properties=species:S:1:pos:R:3:forces:R:3 energy=-29.441774368286133 free_energy=-29.441774368286133 stress="-3.673306491691619e-05 -4.213833548760704e-08 -2.8699476128934975e-10 -4.213833548760704e-08 -3.670823571155779e-05 3.4453337960371755e-09 -2.8699476128934975e-10 3.4453337960371755e-09 -3.669962825370021e-05" pbc="T T T"
Co       2.04410980       1.44540458       3.54050173       0.00000212       0.00000305       0.00000187
Co       6.13232727       4.33621049      10.62150426      -0.00000128       0.00000044       0.00000047
Fe       0.00000022       0.00000012      -0.00000031      -0.00000750      -0.00000567       0.00000389
Br       1.85048314       1.30848883       7.08100232      -0.00341786      -0.00241748      -0.00000124
Br       6.32595418       4.47312511       7.08100230       0.00342447       0.00242064      -0.00000018
Br       5.20708600       1.30848934       5.14306667       0.00171273      -0.00242257      -0.00296815
Br       2.96935089       4.47312470       9.01893852      -0.00171198       0.00242124       0.00296701
Br       2.96935091       4.47312445       5.14306665      -0.00171322       0.00242153      -0.00296935
Br       5.20708587       1.30848926       9.01893836       0.00171274      -0.00242111       0.00296589
