9
Lattice="5.589395748118636 -1.0801876828456317e-08 3.2270391522045028 1.86313189721384 5.269732817112359 3.227039167172182 -4.764467126997373e-09 1.496259355590427e-08 6.45407831266129" Properties=species:S:1:pos:R:3:forces:R:3 energy=-32.20873260498047 free_energy=-32.20873260498047 stress="0.00026346207596361637 -2.3148494676661358e-08 -9.993756044934798e-09 -2.3148494676661358e-08 0.00026341230841353536 1.6016148407516084e-08 -9.993756044934798e-09 1.6016148407516084e-08 0.0002633933036122471" pbc="T T T"
Co       1.86313437       1.31743316       3.22703836       0.00001723      -0.00000011      -0.00000607
Co       5.58939516       3.95229991       9.68111705      -0.00000478       0.00000208      -0.00000238
Fe      -0.00000022      -0.00000062       0.00000012       0.00000274       0.00001242       0.00000622
Cl       1.83098765       1.29470370       6.45407844      -0.00077990      -0.00055224       0.00000223
Cl       5.62154022       3.97502938       6.45407867       0.00076979       0.00054806       0.00000140
Cl       4.67390109       1.29470386       4.81272062       0.00038455      -0.00055118      -0.00067790
Cl       2.77862561       3.97502890       8.09543643      -0.00038494       0.00054258       0.00067151
Cl       2.77862565       3.97502941       4.81272072      -0.00038531       0.00054610      -0.00066997
Cl       4.67390106       1.29470361       8.09543608       0.00038077      -0.00054784       0.00067496
