9
Lattice="4.394668352885746 1.1753616012484204e-07 2.5372630111768837 1.4648895373122823 4.143333123437342 2.537263053549433 2.1550125930875132e-07 2.0427795223084182e-07 5.074525649094631" Properties=species:S:1:pos:R:3:forces:R:3 energy=-44.182342529296875 free_energy=-44.182342529296875 stress="9.505287016509101e-05 1.2358518119981454e-07 -1.651582834938381e-07 1.2358518119981454e-07 9.587720705894753e-05 -1.8606114338126645e-07 -1.651582834938381e-07 -1.8606114338126645e-07 9.554470307193696e-05" pbc="T T T"
Co       1.46489510       1.03582998       2.53726248       0.00007282      -0.00004511      -0.00000677
Co       4.39466697       3.10750630       7.61179512      -0.00002052       0.00008390       0.00008165
Ge      -0.00000001       0.00000016       0.00000005       0.00000446       0.00000195       0.00000672
O        1.49647891       1.05816800       5.07452527       0.00228596       0.00158131      -0.00000370
O        4.36307838       3.08516616       5.07452303      -0.00230217      -0.00158352      -0.00003342
O        3.64642808       1.05816913       3.83325034      -0.00115830       0.00159889       0.00195694
O        2.21312829       3.08516328       6.31580087       0.00113213      -0.00160909      -0.00197661
O        2.21313021       3.08516417       3.83325007       0.00115889      -0.00160038       0.00195754
O        3.64642664       1.05816679       6.31579983      -0.00117427       0.00157219      -0.00198179
