9
Lattice="6.254024142104108 6.492325959760232e-08 3.6107626386881813 2.0846747546123714 5.896350676417181 3.6107626744248202 -6.149777809783653e-08 2.8277433515081955e-10 7.221525383893644" Properties=species:S:1:pos:R:3:forces:R:3 energy=-29.21708869934082 free_energy=-29.21708869934082 stress="0.0002905961300712079 -8.231189063678812e-09 2.297320556010618e-09 -8.231189063678812e-09 0.0002905965957324952 -1.531115678687911e-09 2.297320556010618e-09 -1.531115678687911e-09 0.0002905922883655876" pbc="T T T"
Co       2.08467424       1.47408904       3.61076229      -0.00000145       0.00000528      -0.00000195
Co       6.25402357       4.42226270      10.83228652      -0.00000247      -0.00000190      -0.00000467
Ge      -0.00000008      -0.00000013      -0.00000003      -0.00000031      -0.00000126       0.00000133
Te       2.28211367       1.61369797       7.22152512       0.00690654       0.00488403      -0.00000067
Te       6.05658525       4.28265284       7.22152589      -0.00690575      -0.00488418       0.00000097
Te       5.11296783       1.61369807       5.58713138      -0.00345142       0.00488447       0.00598247
Te       3.22573176       4.28265172       8.85592044       0.00345492      -0.00488696      -0.00597811
Te       3.22573144       4.28265218       5.58713139       0.00345241      -0.00488519       0.00598106
Te       5.11296765       1.61369853       8.85591986      -0.00345246       0.00488576      -0.00598061
