9
Lattice="4.593658114453958 -1.3844583575661565e-07 2.652149785083052 1.5312192981562094 4.3309422513637275 2.652149686010565 2.212203329952059e-08 -1.056959041224327e-07 5.304299531849641" Properties=species:S:1:pos:R:3:forces:R:3 energy=-41.297576904296875 free_energy=-41.297576904296875 stress="-0.0007814163691364229 -3.253913050116353e-08 -2.813902000298185e-09 -3.253913050116353e-08 -0.0007813945994712412 2.377293384370205e-08 -2.813902000298185e-09 2.377293384370205e-08 -0.000781420327257365" pbc="T T T"
Co       1.53121947       1.08273573       2.65214990       0.00000116       0.00000135       0.00000148
Co       4.59365775       3.24820628       7.95644907      -0.00000089      -0.00000126      -0.00000176
Ge       0.00000007      -0.00000014       0.00000020       0.00000066       0.00001073      -0.00000731
F        1.48208842       1.04799463       5.30429959      -0.00406874      -0.00287654      -0.00000121
F        4.64278905       3.28294739       5.30429968       0.00406554       0.00287503      -0.00000072
F        3.85261398       1.04799461       3.93567588       0.00203342      -0.00287739      -0.00352330
F        2.27226372       3.28294723       6.67292306      -0.00203518       0.00287734       0.00352353
F        2.27226353       3.28294763       3.93567582      -0.00203236       0.00287357      -0.00351939
F        3.85261374       1.04799471       6.67292283       0.00203628      -0.00288283       0.00352873
