9
Lattice="5.72287822675498 -1.5785191793380024e-08 3.3041052664180928 1.9076260580306468 5.395581509639323 3.3041052710459904 -4.358254978946059e-08 -2.5149500798729044e-08 6.60821060832339" Properties=species:S:1:pos:R:3:forces:R:3 energy=-28.947734832763672 free_energy=-28.947734832763672 stress="0.0002503526920918375 -1.913417158050379e-08 -3.8362244936251955e-08 -1.913417158050379e-08 0.00025033956626430154 -1.8650810673648266e-08 -3.8362244936251955e-08 -1.8650810673648266e-08 0.0002503705909475684" pbc="T T T"
Co       1.90762510       1.34889545       3.30410626      -0.00000377       0.00000075       0.00000392
Co       5.72287882       4.04668692       9.91231467       0.00000397       0.00000584      -0.00000984
Ge       0.00000009      -0.00000014       0.00000017      -0.00000434      -0.00000261      -0.00000257
Cl       1.87118987       1.32313102       6.60821001      -0.00034833      -0.00024755      -0.00000344
Cl       5.75931473       4.07245005       6.60821141       0.00035412       0.00024724       0.00000383
Cl       4.78728323       1.32313063       4.92460348       0.00017430      -0.00024934      -0.00030003
Cl       2.84322122       4.07245033       8.29181775      -0.00017707       0.00025101       0.00030507
Cl       2.84322070       4.07245048       4.92460335      -0.00017675       0.00024661      -0.00030116
Cl       4.78728317       1.32313112       8.29181748       0.00017791      -0.00025191       0.00030414
