9
Lattice="5.731978738533059 7.643182407920316e-08 3.30935946902959 1.910659669064242 5.404161308411464 3.3093594387314447 6.692556126731238e-08 1.0216042720403176e-08 6.618718822140598" Properties=species:S:1:pos:R:3:forces:R:3 energy=-32.443077087402344 free_energy=-32.443077087402344 stress="8.413693285547197e-05 2.7793161549993783e-08 1.8456400852073784e-08 2.7793161549993783e-08 8.410743612330407e-05 7.111940369952663e-09 1.8456400852073784e-08 7.111940369952663e-09 8.41187866171822e-05" pbc="T T T"
Co       1.91066595       1.35103298       3.30935937       0.00005237      -0.00006386      -0.00000505
Co       5.73197886       4.05312807       9.92808092      -0.00000548       0.00006719       0.00001956
Ge      -0.00000045      -0.00000030      -0.00000024      -0.00000125       0.00000123       0.00000130
Se       2.26138140       1.59903348       6.61871921       0.00521243       0.00364329       0.00000232
Se       5.38125695       3.80512916       6.61871737      -0.00522253      -0.00363712      -0.00001165
Se       4.60128649       1.59903349       5.26777094      -0.00262390       0.00365251       0.00449914
Se       3.04134935       3.80512785       7.96966578       0.00260538      -0.00365506      -0.00451112
Se       3.04135030       3.80512773       5.26777110       0.00261426      -0.00365348       0.00450727
Se       4.60128506       1.59903317       7.96966653      -0.00263135       0.00364535      -0.00450179
