9
Lattice="5.526351429890532 -1.7540706608559258e-07 3.190640206068714 1.842116923997475 5.2102940139354486 3.1906402994678533 -1.6373582899849156e-07 -1.3886154441539018e-09 6.3812806957362085" Properties=species:S:1:pos:R:3:forces:R:3 energy=-34.15599822998047 free_energy=-34.15599822998047 stress="0.00012540696479845792 2.478545901851703e-08 6.14175306168363e-08 2.478545901851703e-08 0.00012556022556964308 6.514681416547319e-08 6.14175306168363e-08 6.514681416547319e-08 0.0001255741372006014" pbc="T T T"
Co       1.84211472       1.30257526       3.19063892      -0.00002937       0.00002386      -0.00001891
Co       5.52635275       3.90771869       9.57192194       0.00002009      -0.00002139       0.00001721
Ge      -0.00000072       0.00000015      -0.00000062       0.00000386      -0.00000136       0.00000174
S        1.89666751       1.34114884       6.38128117      -0.00684428      -0.00481915       0.00000436
S        5.47180087       3.86914416       6.38127814       0.00684422       0.00481489      -0.00001729
S        4.57802081       1.34114904       4.83320503       0.00344735      -0.00482249      -0.00591230
S        2.79045042       3.86914522       7.92935795      -0.00342888       0.00482538       0.00592238
S        2.79044950       3.86914649       4.83320448      -0.00343117       0.00483149      -0.00591379
S        4.57801662       1.34114756       7.92935768       0.00341809      -0.00483119       0.00591677
