9
Lattice="6.580646085396075 -1.9024532489203127e-08 3.799337875933944 2.1935486881048596 6.204292642200583 3.799337857038403 -2.27214893620275e-08 -3.920872034038823e-08 7.59867579122264" Properties=species:S:1:pos:R:3:forces:R:3 energy=-21.180419921875 free_energy=-21.180419921875 stress="0.00018443063891027123 -5.116886914180441e-09 -6.427827603516789e-09 -5.116886914180441e-09 0.00018442704458720982 -9.056350336322794e-09 -6.427827603516789e-09 -9.056350336322794e-09 0.0001844352955231443" pbc="T T T"
Co       2.19354915       1.55107335       3.79933742       0.00000167       0.00000097      -0.00000132
Co       6.58064597       4.65321918      11.39801301      -0.00000092      -0.00000110      -0.00000209
Ge      -0.00000004       0.00000012      -0.00000020      -0.00000003      -0.00000024       0.00000046
I        2.28740652       1.61744041       7.59867571      -0.00185934      -0.00131483       0.00000090
I        6.48678806       4.58685203       7.59867602       0.00185914       0.00131449       0.00000021
I        5.43694277       1.61744071       5.78029030       0.00093003      -0.00131457      -0.00160967
I        3.33725205       4.58685164       9.41706164      -0.00093004       0.00131435       0.00161079
I        3.33725184       4.58685183       5.78029045      -0.00092981       0.00131535      -0.00160977
I        5.43694268       1.61744102       9.41706174       0.00092925      -0.00131448       0.00161044
