9
Lattice="6.098729493681918 2.1541446277237855e-08 3.5211030516127306 2.0329098448967082 5.749937257948772 3.5211030631136224 5.966465228748787e-08 5.627499198504749e-08 7.042205999883246" Properties=species:S:1:pos:R:3:forces:R:3 energy=-25.330215454101562 free_energy=-25.330215454101562 stress="0.0002456539077684283 8.347610602754685e-09 6.379567540903963e-09 8.347610602754685e-09 0.00024563862825743854 8.156257891300811e-09 6.379567540903963e-09 8.156257891300811e-09 0.0002456541114952415" pbc="T T T"
Co       2.03290990       1.43748502       3.52110273      -0.00000024       0.00000114      -0.00000108
Co       6.09872998       4.31245249      10.56330979       0.00000274      -0.00000162       0.00000339
Ge      -0.00000010      -0.00000004       0.00000009       0.00000023       0.00000206      -0.00000038
Br       2.01038448       1.42155668       7.04220586      -0.00155740      -0.00109938      -0.00000013
Br       6.12125503       4.32838086       7.04220580       0.00155377       0.00109752      -0.00000131
Br       5.09353744       1.42155644       5.26214708       0.00077832      -0.00109742      -0.00134704
Br       3.03810168       4.32838070       8.82226505      -0.00077839       0.00109845       0.00134631
Br       3.03810189       4.32838092       5.26214694      -0.00077691       0.00109827      -0.00134607
Br       5.09353730       1.42155625       8.82226514       0.00077781      -0.00109915       0.00134639
