9
Lattice="5.5964358626491135 6.924746333456734e-08 3.231103792895963 1.8654786759822228 5.276370419617164 3.2311038105420127 -4.337250361169647e-08 -9.057097229289914e-09 6.462207660915275" Properties=species:S:1:pos:R:3:forces:R:3 energy=-27.39339256286621 free_energy=-27.39339256286621 stress="9.119608148466796e-05 -6.836581079028292e-09 -6.8180301404652255e-09 -6.836581079028292e-09 9.120417962549254e-05 -5.069211717056987e-09 -6.8180301404652255e-09 -5.069211717056987e-09 9.117397712543607e-05" pbc="T T T"
Co       1.86547846       1.31909293       3.23110406      -0.00000085       0.00000218       0.00000307
Co       5.59643539       3.95727843       9.69331179      -0.00000201       0.00000498       0.00000240
Mg       0.00000003      -0.00000004      -0.00000028       0.00000100      -0.00000130       0.00000015
Cl       1.92644814       1.36220402       6.46220754       0.00001197       0.00000495      -0.00000163
Cl       5.53546664       3.91416593       6.46220747      -0.00000941      -0.00000839      -0.00000046
Cl       4.63321196       1.36220426       4.89945660      -0.00000541       0.00000632       0.00000939
Cl       2.82870253       3.91416629       8.02495877       0.00000513      -0.00000794      -0.00000784
Cl       2.82870275       3.91416605       4.89945635       0.00000524      -0.00000725       0.00000573
Cl       4.63321206       1.36220402       8.02495878      -0.00000555       0.00000642      -0.00001073
