9
Lattice="6.495544307065905 -2.327340581625618e-09 3.7502042706685095 2.1651814467746435 6.124057999124236 3.750204247666371 -9.178391741472402e-08 -9.307277733010315e-08 7.50040870031153" Properties=species:S:1:pos:R:3:forces:R:3 energy=-26.57693862915039 free_energy=-26.57693862915039 stress="0.00021280173677951097 6.752727266245984e-10 7.164256743408259e-09 6.752727266245984e-10 0.00021280709188431501 6.8149557108654335e-09 7.164256743408259e-09 6.8149557108654335e-09 0.0002127975894836709" pbc="T T T"
Co       2.16518155       1.53101442       3.75020387       0.00000055      -0.00000060      -0.00000120
Co       6.49554468       4.59304357      11.25061361       0.00000089       0.00000098       0.00000184
Mn      -0.00000048      -0.00000032       0.00000094       0.00000552       0.00000606      -0.00001086
I        2.09883442       1.48409998       7.50040859      -0.00020574      -0.00014542       0.00000037
I        6.56189142       4.63995826       7.50040814       0.00019892       0.00014009       0.00000017
I        5.44612723       1.48409977       5.56784790       0.00009994      -0.00014096      -0.00017235
I        3.21459815       4.63995774       9.43296865      -0.00010284       0.00014392       0.00017734
I        3.21459883       4.63995825       5.56784832      -0.00009999       0.00014149      -0.00017278
I        5.44612681       1.48409994       9.43296878       0.00010273      -0.00014561       0.00017761
