9
Lattice="6.101762512858072 -1.719963667118292e-07 3.5228542331508956 2.033920694371895 5.752796840693069 3.522854200393866 7.499841532887823e-08 1.2912891175548182e-08 7.0457083364007165" Properties=species:S:1:pos:R:3:forces:R:3 energy=-30.705886840820312 free_energy=-30.705886840820312 stress="-0.00010167769505642354 -1.3288983247150554e-08 5.2929061133966115e-09 -1.3288983247150554e-08 -0.00010166775609832257 8.397451622954577e-09 5.2929061133966115e-09 8.397451622954577e-09 -0.00010161504906136543" pbc="T T T"
Co       2.03391863       1.43819946       3.52285471      -0.00000926       0.00000186       0.00000238
Co       6.10176402       4.31459971      10.56856340       0.00000753       0.00000968       0.00000364
Mn      -0.00000002      -0.00000035       0.00000022       0.00000678       0.00000132      -0.00000418
Br       1.91400601       1.35340644       7.04570800       0.00219971       0.00155546      -0.00000156
Br       6.22167804       4.39938966       7.04570808      -0.00220554      -0.00156268      -0.00000204
Br       5.14475978       1.35340562       5.18043235      -0.00110097       0.00155552       0.00190833
Br       2.99092362       4.39939026       8.91098447       0.00109889      -0.00155620      -0.00190588
Br       2.99092361       4.39939030       5.18043195       0.00110168      -0.00155806       0.00190788
Br       5.14475942       1.35340559       8.91098385      -0.00109878       0.00155308      -0.00190857
