9
Lattice="4.585644289252281 7.670976151784038e-08 2.647523087680525 1.5285481961969416 4.323387503907931 2.6475230401238394 -8.7380602094555e-08 -1.200322179151988e-07 5.295046326708706" Properties=species:S:1:pos:R:3:forces:R:3 energy=-44.07748794555664 free_energy=-44.07748794555664 stress="-0.00031167312408797443 -4.7334253849840024e-08 1.4042897511501451e-08 -4.7334253849840024e-08 -0.0003117054875474423 -4.990090829437577e-08 1.4042897511501451e-08 -4.990090829437577e-08 -0.0003117054875474423" pbc="T T T"
Co       1.52854628       1.08084863       2.64752237      -0.00001141       0.00001215      -0.00000425
Co       4.58564551       3.24253951       7.94257105       0.00000848      -0.00000745       0.00001191
Mn      -0.00000005      -0.00000005      -0.00000024       0.00000156      -0.00000809       0.00001503
F        1.52137840       1.07577729       5.29504633      -0.00032166      -0.00022261       0.00000182
F        4.59281378       3.24760981       5.29504552       0.00032815       0.00022472      -0.00000494
F        3.82495529       1.07577761       3.96507579       0.00016625      -0.00022767      -0.00028127
F        2.28923726       3.24760987       6.62501664      -0.00016467       0.00022227       0.00027624
F        2.28923765       3.24761003       3.96507598      -0.00016688       0.00023182      -0.00028643
F        3.82495526       1.07577711       6.62501656       0.00016029      -0.00022528       0.00027210
