9
Lattice="6.024443104581197 1.0763750436697492e-07 3.4782138052473 2.008147801764794 5.679899342493788 3.478213807401845 5.7698195579666346e-08 4.34375045582383e-08 6.956427510558415" Properties=species:S:1:pos:R:3:forces:R:3 energy=-23.71283721923828 free_energy=-23.71283721923828 stress="0.00010646799637470394 5.3266386856876125e-09 3.4593551134776135e-08 5.3266386856876125e-09 0.0001064641255652532 -5.225928578767025e-09 3.4593551134776135e-08 -5.225928578767025e-09 0.00010648166062310338" pbc="T T T"
Co       2.00814875       1.41997567       3.47821388       0.00000427       0.00000309       0.00000088
Co       6.02444353       4.25992424      10.43464289       0.00000068      -0.00000198       0.00000737
Mg      -0.00000002       0.00000009      -0.00000027      -0.00000008      -0.00000039       0.00000246
Br       2.08911794       1.47722972       6.95642735       0.00028750       0.00020511       0.00000113
Br       5.94347268       4.20266960       6.95642701      -0.00028586      -0.00020327      -0.00000343
Br       4.97988378       1.47722996       5.28744257      -0.00014403       0.00020322       0.00024449
Br       3.05270643       4.20266951       8.62541185       0.00014137      -0.00020517      -0.00024996
Br       3.05270706       4.20266948       5.28744300       0.00014251      -0.00020281       0.00024658
Br       4.97988367       1.47722967       8.62541220      -0.00014629       0.00020221      -0.00024959
