9
Lattice="4.437684314970582 6.275312733466185e-10 2.5620981733502384 1.479228086140483 4.183888994290759 2.5620982070236886 -2.984053356993179e-08 2.014095125566194e-08 5.124196398385795" Properties=species:S:1:pos:R:3:forces:R:3 energy=-39.532081604003906 free_energy=-39.532081604003906 stress="0.00014497418305836618 -5.1643393561562334e-08 2.1011809181459284e-08 -5.1643393561562334e-08 0.00014501156692858785 -7.197362705824162e-09 2.1011809181459284e-08 -7.197362705824162e-09 0.00014505758008453995" pbc="T T T"
Co       1.47922792       1.04597163       2.56209800      -0.00000162      -0.00000608      -0.00000132
Co       4.43768281       3.13791615       7.68629370      -0.00001593      -0.00000622      -0.00000929
Mg      -0.00000003       0.00000003      -0.00000001      -0.00000034       0.00000220      -0.00000156
F        1.50573346       1.06471383       5.12419661       0.00076735       0.00053756       0.00000121
F        4.41117912       3.11917552       5.12419649      -0.00076470      -0.00053685       0.00000204
F        3.68481819       1.06471441       3.86610152      -0.00037938       0.00054320       0.00066150
F        2.23209538       3.11917499       6.38229160       0.00038816      -0.00053791      -0.00065708
F        2.23209450       3.11917466       3.86610139       0.00038290      -0.00054054       0.00066128
F        3.68481806       1.06471485       6.38229180      -0.00037641       0.00054468      -0.00065695
