9
Lattice="6.592140850924252 4.914541366179798e-08 3.80597435228603 2.1973803381606376 6.215130073596703 3.805974338110072 3.957653165679511e-08 1.062292307242997e-08 7.611948636023501" Properties=species:S:1:pos:R:3:forces:R:3 energy=-19.81131362915039 free_energy=-19.81131362915039 stress="8.279451139969751e-05 3.6700722461091573e-09 3.319188535133577e-10 3.6700722461091573e-09 8.279754547402263e-05 -8.967501408108092e-09 3.319188535133577e-10 -8.967501408108092e-09 8.27788608148694e-05" pbc="T T T"
Co       2.19738029       1.55378226       3.80597426       0.00000050      -0.00000058      -0.00000088
Co       6.59214091       4.66134773      11.41792318      -0.00000102       0.00000110       0.00000079
Mg      -0.00000014      -0.00000009      -0.00000001       0.00000063       0.00000138      -0.00000046
I        2.31330199       1.63575160       7.61194857      -0.00031655      -0.00022380       0.00000063
I        6.47621931       4.57937875       7.61194864       0.00031517       0.00022316      -0.00000040
I        5.43549002       1.63575145       5.80935266       0.00015756      -0.00022376      -0.00027333
I        3.35403148       4.57937852       9.41454463      -0.00015656       0.00022270       0.00027320
I        3.35403134       4.57937880       5.80935250      -0.00015696       0.00022317      -0.00027287
I        5.43548973       1.63575153       9.41454489       0.00015726      -0.00022337       0.00027342
