9
Lattice="5.934314596455533 -3.4479366998216475e-08 3.4261780659323087 1.978104849835618 5.594925387796118 3.426178036733591 2.0331853172416914e-08 -2.138419333675479e-08 6.852356096648824" Properties=species:S:1:pos:R:3:forces:R:3 energy=-25.782562255859375 free_energy=-25.782562255859375 stress="0.00010847206431208178 -2.5932709313281066e-09 -4.4298049672875095e-09 -2.5932709313281066e-09 0.00010847576049854979 -3.1610905004697543e-09 -4.4298049672875095e-09 -3.1610905004697543e-09 0.00010849774844245985" pbc="T T T"
Co       1.97810517       1.39873089       3.42617821       0.00000142      -0.00000237       0.00000144
Co       5.93431529       4.19619406      10.27853262       0.00000494       0.00000086      -0.00000700
Ni      -0.00000002      -0.00000003       0.00000041       0.00000036       0.00000061      -0.00000220
Br       1.95126242       1.37975111       6.85235618       0.00009024       0.00006433       0.00000001
Br       5.96115670       4.21517451       6.85235654      -0.00009444      -0.00006452       0.00000233
Br       4.95868296       1.37975086       5.11602129      -0.00004643       0.00006425       0.00008024
Br       2.95373638       4.21517430       8.58869105       0.00004479      -0.00006312      -0.00007731
Br       2.95373568       4.21517438       5.11602144       0.00004397      -0.00006427       0.00008059
Br       4.95868330       1.37975126       8.58869101      -0.00004525       0.00006422      -0.00007822
