9
Lattice="4.484103237662976 -2.4370386740658803e-07 2.5888980710659006 1.494700994864563 4.227651893091754 2.5888978192087686 9.647230935893892e-08 -2.4024449918077864e-07 5.177795975036828" Properties=species:S:1:pos:R:3:forces:R:3 energy=-37.40974044799805 free_energy=-37.40974044799805 stress="0.00018647169054020196 1.1297269786325614e-08 4.91688751935726e-08 1.1297269786325614e-08 0.0001865974481916055 -3.421986249918518e-08 4.91688751935726e-08 -3.421986249918518e-08 0.0001864741207100451" pbc="T T T"
Co       1.49470221       1.05691162       2.58889938       0.00001205      -0.00001089       0.00001107
Co       4.48410408       3.17073989       7.76669437       0.00000911       0.00000994       0.00000642
Ni      -0.00000024       0.00000004       0.00000003       0.00000789      -0.00000002       0.00000148
F        1.50909338       1.06708920       5.17779524       0.00044263       0.00030860      -0.00000546
F        4.46971016       3.16056287       5.17779548      -0.00045063      -0.00030787      -0.00000372
F        3.72955606       1.06708951       3.89581058      -0.00023007       0.00031292       0.00037912
F        2.24924744       3.16056118       6.45978138       0.00021815      -0.00031202      -0.00038253
F        2.24924694       3.16056240       3.89581139       0.00021453      -0.00030995       0.00038686
F        3.72955714       1.06708868       6.45978048      -0.00022380       0.00030897      -0.00039342
