9
Lattice="5.936183922424379 -2.7050489183568386e-08 3.4272571995168444 1.9787279795129293 5.5966878154895605 3.427257146039926 -1.3297960324900671e-08 -7.489863336839672e-08 6.854514422066423" Properties=species:S:1:pos:R:3:forces:R:3 energy=-25.78251075744629 free_energy=-25.78251075744629 stress="0.0003570598491933197 2.6860213608870254e-08 1.6763955557053123e-08 2.6860213608870254e-08 0.00035703927278518677 -5.073189091042707e-10 1.6763955557053123e-08 -5.073189091042707e-10 0.00035703263711184263" pbc="T T T"
Co       1.97873052       1.39917011       3.42725961       0.00001858      -0.00001003       0.00001608
Co       5.93618900       4.19751802      10.28177431       0.00003203       0.00001190       0.00001884
Ni      -0.00000044      -0.00000000      -0.00000052       0.00000014      -0.00000327       0.00000487
Br       1.95137094       1.37982864       6.85451358       0.00074822       0.00053512      -0.00000574
Br       5.96353930       4.21685996       6.85451290      -0.00075775      -0.00052778      -0.00000830
Br       4.96049660       1.37982729       5.11719384      -0.00038704       0.00052740       0.00064996
Br       2.95441190       4.21686080       8.59183324       0.00036664      -0.00053015      -0.00066592
Br       2.95441260       4.21685951       5.11719421       0.00036673      -0.00053082       0.00065105
Br       4.96049713       1.37982655       8.59183370      -0.00038761       0.00052765      -0.00066158
