9
Lattice="5.3557190922912135 7.725038181001826e-10 3.0921260330941855 1.7852396186393122 5.04942040036792 3.0921261708258796 -1.3331605178158186e-07 7.441750654150665e-08 6.1842522970985545" Properties=species:S:1:pos:R:3:forces:R:3 energy=-36.99894714355469 free_energy=-36.99894714355469 stress="-0.00010025918163591996 -9.320868343820621e-08 4.366201178385154e-09 -9.320868343820621e-08 -0.00010015333100454882 -2.9301028270367624e-09 4.366201178385154e-09 -2.9301028270367624e-09 -0.00010012129496317357" pbc="T T T"
Co       1.78523928       1.26235373       3.09212620      -0.00000181      -0.00001630       0.00000155
Co       5.35571842       3.78706698       9.27637685      -0.00000378       0.00001796      -0.00001827
Ni      -0.00000018       0.00000011      -0.00000010       0.00000902      -0.00000872       0.00000277
S        1.76417967       1.24746204       6.18425225      -0.00354749      -0.00252271      -0.00000054
S        5.37677904       3.80195866       6.18425260       0.00354639       0.00251836       0.00000839
S        4.47362925       1.24746257       4.61995100       0.00177629      -0.00252289      -0.00307265
S        2.66733030       3.80195774       7.74855409      -0.00177102       0.00252554       0.00308499
S        2.66732879       3.80195724       4.61995106      -0.00178532       0.00252417      -0.00308189
S        4.47362968       1.24746288       7.74855405       0.00177756      -0.00251529       0.00307545
