9
Lattice="4.213039348551074 -5.393411919978261e-09 2.4323993787976685 1.4043464503318726 3.972091584669122 2.432399368578903 4.312261368440585e-09 -9.466158051012408e-09 4.864798750126287" Properties=species:S:1:pos:R:3:forces:R:3 energy=-40.647186279296875 free_energy=-40.647186279296875 stress="5.529369445866905e-05 7.066876417383128e-09 2.402859244909905e-08 7.066876417383128e-09 5.543582665268332e-05 -2.4206881832355975e-08 2.402859244909905e-08 -2.4206881832355975e-08 5.5471144150942564e-05" pbc="T T T"
Co       1.40434638       0.99302290       2.43239967      -0.00000058      -0.00000021       0.00000287
Co       4.21303938       2.97906904       7.29719716      -0.00000028       0.00000509      -0.00000739
Ni      -0.00000002      -0.00000009      -0.00000009       0.00000274      -0.00000059       0.00001127
O        1.43780299       1.01667999       4.86479866      -0.00092181      -0.00065407      -0.00000117
O        4.17958300       2.95541135       4.86479940       0.00092060       0.00065095       0.00000713
O        3.49413744       1.01668014       3.67757319       0.00046010      -0.00065444      -0.00080126
O        2.12324807       2.95541146       6.05202426      -0.00045747       0.00064797       0.00079735
O        2.12324777       2.95541155       3.67757359      -0.00046391       0.00065517      -0.00080021
O        3.49413817       1.01667982       6.05202410       0.00046020      -0.00064991       0.00079212
