9
Lattice="6.016227070702394 1.1397224294008754e-08 3.4734702899816323 2.0054090740978863 5.672153009800004 3.4734702210719535 1.0819143447626171e-07 -7.893852822563827e-09 6.946940392570225" Properties=species:S:1:pos:R:3:forces:R:3 energy=-31.71278190612793 free_energy=-31.71278190612793 stress="0.00015573388373013586 -1.5113229778762616e-08 5.41449463042909e-09 -1.5113229778762616e-08 0.00015576185251120478 7.806477242411347e-09 5.41449463042909e-09 7.806477242411347e-09 0.0001556988718220964" pbc="T T T"
Co       2.00541083       1.41803756       3.47346855       0.00001078      -0.00000713      -0.00001191
Co       6.01622779       4.25411500      10.42040970       0.00000456       0.00000282      -0.00000694
Ni       0.00000014       0.00000001      -0.00000037      -0.00000096      -0.00000001       0.00000485
Te       2.06424283       1.45964004       6.94694132      -0.00058621      -0.00041449       0.00000677
Te       5.95739285       4.21251332       6.94694138       0.00058383       0.00042022       0.00000377
Te       4.98410500       1.45963976       5.26115692       0.00029063      -0.00041841      -0.00050989
Te       3.03753030       4.21251289       8.63272424      -0.00029419       0.00041303       0.00050757
Te       3.03753033       4.21251331       5.26115717      -0.00029388       0.00041766      -0.00050581
Te       4.98410496       1.45964018       8.63272471       0.00028539      -0.00041369       0.00051162
