9
Lattice="4.484822957653793 1.255723187501565e-07 2.5893137423688284 1.494941047223974 4.2283319088190625 2.589313841184678 -3.321684638677761e-08 9.753632523065378e-08 5.178627542270951" Properties=species:S:1:pos:R:3:forces:R:3 energy=-37.40972137451172 free_energy=-37.40972137451172 stress="0.0005944845615886152 -9.033255565782383e-08 8.587686672889561e-10 -9.033255565782383e-08 0.0005944361328147352 -7.515570388250126e-09 8.587686672889561e-10 -7.515570388250126e-09 0.0005945130833424628" pbc="T T T"
Co       1.49494053       1.05708278       2.58931372      -0.00000532      -0.00000119      -0.00000005
Co       4.48482295       3.17124911       7.76794140      -0.00000078      -0.00000190       0.00000059
Ni       0.00000014      -0.00000002      -0.00000017       0.00000047       0.00000012       0.00000461
F        1.50926129       1.06720886       5.17862752      -0.00060210      -0.00042808       0.00000245
F        4.47050264       3.16112344       5.17862744       0.00060327       0.00042598      -0.00000049
F        3.73019262       1.06720897       3.89637253       0.00030691      -0.00042954      -0.00052430
F        2.24957151       3.16112316       6.46088288      -0.00030266       0.00042942       0.00052311
F        2.24957159       3.16112310       3.89637224      -0.00030245       0.00043037      -0.00052574
F        3.73019264       1.06720916       6.46088292       0.00030255      -0.00042515       0.00051994
