9
Lattice="6.770977065708956 -4.33013992712345e-08 3.9092255346765703 2.2569924031127795 6.383738312145477 3.9092253810411712 7.6845367592242e-08 -1.3382623282638897e-07 7.81845093625303" Properties=species:S:1:pos:R:3:forces:R:3 energy=-28.152610778808594 free_energy=-28.152610778808594 stress="0.000133032095618546 -3.9420208763907283e-10 1.2310854557995299e-09 -3.9420208763907283e-10 0.0001330249651800841 -6.880618741433864e-09 1.2310854557995299e-09 -6.880618741433864e-09 0.00013302358274813741" pbc="T T T"
Co       2.25699231       1.59593485       3.90922547       0.00000041       0.00000075      -0.00000035
Co       6.77097706       4.78780390      11.72767671      -0.00000008       0.00000064       0.00000022
Nb       0.00000022      -0.00000006       0.00000021      -0.00000030      -0.00000051       0.00000011
I        2.24814036       1.58967469       7.81845101      -0.00161449      -0.00114233       0.00000010
I        6.77982960       4.79406328       7.81845068       0.00161493       0.00114188      -0.00000010
I        5.64690705       1.58967490       5.85617170       0.00080712      -0.00114209      -0.00139834
I        3.38106250       4.79406313       9.78073023      -0.00080743       0.00114181       0.00139855
I        3.38106222       4.79406316       5.85617150      -0.00080746       0.00114200      -0.00139871
I        5.64690688       1.58967470       9.78072997       0.00080728      -0.00114217       0.00139851
