9
Lattice="6.28333096106739 -5.396249085880016e-11 3.6276829463667553 2.094443710598593 5.923981180750163 3.6276828477086074 1.682016408383859e-07 -1.8945752457554096e-09 7.255365601399737" Properties=species:S:1:pos:R:3:forces:R:3 energy=-32.5858039855957 free_energy=-32.5858039855957 stress="0.00011578304111026227 3.51524356290156e-08 -1.747376998650907e-08 3.51524356290156e-08 0.00011575969256227836 -6.577069555646631e-09 -1.747376998650907e-08 -6.577069555646631e-09 0.00011573013034649193" pbc="T T T"
Co       2.09444335       1.48099565       3.62768339      -0.00000116       0.00000109       0.00000171
Co       6.28333085       4.44298589      10.88304663      -0.00000095      -0.00000033      -0.00000452
Nb       0.00000004       0.00000016       0.00000016      -0.00000241      -0.00000267       0.00000467
Br       2.07260833       1.46555540       7.25536556      -0.00103946      -0.00073498       0.00000031
Br       6.30516626       4.45842543       7.25536636       0.00104420       0.00073784       0.00000193
Br       5.24702705       1.46555522       5.42261442       0.00052016      -0.00073621      -0.00089920
Br       3.13074847       4.45842577       9.08811736      -0.00051787       0.00073302       0.00089751
Br       3.13074778       4.45842542       5.42261431      -0.00052045       0.00073457      -0.00089929
Br       5.24702733       1.46555580       9.08811742       0.00051792      -0.00073234       0.00089687
