9
Lattice="5.697550463284129 -2.5849967001626575e-07 3.289482615378729 1.8991832030139535 5.371703134780291 3.289482686447564 -2.3162162985717127e-08 7.066307940236882e-08 6.5789652708755" Properties=species:S:1:pos:R:3:forces:R:3 energy=-34.2249755859375 free_energy=-34.2249755859375 stress="2.130107986886287e-06 6.18235560523317e-08 -1.1279255573981573e-07 6.18235560523317e-08 2.3318282273976365e-06 -1.1289828449889683e-07 -1.1279255573981573e-07 -1.1289828449889683e-07 2.6006750886153895e-06" pbc="T T T"
Co       1.89921369       1.34291527       3.28947844       0.00029448      -0.00010132      -0.00004551
Co       5.69754018       4.02877050       9.86846835      -0.00010110      -0.00006305       0.00020334
Ni      -0.00000042       0.00000008       0.00000036       0.00001035      -0.00000184      -0.00000652
Se       1.89097519       1.33711939       6.57896608      -0.00003591      -0.00004178       0.00001780
Se       5.70575328       4.03459122       6.57895476      -0.00003076       0.00012301      -0.00010087
Se       4.75205365       1.33712860       4.92710328      -0.00006180       0.00004266      -0.00014442
Se       2.84466707       4.03457968       8.23081534      -0.00004409       0.00001843       0.00004742
Se       2.84468172       4.03458544       4.92711212       0.00007303       0.00005682      -0.00008166
Se       4.75205027       1.33712168       8.23082351      -0.00010405      -0.00003295       0.00011042
