9
Lattice="6.395032803409698 -1.4086346069175027e-08 3.6921739048774356 2.1316775852129766 6.029294758888406 3.692173909455006 -2.23983903200351e-09 4.022540415429094e-09 7.384347813634379" Properties=species:S:1:pos:R:3:forces:R:3 energy=-22.18178939819336 free_energy=-22.18178939819336 stress="0.00022831122623756528 2.830240486417779e-09 8.95439333792325e-10 2.830240486417779e-09 0.00022829663066659123 -2.9070088558569296e-09 8.95439333792325e-10 -2.9070088558569296e-09 0.00022830450325272977" pbc="T T T"
Co       2.13167764       1.50732357       3.69217385       0.00000027       0.00000091       0.00000000
Co       6.39503277       4.52197110      11.07652162       0.00000017       0.00000033      -0.00000007
Ni      -0.00000010       0.00000002       0.00000012      -0.00000042      -0.00000193      -0.00000003
I        2.15437183       1.52337094       7.38434781       0.00125527       0.00088781      -0.00000002
I        6.37233864       4.50592392       7.38434788      -0.00125526      -0.00088792       0.00000002
I        5.31784692       1.52337087       5.55791464      -0.00062811       0.00088754       0.00108707
I        3.20886358       4.50592373       9.21078095       0.00062780      -0.00088708      -0.00108717
I        3.20886343       4.50592381       5.55791466       0.00062794      -0.00088723       0.00108711
I        5.31784684       1.52337100       9.21078095      -0.00062773       0.00088747      -0.00108707
