9
Lattice="6.393183720206603 -7.757272235684206e-08 3.691106369391147 2.1310611541061193 6.027551275545719 3.69110639160728 8.491884674243443e-10 2.780954417992392e-08 7.382212737311477" Properties=species:S:1:pos:R:3:forces:R:3 energy=-22.181819915771484 free_energy=-22.181819915771484 stress="-3.2752211609476944e-06 8.181387234351689e-10 7.236087729012297e-09 8.181387234351689e-10 -3.2768684832262807e-06 -1.9819637042672866e-09 7.236087729012297e-09 -1.9819637042672866e-09 -3.2632951842970215e-06" pbc="T T T"
Co       2.13106125       1.50688738       3.69110617       0.00000066      -0.00000069      -0.00000140
Co       6.39318320       4.52066215      11.07332006      -0.00000187      -0.00000463       0.00000495
Ni       0.00000016      -0.00000001       0.00000027       0.00000001       0.00000098       0.00000025
I        2.15409193       1.52317333       7.38221265      -0.00007993      -0.00005491       0.00000064
I        6.37015275       4.50437830       7.38221223       0.00007898       0.00005586      -0.00000276
I        5.31613793       1.52317380       5.55660487       0.00004113      -0.00005398      -0.00007020
I        3.20810732       4.50437819       9.20782044      -0.00003967       0.00005547       0.00006796
I        3.20810746       4.50437820       5.55660475      -0.00003809       0.00005708      -0.00006892
I        5.31613749       1.52317359       9.20782057       0.00003870      -0.00005511       0.00006944
