9
Lattice="4.790287132126784 6.275900968065676e-08 2.765673538788933 1.5967624816874812 4.5163259562051 2.765673460600494 4.718852616817198e-08 -6.239356531558167e-08 5.531346995844959" Properties=species:S:1:pos:R:3:forces:R:3 energy=-48.241050720214844 free_energy=-48.241050720214844 stress="-8.720653568161651e-05 1.0131884664588142e-08 -3.7082830139922862e-09 1.0131884664588142e-08 -8.719228208065033e-05 -6.370083571738405e-09 -3.7082830139922862e-09 -6.370083571738405e-09 -8.719364268472418e-05" pbc="T T T"
Co       1.59676246       1.12908218       2.76567423      -0.00000051       0.00000424       0.00000223
Co       4.79028659       3.38724453       8.29701929      -0.00000377      -0.00000052      -0.00000698
Nb       0.00000002      -0.00000009      -0.00000010       0.00000765      -0.00000326       0.00000756
F        1.62205392       1.14696541       5.53134726       0.00268793       0.00189981       0.00000032
F        4.76499589       3.36936043       5.53134752      -0.00269064      -0.00190485       0.00000244
F        3.97926003       1.14696549       4.17041329      -0.00134549       0.00190175       0.00233001
F        2.40778989       3.36936058       6.89228056       0.00134802      -0.00190315      -0.00232869
F        2.40778954       3.36936028       4.17041333       0.00134267      -0.00190070       0.00232622
F        3.97926048       1.14696530       6.89228047      -0.00134611       0.00190666      -0.00233367
