9
Lattice="5.540686755677107 1.2062767877534379e-08 3.1989170147612627 1.846895596049459 5.223809619672517 3.198917015712328 -5.855771338533068e-09 -2.9757927208264744e-09 6.397834039664997" Properties=species:S:1:pos:R:3:forces:R:3 energy=-28.929927825927734 free_energy=-28.929927825927734 stress="0.0002291814744239673 9.61516866126999e-10 1.6359296139967228e-08 9.61516866126999e-10 0.0002291756245540455 -1.0041659948001325e-08 1.6359296139967228e-08 -1.0041659948001325e-08 0.00022917463502380997" pbc="T T T"
Co       1.84689562       1.30595275       3.19891604       0.00000123       0.00000350      -0.00000975
Co       5.54068597       3.91785707       9.59675087      -0.00000406      -0.00000087       0.00000034
Ni       0.00000019      -0.00000005       0.00000014      -0.00000084       0.00000032       0.00000393
Cl       1.84786823       1.30664018       6.39783419      -0.00266615      -0.00188558       0.00000382
Cl       5.53971412       3.91716946       6.39783410       0.00266656       0.00188527      -0.00000067
Cl       4.61675301       1.30664018       4.79921816       0.00133583      -0.00188494      -0.00230953
Cl       2.77082994       3.91716910       7.99645068      -0.00133249       0.00188184       0.00231008
Cl       2.77083001       3.91716958       4.79921771      -0.00133070       0.00188647      -0.00230938
Cl       4.61675234       1.30664018       7.99645043       0.00133039      -0.00188580       0.00231095
