9
Lattice="5.800260743308117 -1.9745860337344813e-07 3.3487818178606146 1.9334200766612604 5.468537694501094 3.3487817917799294 2.1531988463705196e-08 -1.6716730466720332e-08 6.697563598426711" Properties=species:S:1:pos:R:3:forces:R:3 energy=-36.264373779296875 free_energy=-36.264373779296875 stress="0.00011670357343973592 -8.994468458922711e-08 -4.441855594450317e-08 -8.994468458922711e-08 0.0001167465525213629 -2.095350559727649e-08 -4.441855594450317e-08 -2.095350559727649e-08 0.00011676441499730572" pbc="T T T"
Co       1.93342010       1.36713456       3.34878081      -0.00000099       0.00000148      -0.00000525
Co       5.80026003       4.10140294      10.04634481      -0.00000287      -0.00000235      -0.00000582
Nb      -0.00000018      -0.00000017      -0.00000002       0.00000482       0.00000225      -0.00000143
Cl       1.94946183       1.37847732       6.69756368       0.00009865       0.00007066       0.00000236
Cl       5.78421953       4.09006021       6.69756397      -0.00010440      -0.00007355       0.00000138
Cl       4.82552999       1.37847777       5.03706612      -0.00004442       0.00006734       0.00008279
Cl       2.90815129       4.09005958       8.35806188       0.00004630      -0.00006618      -0.00007913
Cl       2.90815142       4.09005973       5.03706538       0.00004962      -0.00006641       0.00008389
Cl       4.82552936       1.37847793       8.35806213      -0.00004695       0.00006691      -0.00007868
