9
Lattice="4.668842163850873 -5.127441089440993e-08 2.6955572672868513 1.5562807057891619 4.401826338184781 2.6955572103932917 7.415900584658992e-08 -1.7241784839816743e-08 5.391114406126543" Properties=species:S:1:pos:R:3:forces:R:3 energy=-36.77445983886719 free_energy=-36.77445983886719 stress="-0.00026637432165443897 -5.350820675431578e-09 -2.8926120165806424e-08 -5.350820675431578e-09 -0.0002664147177711129 2.25161400635443e-08 -2.8926120165806424e-08 2.25161400635443e-08 -0.00026636652182787657" pbc="T T T"
Co       1.55628047       1.10045705       2.69555713      -0.00000170       0.00000345      -0.00000081
Co       4.66884218       3.30136886       8.08667165       0.00000017      -0.00000594       0.00000138
Pd      -0.00000010       0.00000005       0.00000016       0.00000010      -0.00000067      -0.00000284
F        1.60934497       1.13797890       5.39111425       0.00068675       0.00048704       0.00000032
F        4.61577809       3.26384759       5.39111440      -0.00068659      -0.00048664      -0.00000099
F        3.86416973       1.13797877       4.08929087      -0.00034100       0.00048592       0.00059317
F        2.36095322       3.26384740       6.69293793       0.00034057      -0.00048355      -0.00059077
F        2.36095313       3.26384759       4.08929078       0.00034401      -0.00048706       0.00059545
F        3.86417000       1.13797886       6.69293835      -0.00034223       0.00048754      -0.00059494
