9
Lattice="3.938652943950058 -1.1420454372186892e-08 2.273982345314898 1.312884328033329 3.7133975184877825 2.2739823034848006 5.631828818515682e-08 -1.1408152861961158e-08 4.5479645930836545" Properties=species:S:1:pos:R:3:forces:R:3 energy=-52.35859298706055 free_energy=-52.35859298706055 stress="9.715954365674406e-05 -1.365411179676812e-07 6.696752308243958e-08 -1.365411179676812e-07 9.599187615094706e-05 -1.5385322171823645e-07 6.696752308243958e-08 -1.5385322171823645e-07 9.66901279753074e-05" pbc="T T T"
Co       1.31288386       0.92834941       2.27398573       0.00010100      -0.00000275      -0.00072818
Co       3.93865251       2.78504806       6.82195065       0.00009391       0.00001266      -0.00073753
P        0.00000523       0.00000027      -0.00004133      -0.00107590      -0.00005153       0.00843071
O        1.39247151       0.98462575       4.54796225      -0.00071454      -0.00046998       0.00048128
O        3.85906212       2.72876857       4.54796223       0.00147742       0.00110108       0.00048748
O        3.24240940       0.98463786       3.47991014       0.00199425      -0.00294119      -0.00310445
O        2.00911378       2.72878076       5.61604043       0.00091511      -0.00137758      -0.00120759
O        2.00912783       2.72876114       3.47990830      -0.00193888       0.00264198      -0.00275642
O        3.24242320       0.98461818       5.61603856      -0.00085330       0.00108731      -0.00086826
