9
Lattice="4.0556155053921294 3.032687951418418e-08 2.3415110009143265 1.351871846422045 3.823671108123914 2.341511030880715 -1.244799836707532e-07 -5.131943955105594e-08 4.683022217434317" Properties=species:S:1:pos:R:3:forces:R:3 energy=-37.723182678222656 free_energy=-37.723182678222656 stress="0.0009531608666293323 1.981024695396627e-07 -6.64088091184567e-08 1.981024695396627e-07 0.0009538420126773417 5.822106459163479e-07 -6.64088091184567e-08 5.822106459163479e-07 0.0009538928861729801" pbc="T T T"
Co       1.35187173       0.95591771       2.34151075      -0.00000391      -0.00001441      -0.00000285
Co       4.05561528       2.86775311       7.02453321      -0.00000001       0.00000395       0.00000510
P        0.00000037      -0.00000021       0.00000047      -0.00000079       0.00001887      -0.00001868
F        1.31297394       0.92841260       4.68302199       0.00188422       0.00133371      -0.00000037
F        4.09451415       2.89525857       4.68302218      -0.00189281      -0.00133544       0.00000316
F        3.39912852       0.92841261       3.47857986      -0.00094414       0.00133479       0.00163436
F        2.00835823       2.89525856       5.88746462       0.00094861      -0.00133735      -0.00163209
F        2.00835845       2.89525852       3.47857969       0.00094873      -0.00133842       0.00163722
F        3.39912819       0.92841271       5.88746395      -0.00093937       0.00133288      -0.00162566
