9
Lattice="5.464840202713298 1.2652095147331762e-07 3.1551273440843466 1.8216134923415008 5.152301203902994 3.1551273923185548 1.0147799593948893e-07 1.3083038096546892e-07 6.310254512403655" Properties=species:S:1:pos:R:3:forces:R:3 energy=-33.42398452758789 free_energy=-33.42398452758789 stress="-5.355720713851042e-05 -1.080330847003097e-07 -9.382620902442795e-08 -1.080330847003097e-07 -5.360000432119705e-05 -6.932192064823539e-08 -9.382620902442795e-08 -6.932192064823539e-08 -5.3951349400449544e-05" pbc="T T T"
Co       1.82160662       1.28807512       3.15512365      -0.00008640      -0.00000531      -0.00004612
Co       5.46484288       3.86422964       9.46538354       0.00002962       0.00004321       0.00001808
P       -0.00000002      -0.00000036       0.00000024       0.00000262      -0.00000016       0.00000038
Se       2.10771800       1.49038140       6.31025580      -0.00134173      -0.00095589       0.00001986
Se       5.17873659       3.66191793       6.31025451       0.00136626       0.00094080      -0.00001038
Se       4.41098419       1.49038132       4.98046711       0.00070637      -0.00096717      -0.00114116
Se       2.87547224       3.66191971       7.64004380      -0.00069262       0.00095582       0.00115868
Se       2.87547233       3.66192098       4.98046584      -0.00067388       0.00096966      -0.00114805
Se       4.41098225       1.49038014       7.64004249       0.00068980      -0.00098088       0.00114876
