9
Lattice="6.06246777130688 -1.5563110974863397e-09 3.5001674057746635 2.020822594209777 5.715749421401939 3.500167396696162 1.9228921090700937e-08 2.478092893551984e-09 7.000334778243854" Properties=species:S:1:pos:R:3:forces:R:3 energy=-25.26898193359375 free_energy=-25.26898193359375 stress="9.746108116814867e-05 -4.5535530901474885e-09 1.0984106957323547e-08 -4.5535530901474885e-09 9.746749856276438e-05 -1.963779894254003e-08 1.0984106957323547e-08 -1.963779894254003e-08 9.745209536049515e-05" pbc="T T T"
Co       2.02082288       1.42893738       3.50016792       0.00000114      -0.00000006       0.00000226
Co       6.06246767       4.28681190      10.50050268      -0.00000068      -0.00000004       0.00000260
Pd       0.00000000       0.00000001       0.00000002       0.00000146       0.00000317      -0.00000032
Br       2.02793457       1.43396615       7.00033459       0.00044254       0.00031343      -0.00000124
Br       6.05535595       4.28178325       7.00033460      -0.00044536      -0.00031509      -0.00000073
Br       5.04850056       1.43396628       5.25641007      -0.00022311       0.00031497       0.00038336
Br       3.03478973       4.28178341       8.74425926       0.00022242      -0.00031374      -0.00038580
Br       3.03478992       4.28178302       5.25641001       0.00022290      -0.00031471       0.00038271
Br       5.04850024       1.43396628       8.74425918      -0.00022130       0.00031212      -0.00038271
