9
Lattice="5.5030573215179 -6.869621780887417e-08 3.177191896507356 1.83435241424437 5.188332207700088 3.177191829813311 8.669165174418157e-09 -7.55531505058748e-08 6.354383777999282" Properties=species:S:1:pos:R:3:forces:R:3 energy=-35.84633255004883 free_energy=-35.84633255004883 stress="0.00021645007655024529 -4.776560302843791e-08 6.43758539808914e-08 -4.776560302843791e-08 0.00021660250786226243 8.910810755935472e-09 6.43758539808914e-08 8.910810755935472e-09 0.0002164881443604827" pbc="T T T"
Co       1.83435193       1.29708589       3.17719258      -0.00000277       0.00003622       0.00000275
Co       5.50305703       3.89124522       9.53158275      -0.00000197      -0.00004456       0.00007437
P        0.00000016      -0.00000004       0.00000003      -0.00000073       0.00000028      -0.00000649
S        1.78136991       1.25962000       6.35438342      -0.00385690      -0.00271124       0.00000002
S        5.55604002       3.92871212       6.35438012       0.00385833       0.00271100      -0.00003807
S        4.61237381       1.25962229       4.71990223       0.00193864      -0.00268602      -0.00335133
S        2.72503517       3.92871163       7.98886307      -0.00194931       0.00271046       0.00333345
S        2.72503849       3.92871153       4.71990225      -0.00191242       0.00270844      -0.00335211
S        4.61237258       1.25961957       7.98886343       0.00192815      -0.00272411       0.00333798
