9
Lattice="6.5516603161124385 -1.614958540765931e-07 3.7826027722875972 2.18388673684296 6.176963642599713 3.782602569524704 2.476567161677236e-07 -7.321309067275977e-08 7.565205115621148" Properties=species:S:1:pos:R:3:forces:R:3 energy=-21.14302635192871 free_energy=-21.14302635192871 stress="0.00017294516146648675 -2.873716598017495e-09 -1.4726484476312862e-09 -2.873716598017495e-09 0.00017295824363827705 -1.1037231573141071e-08 -1.4726484476312862e-09 -1.1037231573141071e-08 0.00017297378508374095" pbc="T T T"
Co       2.18388731       1.54424094       3.78260295       0.00000135      -0.00000033       0.00000086
Co       6.55166085       4.63272256      11.34780592       0.00000144      -0.00000020      -0.00000513
P        0.00000006      -0.00000010       0.00000063      -0.00000116      -0.00000049      -0.00000076
I        2.24324397       1.58621243       7.56520526       0.00036575       0.00025918      -0.00000006
I        6.49230312       4.59075098       7.56520605      -0.00036591      -0.00025792       0.00000252
I        5.43003812       1.58621231       5.72530882      -0.00018370       0.00025778       0.00031672
I        3.30550884       4.59075084       9.40510154       0.00018320      -0.00025879      -0.00031583
I        3.30550840       4.59075079       5.72530894       0.00018112      -0.00025842       0.00031734
I        5.43003853       1.58621279       9.40510178      -0.00018204       0.00025923      -0.00031564
