9
Lattice="5.762883609800994 -1.737152970440654e-08 3.3272023799164314 1.9209611601096124 5.433299185837296 3.3272024262996465 -1.0413407263753838e-08 4.9444184865401825e-08 6.654404777869435" Properties=species:S:1:pos:R:3:forces:R:3 energy=-27.651853561401367 free_energy=-27.651853561401367 stress="-3.86516012440552e-06 -1.188524763051646e-07 -1.469087180794304e-07 -1.188524763051646e-07 -3.880643362208502e-06 -8.732180845072435e-08 -1.469087180794304e-07 -8.732180845072435e-08 -4.0536247070122045e-06" pbc="T T T"
Co       1.92096132       1.35832398       3.32720551       0.00000247      -0.00000764       0.00001727
Co       5.76287912       4.07497326       9.98160362      -0.00002835      -0.00000794      -0.00002332
P        0.00000070       0.00000030       0.00000024       0.00000309       0.00000110       0.00000036
Cl       1.87348489       1.32475327       6.65440407      -0.00232149      -0.00164583      -0.00000577
Cl       5.81036027       4.10854577       6.65440558       0.00232580       0.00164692       0.00000436
Cl       4.82614109       1.32475354       4.94968728       0.00116339      -0.00164550      -0.00201454
Cl       2.85770551       4.10854635       8.35912239      -0.00115400       0.00165243       0.00201944
Cl       2.85770395       4.10854488       4.94968659      -0.00116030       0.00164394      -0.00201665
Cl       4.82614206       1.32475559       8.35912287       0.00116934      -0.00163740       0.00201892
