9
Lattice="6.090231212454315 1.1853244496163444e-07 3.5161965867773626 2.0300772147216106 5.741925043967584 3.5161965310918686 4.302501474428173e-08 -3.777723092026814e-08 7.032393099033188" Properties=species:S:1:pos:R:3:forces:R:3 energy=-24.553939819335938 free_energy=-24.553939819335938 stress="-0.0002548033371567726 -4.747012383177207e-08 -8.266967199688224e-08 -4.747012383177207e-08 -0.0002547641925048083 -5.841167194375885e-08 -8.266967199688224e-08 -5.841167194375885e-08 -0.00025492042186670005" pbc="T T T"
Co       2.03008173       1.43548842       3.51619385       0.00002391       0.00003561      -0.00001327
Co       6.09022857       4.30644485      10.54857705      -0.00001487       0.00000398      -0.00006132
P        0.00000005      -0.00000027       0.00000143      -0.00000142      -0.00000513       0.00001000
Br       2.03911751       1.44187216       7.03239406       0.00022648       0.00015383       0.00000711
Br       6.08119147       4.30005026       7.03239747      -0.00022216      -0.00016443       0.00002135
Br       5.07067120       1.44187182       5.28212490      -0.00011874       0.00014953       0.00019996
Br       3.04963769       4.30004900       8.78266605       0.00011971      -0.00017096      -0.00017741
Br       3.04963382       4.30004934       5.28212437       0.00010395      -0.00016796       0.00019579
Br       5.07067182       1.44187487       8.78266574      -0.00011681       0.00016560      -0.00018211
