9
Lattice="4.470268435068234 1.8247692206669821e-07 2.580910609338707 1.490089610475295 4.2146097480887175 2.580910678485072 1.1942082801937255e-07 1.69129946164245e-07 5.1618210118344185" Properties=species:S:1:pos:R:3:forces:R:3 energy=-45.955413818359375 free_energy=-45.955413818359375 stress="-3.9642916817683727e-05 4.866866465391695e-09 1.6883375808518508e-09 4.866866465391695e-09 -3.9592781831743196e-05 7.87920697575828e-08 1.6883375808518508e-09 7.87920697575828e-08 -3.980440305895172e-05" pbc="T T T"
Co       1.49008949       1.05365365       2.58090954       0.00000048       0.00000444      -0.00000455
Co       4.47026780       3.16095705       7.74273282      -0.00000406      -0.00000189       0.00000456
Si       0.00000019      -0.00000006      -0.00000001       0.00000317       0.00000635       0.00000587
F        1.38118981       0.97664826       5.16182118       0.00089547       0.00062967       0.00000071
F        4.57916854       3.23796168       5.16182068      -0.00089665      -0.00063457      -0.00000125
F        3.77967419       0.97664874       3.77705570      -0.00044546       0.00063175       0.00077459
F        2.18068448       3.23796107       6.54658702       0.00044667      -0.00063480      -0.00077618
F        2.18068403       3.23796105       3.77705557       0.00044855      -0.00063601       0.00077686
F        3.77967416       0.97664879       6.54658678      -0.00044817       0.00063495      -0.00078030
