9
Lattice="4.543564252807119 -8.404130262892567e-08 2.6232280584183663 1.5145213454271444 4.283713624458185 2.6232280461906523 -1.2457324117477907e-07 -1.0306240828600675e-07 5.246456332603911" Properties=species:S:1:pos:R:3:forces:R:3 energy=-35.890316009521484 free_energy=-35.890316009521484 stress="-0.0003781411796808243 -9.71878506561552e-08 -5.391963497913821e-08 -9.71878506561552e-08 -0.0003780972328968346 1.9692151909112e-08 -5.391963497913821e-08 1.9692151909112e-08 -0.0003780786646530032" pbc="T T T"
Co       1.51452981       1.07093075       2.62322705       0.00007299       0.00002408      -0.00000911
Co       4.54356072       3.21277827       7.86968576      -0.00003122      -0.00006027       0.00001394
S       -0.00000083       0.00000072      -0.00000024      -0.00000977       0.00000131       0.00000281
F        1.53650382       1.08647407       5.24645657      -0.00389647      -0.00273955       0.00000375
F        4.52158016       3.19724107       5.24645539       0.00388711       0.00276137      -0.00000539
F        3.77531051       1.08647520       3.95387814       0.00193463      -0.00273517      -0.00339592
F        2.28277341       3.19723914       6.53903327      -0.00194492       0.00274024       0.00338530
F        2.28277404       3.19723968       3.95387930      -0.00194303       0.00274485      -0.00338756
F        3.77531023       1.08647478       6.53903455       0.00193062      -0.00273682       0.00339229
