9
Lattice="6.522391045681117 -4.2340393365100645e-08 3.7657047445269183 2.1741303424934917 6.149369210600889 3.7657046858934824 1.279259797711277e-07 1.864632602212194e-08 7.531409267479517" Properties=species:S:1:pos:R:3:forces:R:3 energy=-19.03531837463379 free_energy=-19.03531837463379 stress="4.977631397196092e-05 -1.2871985255458185e-08 -9.731263794776623e-09 -1.2871985255458185e-08 4.9781709094531834e-05 -9.00061891684345e-09 -9.731263794776623e-09 -9.00061891684345e-09 4.9769150791689754e-05" pbc="T T T"
Co       2.17413027       1.53734232       3.76570467      -0.00000012       0.00000116      -0.00000075
Co       6.52239084       4.61202684      11.29711385      -0.00000142      -0.00000138      -0.00000177
S       -0.00000010      -0.00000007      -0.00000012      -0.00000170       0.00000016      -0.00000091
I        2.31978165       1.64033344       7.53140925       0.00225016       0.00159110       0.00000013
I        6.37673989       4.50903605       7.53140953      -0.00224923      -0.00159118       0.00000218
I        5.36250046       1.64033296       5.77469446      -0.00112461       0.00159073       0.00194837
I        3.33402127       4.50903585       9.28812474       0.00112575      -0.00159068      -0.00194733
I        3.33402126       4.50903595       5.77469383       0.00112589      -0.00159186       0.00194737
I        5.36250052       1.64033343       9.28812461      -0.00112460       0.00159201      -0.00194718
