9
Lattice="4.270757747299596 -6.802670874956529e-08 2.465723328034363 1.423585880008763 4.026508910160284 2.4657232788814887 3.394672055814292e-08 -3.619576497153667e-08 4.931446597271254" Properties=species:S:1:pos:R:3:forces:R:3 energy=-46.11054229736328 free_energy=-46.11054229736328 stress="0.0006490836967714131 -7.124859990881305e-08 -1.9842006793169276e-07 -7.124859990881305e-08 0.0006495901616290212 -2.8931521001140936e-07 -1.9842006793169276e-07 -2.8931521001140936e-07 0.0006495767738670111" pbc="T T T"
Co       1.42358546       1.00662680       2.46572449      -0.00000310      -0.00000649       0.00000984
Co       4.27075929       3.01987830       7.39716875       0.00001758      -0.00003995      -0.00001191
S       -0.00000013       0.00000008       0.00000014       0.00000161       0.00000494      -0.00000148
O        1.32817331       0.93916170       4.93144624      -0.00425625      -0.00299287      -0.00000417
O        4.36616961       3.08734869       4.93144736       0.00424242       0.00300753       0.00000743
O        3.60667123       0.93916155       3.61595559       0.00212598      -0.00298929      -0.00367928
O        2.08767248       3.08734853       6.24693707      -0.00212705       0.00300765       0.00367498
O        2.08767228       3.08734801       3.61595569      -0.00212669       0.00300431      -0.00367737
O        3.60667084       0.93916139       6.24693775       0.00212574      -0.00299501       0.00368381
