9
Lattice="6.092346978703279 4.807381304046338e-08 3.5174180520637006 2.03078232811745 5.743919781528858 3.5174181273064598 -2.9960344462088735e-08 7.096799978295314e-08 7.034836156020264" Properties=species:S:1:pos:R:3:forces:R:3 energy=-22.48221778869629 free_energy=-22.48221778869629 stress="0.00020496440993156284 4.9928727818837615e-09 -2.710246960191398e-08 4.9928727818837615e-09 0.00020496635988820344 -1.1473643368731246e-08 -2.710246960191398e-08 -1.1473643368731246e-08 0.0002049694157904014" pbc="T T T"
Co       2.03078206       1.43597969       3.51741817      -0.00000110      -0.00000070       0.00000134
Co       6.09234738       4.30793993      10.55225313       0.00000074       0.00000001      -0.00000741
S        0.00000002      -0.00000006      -0.00000010       0.00000026      -0.00000075       0.00000001
Br       2.04836636       1.44841400       7.03483601       0.00027169       0.00019118      -0.00000062
Br       6.07476274       4.29550611       7.03483674      -0.00027069      -0.00019148       0.00000380
Br       5.06816363       1.44841371       5.29135558      -0.00013495       0.00018984       0.00023484
Br       3.05496557       4.29550623       8.77831688       0.00013532      -0.00019045      -0.00023359
Br       3.05496521       4.29550598       5.29135570       0.00013336      -0.00019054       0.00023563
Br       5.06816416       1.44841404       8.77831718      -0.00013462       0.00019297      -0.00023384
