9
Lattice="4.453281521631797 8.340408546919528e-08 2.571103268869089 1.4844272050526386 4.198594182592428 2.5711033510700285 -7.311831273721425e-08 4.897273949613689e-08 5.142206664382826" Properties=species:S:1:pos:R:3:forces:R:3 energy=-42.75761795043945 free_energy=-42.75761795043945 stress="0.0005847272113896906 1.0769345237804373e-07 -2.4539738774365105e-07 1.0769345237804373e-07 0.0005847905995324254 -1.6144583980803873e-07 -2.4539738774365105e-07 -1.6144583980803873e-07 0.0005848259897902608" pbc="T T T"
Co       1.48442480       1.04964013       2.57111155      -0.00002714      -0.00013055       0.00010836
Co       4.45328811       3.14893860       7.71330351       0.00009006      -0.00011348      -0.00008075
Se       0.00000040      -0.00000155       0.00000050       0.00001017      -0.00002844       0.00000350
O        1.48516530       1.05017616       5.14220503      -0.00193405      -0.00128365      -0.00003125
O        4.45253933       3.14842483       5.14220898       0.00187707       0.00138950       0.00002511
O        3.71069634       1.05017369       3.85729503       0.00093293      -0.00131762      -0.00166035
O        2.22701182       3.14842714       6.42711452      -0.00094426       0.00141370       0.00161111
O        2.22700751       3.14842345       3.85729802      -0.00099134       0.00137091      -0.00161719
O        3.71070118       1.05017478       6.42711616       0.00098717      -0.00129986       0.00164139
