9
Lattice="6.193105716209297 -2.2502443859406782e-07 3.5755911447246556 2.0643684619681193 5.83891573943717 3.5755909679629414 1.661742292218325e-07 -9.89850487734977e-08 7.15118200162705" Properties=species:S:1:pos:R:3:forces:R:3 energy=-22.50126838684082 free_energy=-22.50126838684082 stress="-3.7752699881821172e-06 -8.40840197469106e-09 1.0761481483712032e-08 -8.40840197469106e-09 -3.771678848352167e-06 -1.7276328145854336e-09 1.0761481483712032e-08 -1.7276328145854336e-09 -3.7857016650377773e-06" pbc="T T T"
Co       2.06437339       1.45973076       3.57559157       0.00001829       0.00000715       0.00000152
Co       6.19310867       4.37918616      10.72677609       0.00001001      -0.00000138       0.00001181
Se      -0.00000042      -0.00000000      -0.00000012      -0.00000236      -0.00000152      -0.00000355
Br       2.08841666       1.47673432       7.15118209      -0.00024029      -0.00016547      -0.00000063
Br       6.16905648       4.36218185       7.15118062       0.00023659       0.00016919      -0.00000453
Br       5.14889553       1.47673364       5.38421261       0.00011312      -0.00016700      -0.00020926
Br       3.10857540       4.36218096       8.91814993      -0.00012615       0.00016584       0.00020460
Br       3.10857688       4.36218035       5.38421234      -0.00012204       0.00016451      -0.00020923
Br       5.14889495       1.47673364       8.91815127       0.00011285      -0.00017130       0.00020928
