9
Lattice="4.068273736034725 -2.2661657996263124e-06 2.3488178079987727 1.3560900959654687 3.8356012288873846 2.3488160981485144 1.0973305281754492e-07 -2.0165369632010556e-06 4.697635425934148" Properties=species:S:1:pos:R:3:forces:R:3 energy=-34.4489860534668 free_energy=-34.4489860534668 stress="0.0006679128855466843 -1.7789156459002697e-07 4.984218548997887e-07 -1.7789156459002697e-07 0.0006671283044852316 -2.388367192907026e-07 4.984218548997887e-07 -2.388367192907026e-07 0.0006676599150523543" pbc="T T T"
Co       1.35609046       0.95890030       2.34881846       0.00000062       0.00000628       0.00000639
Co       4.06827443       2.87669895       7.04645581       0.00000215      -0.00000003       0.00000927
S        0.00000218       0.00000502       0.00001056       0.00000561       0.00001354       0.00002995
F        1.38942718       0.98247024       4.69763536       0.00105210       0.00074020       0.00000452
F        4.03492883       2.85312197       4.69763687      -0.00107387      -0.00075535      -0.00000031
F        3.37356084       0.98246764       3.55209230      -0.00051807       0.00073524       0.00090352
F        2.05081222       2.85311838       5.84316486       0.00054146      -0.00076355      -0.00093791
F        2.05080326       2.85312903       3.55209544       0.00052924      -0.00073665       0.00090727
F        3.37355605       0.98247628       5.84316796      -0.00053907       0.00076021      -0.00092220
