9
Lattice="5.684989653807862 -1.7095543748147842e-09 3.2822303255416436 1.8949965106873434 5.3598599079011855 3.2822303930398453 -6.568600722208007e-08 3.622108164915521e-08 6.564460764854766" Properties=species:S:1:pos:R:3:forces:R:3 energy=-31.075016021728516 free_energy=-31.075016021728516 stress="-0.00021834795188624412 -1.9294477127118626e-08 -1.0832751939915397e-07 -1.9294477127118626e-08 -0.00021864053269382566 -5.627615351500026e-08 -1.0832751939915397e-07 -5.627615351500026e-08 -0.00021842948626726866" pbc="T T T"
Co       1.89499859       1.33995992       3.28223246       0.00001139      -0.00003256       0.00001321
Co       5.68498826       4.01989725       9.84668958      -0.00000848       0.00001565      -0.00001151
Si       0.00000006       0.00000016       0.00000011      -0.00000282       0.00000421      -0.00000540
Cl       1.81880437       1.28608845       6.56446039      -0.00433087      -0.00306673      -0.00000267
Cl       5.76118102       4.07377236       6.56446114       0.00432991       0.00307274       0.00000198
Cl       4.77558625       1.28608844       4.85736081       0.00216075      -0.00306692      -0.00375533
Cl       2.80439997       4.07377275       8.27156005      -0.00216214       0.00307265       0.00375298
Cl       2.80439865       4.07377203       4.85736148      -0.00216293       0.00306632      -0.00374875
Cl       4.77558702       1.28608839       8.27156003       0.00216501      -0.00306541       0.00375564
