9
Lattice="5.791909540619581 1.8103272679756634e-07 3.3439603811873715 1.9306366462229376 5.46066498491684 3.3439604469987896 9.246129424096087e-08 1.4598220167954134e-07 6.687920602227089" Properties=species:S:1:pos:R:3:forces:R:3 energy=-25.01885986328125 free_energy=-25.01885986328125 stress="7.266988541232422e-05 -1.7528726914406434e-08 -1.1303901814585515e-08 -1.7528726914406434e-08 7.272727089002728e-05 -1.590589526756503e-08 -1.1303901814585515e-08 -1.590589526756503e-08 7.264481973834336e-05" pbc="T T T"
Co       1.93063321       1.36516547       3.34396816      -0.00002003      -0.00000562       0.00004932
Co       5.79190482       4.09549562      10.03188442      -0.00003079      -0.00002105       0.00002050
S        0.00000127       0.00000078      -0.00000170       0.00000294       0.00000368      -0.00000759
Cl       1.92108625       1.35841439       6.68791750      -0.00129831      -0.00091577      -0.00001937
Cl       5.80145986       4.10225054       6.68791880       0.00130352       0.00091401      -0.00001071
Cl       4.83136569       1.35841527       5.00766811       0.00064929      -0.00090629      -0.00113249
Cl       2.89118203       4.10225378       8.36817159      -0.00063597       0.00092804       0.00111896
Cl       2.89118252       4.10225146       5.00766843      -0.00063685       0.00091532      -0.00113443
Cl       4.83136950       1.35841395       8.36817042       0.00066637      -0.00091237       0.00111610
