9
Lattice="6.208526338631903 -1.201338236970768e-07 3.5844944173252276 2.0695087539678663 5.853454486406511 3.5844942654466294 8.745307516111521e-08 -1.241738815961474e-07 7.168988683177303" Properties=species:S:1:pos:R:3:forces:R:3 energy=-29.726911544799805 free_energy=-29.726911544799805 stress="-7.193652709247544e-05 9.094091701911111e-09 -3.1420632762291234e-09 9.094091701911111e-09 -7.193575584096834e-05 8.779684534943044e-09 -3.1420632762291234e-09 8.779684534943044e-09 -7.19325544196181e-05" pbc="T T T"
Co       2.06950895       1.46336439       3.58449430       0.00000079       0.00000351      -0.00000040
Co       6.20852530       4.39009040      10.75348542      -0.00000459      -0.00000172       0.00001288
Si       0.00000008      -0.00000019       0.00000019      -0.00000018      -0.00000128      -0.00000022
Te       2.14419007       1.51617068       7.16898864       0.00093476       0.00065859       0.00000016
Te       6.13384544       4.33728329       7.16898756      -0.00093220      -0.00066077      -0.00000712
Te       5.13643183       1.51617155       5.44141693      -0.00046624       0.00066454       0.00080661
Te       3.14160326       4.33728281       8.89655968       0.00046377      -0.00066148      -0.00080828
Te       3.14160447       4.33728298       5.44141652       0.00047157      -0.00066146       0.00080480
Te       5.13643130       1.51617105       8.89656027      -0.00046768       0.00065996      -0.00080839
