9
Lattice="4.68016767375882 -5.6978494419893205e-08 2.702095978067868 1.5600558677820506 4.412504311922597 2.7020959256751236 -8.230395187623563e-08 -1.223653677140377e-07 5.40419209869033" Properties=species:S:1:pos:R:3:forces:R:3 energy=-35.465415954589844 free_energy=-35.465415954589844 stress="-0.0005433642072603106 5.683666870481829e-09 -3.3335986415750085e-08 5.683666870481829e-09 -0.0005433317273855209 4.318572521810893e-08 -3.3335986415750085e-08 4.318572521810893e-08 -0.0005433629848994315" pbc="T T T"
Co       1.56005648       1.10312550       2.70209447       0.00000387      -0.00000514      -0.00000995
Co       4.68016736       3.30937796       8.10628839      -0.00000256      -0.00000004       0.00000003
Se      -0.00000002      -0.00000001       0.00000010      -0.00000165       0.00000202       0.00000431
F        1.59540868       1.12812284       5.40419279      -0.00280930      -0.00199095       0.00000403
F        4.64481451       3.28438121       5.40419258       0.00280946       0.00199347       0.00000041
F        3.88246442       1.12812389       4.08376039       0.00140972      -0.00198812      -0.00243366
F        2.35775882       3.28438033       6.72462337      -0.00140797       0.00198623       0.00243329
F        2.35776021       3.28438022       4.08375951      -0.00140288       0.00198564      -0.00243404
F        3.88246375       1.12812421       6.72462463       0.00140140      -0.00198327       0.00243562
