9
Lattice="5.7914071679227215 1.7147444633019952e-08 3.3436704664792316 1.9304691103885439 5.460191144145399 3.3436704002325466 8.860860624044494e-09 -7.486965360052006e-08 6.6873409176109595" Properties=species:S:1:pos:R:3:forces:R:3 energy=-25.01885986328125 free_energy=-25.01885986328125 stress="-2.9838667614967562e-05 -1.800556681530452e-08 1.2475387833887908e-08 -1.800556681530452e-08 -2.9847929909010418e-05 2.741142424156351e-08 1.2475387833887908e-08 2.741142424156351e-08 -2.987071275128983e-05" pbc="T T T"
Co       1.93046960       1.36504815       3.34366953       0.00000233       0.00000319      -0.00000735
Co       5.79140754       4.09514251      10.03101053       0.00000211      -0.00000526      -0.00000483
S        0.00000007      -0.00000021       0.00000038       0.00000071       0.00000206       0.00000057
Cl       1.92099537       1.35834948       6.68734142      -0.00077063      -0.00054085       0.00000258
Cl       5.80088052       4.10184168       6.68734122       0.00076866       0.00054258       0.00000253
Cl       4.83090897       1.35834943       5.00730182       0.00038522      -0.00054413      -0.00066674
Cl       2.89096703       4.10184154       8.36738003      -0.00038591       0.00054207       0.00066790
Cl       2.89096726       4.10184231       5.00730192      -0.00038520       0.00054309      -0.00066313
Cl       4.83090876       1.35834939       8.36738028       0.00038254      -0.00054282       0.00066870
