9
Lattice="6.625392499830228 5.503567915552725e-08 3.8251720620368492 2.2084642053283474 6.246479968346896 3.825172084847782 9.676566288859038e-08 9.636119114696023e-08 7.650343956470668" Properties=species:S:1:pos:R:3:forces:R:3 energy=-19.11571502685547 free_energy=-19.11571502685547 stress="-0.00018440363055560738 5.3963864488082436e-09 -6.365855398371423e-09 5.3963864488082436e-09 -0.00018440530402585864 1.3236790330495296e-08 -6.365855398371423e-09 1.3236790330495296e-08 -0.00018441956490278244" pbc="T T T"
Co       2.20846481       1.56161979       3.82517151       0.00000064      -0.00000059      -0.00000094
Co       6.62539259       4.68486002      11.47551663       0.00000027       0.00000060       0.00000077
Se       0.00000004       0.00000022       0.00000017       0.00000016      -0.00000073       0.00000022
I        2.34935561       1.66124532       7.65034416      -0.00024393      -0.00017233       0.00000009
I        6.48450101       4.58523487       7.65034372       0.00024393       0.00017311       0.00000011
I        5.45071454       1.66124553       5.85977347       0.00012157      -0.00017262      -0.00021172
I        3.38314193       4.58523478       9.44091460      -0.00012185       0.00017247       0.00021130
I        3.38314223       4.58523458       5.85977362      -0.00012199       0.00017235      -0.00021081
I        5.45071442       1.66124544       9.44091447       0.00012116      -0.00017223       0.00021096
