9
Lattice="5.556553436977587 7.700745709182914e-08 3.2080776976338834 1.852184551958338 5.238768973800574 3.2080776970060976 -8.383078840172698e-08 -6.004623747757661e-08 6.416155540466988" Properties=species:S:1:pos:R:3:forces:R:3 energy=-33.23111343383789 free_energy=-33.23111343383789 stress="-0.00010446630767546594 1.5262973107610378e-08 1.0681318940441997e-07 1.5262973107610378e-08 -0.0001045899189193733 9.498167230503896e-08 1.0681318940441997e-07 9.498167230503896e-08 -0.00010457757161930203" pbc="T T T"
Co       1.85217519       1.30969564       3.20808380      -0.00010033       0.00003833       0.00007652
Co       5.55655035       3.92907528       9.62421703      -0.00002707      -0.00001743      -0.00018113
Si       0.00000101      -0.00000025       0.00000033       0.00000233      -0.00000051       0.00000410
Se       2.13620510       1.51052574       6.41615308       0.00288555       0.00204311      -0.00004084
Se       5.27253476       3.72824087       6.41616351      -0.00286230      -0.00207858       0.00009419
Se       4.48845166       1.51052231       5.05808845      -0.00143600       0.00201207       0.00253066
Se       2.92029167       3.72824562       7.77422697       0.00149953      -0.00202440      -0.00248416
Se       2.92028438       3.72824168       5.05808558       0.00140726      -0.00206397       0.00250727
Se       4.48845755       1.51052906       7.77422490      -0.00136890       0.00209141      -0.00250673
