9
Lattice="5.457845520266647 6.7637599236893e-08 3.1510887135134937 1.8192819067945578 5.145706030830116 3.1510887084276358 -3.8230841722791576e-08 -3.326219527671013e-08 6.302177493244721" Properties=species:S:1:pos:R:3:forces:R:3 energy=-36.007938385009766 free_energy=-36.007938385009766 stress="0.00032591112540103495 -1.5146252252407066e-08 6.453062528777309e-09 -1.5146252252407066e-08 0.0003259516670368612 2.798963016914513e-08 6.453062528777309e-09 2.798963016914513e-08 0.0003259848745074123" pbc="T T T"
Co       1.81928047       1.28642631       3.15108989      -0.00001304      -0.00000408       0.00000494
Co       5.45784658       3.85928090       9.45326998       0.00001077       0.00001154       0.00003470
Si      -0.00000028       0.00000022      -0.00000041       0.00000166      -0.00000184       0.00000400
S        1.83613657       1.29834554       6.30217816       0.00315452       0.00223798       0.00000452
S        5.44098983       3.84736181       6.30217694      -0.00316125      -0.00222930      -0.00000907
S        4.53977743       1.29834476       4.74123067      -0.00157601       0.00223196       0.00273630
S        2.73734869       3.84736087       7.86312322       0.00156373      -0.00223127      -0.00274330
S        2.73735225       3.84736081       4.74122891       0.00158975      -0.00223303       0.00272405
S        4.53977805       1.29834310       7.86312232      -0.00157014       0.00221789      -0.00275591
