9
Lattice="5.4455748459291655 2.048765193744667e-07 3.1440044413062003 1.815191788431561 5.134137970629735 3.144004476012335 -3.409217232112344e-08 1.8399354810779138e-08 6.288008941661775" Properties=species:S:1:pos:R:3:forces:R:3 energy=-32.4820556640625 free_energy=-32.4820556640625 stress="6.562276394106448e-05 4.78548436433357e-08 -6.467975488533284e-09 4.78548436433357e-08 6.563330680364743e-05 -3.5067145631728636e-08 -6.467975488533284e-09 -3.5067145631728636e-08 6.574757571797818e-05" pbc="T T T"
Co       1.81518631       1.28353361       3.14400625      -0.00005832      -0.00001210       0.00001826
Co       5.44557899       3.85060464       9.43201333       0.00004613       0.00001132      -0.00000044
Se       0.00000006      -0.00000001       0.00000027      -0.00000103      -0.00000891      -0.00000163
S        1.79703766       1.27069864       6.28800979       0.00066784       0.00048131      -0.00000036
S        5.46372937       3.86343832       6.28801051      -0.00065705      -0.00048998       0.00001220
S        4.54705716       1.27069786       4.70028615      -0.00032389       0.00047413       0.00059789
S        2.71370921       3.86344342       7.87572916       0.00031532      -0.00044224      -0.00061011
S        2.71370951       3.86344018       4.70028623       0.00031896      -0.00046942       0.00059316
S        4.54705811       1.27069610       7.87572986      -0.00030792       0.00045583      -0.00060874
