9
Lattice="3.9524793274228234 -8.34450604543024e-09 2.281965001484525 1.317493091897687 3.726433266825368 2.281965017724193 -1.1481648563500634e-08 1.1770699872363188e-08 4.5639300228558515" Properties=species:S:1:pos:R:3:forces:R:3 energy=-52.0791015625 free_energy=-52.0791015625 stress="-6.940324965398759e-06 2.4192920022869657e-07 4.0022865732680657e-07 2.4192920022869657e-07 -6.723467322444776e-06 1.2303350160891569e-07 4.0022865732680657e-07 1.2303350160891569e-07 -6.330657924991101e-06" pbc="T T T"
Co       1.31749327       0.93160712       2.28196663      -0.00004834       0.00020812      -0.00028325
Co       3.95247957       2.79482387       6.84589649      -0.00004508       0.00019969      -0.00027232
Si      -0.00000289       0.00001078      -0.00001439       0.00049586      -0.00185991       0.00250891
O        1.41623696       1.00143190       4.56392860       0.00037879       0.00007915       0.00024242
O        3.85373102       2.72500041       4.56392881       0.00040150       0.00009888       0.00022220
O        3.24435849       1.00143442       3.50846412       0.00019625      -0.00036782      -0.00001490
O        2.02561178       2.72500289       5.61939600       0.00016975      -0.00035620      -0.00002509
O        2.02561715       2.72499492       3.50847107      -0.00077826       0.00101781      -0.00118989
O        3.24436429       1.00142674       5.61940279      -0.00077048       0.00097829      -0.00119036
