9
Lattice="6.521932755377508 -1.4339252162518742e-07 3.7654396239506496 2.1739774829053427 6.1489370239764005 3.7654395668427587 -7.944002275232871e-08 -1.2611521239701627e-07 7.5308793854954725" Properties=species:S:1:pos:R:3:forces:R:3 energy=-19.035320281982422 free_energy=-19.035320281982422 stress="4.033007826365065e-06 1.5482141124678606e-09 -2.963409517775517e-09 1.5482141124678606e-09 4.0420891309622675e-06 -5.364348409919728e-10 -2.963409517775517e-09 -5.364348409919728e-10 4.053150860272581e-06" pbc="T T T"
Co       2.17397764       1.53723530       3.76543948      -0.00000018       0.00000326      -0.00000045
Co       6.52193270       4.61170316      11.29631890       0.00000013       0.00000090       0.00000035
S        0.00000042      -0.00000000      -0.00000016      -0.00000034      -0.00000063      -0.00000000
I        2.32034004       1.64072772       7.53087954      -0.00219601      -0.00155368       0.00000009
I        6.37557027       4.50820819       7.53087929       0.00219692       0.00155196      -0.00000005
I        5.36176246       1.64072796       5.77491317       0.00109818      -0.00155297      -0.00190148
I        3.33414745       4.50820834       9.28684563      -0.00109882       0.00155194       0.00190218
I        3.33414735       4.50820863       5.77491284      -0.00109798       0.00155239      -0.00190246
I        5.36176235       1.64072768       9.28684561       0.00109810      -0.00155321       0.00190173
