9
Lattice="6.09360329532015 -7.099704440511443e-08 3.518143507887365 2.031201042380166 5.745104597953375 3.5181434890482026 -9.222115731863176e-08 -8.828337831773441e-08 7.036287175506476" Properties=species:S:1:pos:R:3:forces:R:3 energy=-22.482162475585938 free_energy=-22.482162475585938 stress="0.00028432789258658886 4.766376804354877e-08 -2.1873020727980474e-08 4.766376804354877e-08 0.00028419625596143305 -1.9371393378264656e-08 -2.1873020727980474e-08 -1.9371393378264656e-08 0.0002844326663762331" pbc="T T T"
Co       2.03118563       1.43626325       3.51814774      -0.00007138      -0.00005910       0.00001870
Co       6.09359817       4.30883448      10.55442956      -0.00002241       0.00002838      -0.00000274
S        0.00000137       0.00000031       0.00000006       0.00000896       0.00000121      -0.00000310
Br       2.04806121       1.44819454       7.03628523       0.00440499       0.00309683      -0.00000778
Br       6.07674527       4.29691015       7.03628783      -0.00439188      -0.00310019       0.00000154
Br       5.06957849       1.44819477       5.29181772      -0.00217828       0.00310223       0.00381769
Br       3.05523338       4.29691288       8.78075700       0.00221230      -0.00308302      -0.00381556
Br       3.05523416       4.29691173       5.29181544       0.00221108      -0.00308938       0.00381115
Br       5.06957934       1.44819548       8.78075591      -0.00217342       0.00310318      -0.00381994
