9
Lattice="6.709014149219244 3.242845991792178e-08 3.873451172766671 2.236338080960076 6.32531907137896 3.873451171646915 2.396417965365305e-08 1.5573819618875295e-08 7.74690230402612" Properties=species:S:1:pos:R:3:forces:R:3 energy=-26.891206741333008 free_energy=-26.891206741333008 stress="0.00012792341294698417 -8.712302879132494e-09 2.4446495938690305e-09 -8.712302879132494e-09 0.00012792815687134862 -8.087734926220946e-09 2.4446495938690305e-09 -8.087734926220946e-09 0.00012792838970199227" pbc="T T T"
Co       2.23633824       1.58133027       3.87345100      -0.00000003       0.00000147      -0.00000040
Co       6.70901405       4.74398937      11.62035395      -0.00000059      -0.00000021       0.00000110
Sc      -0.00000008      -0.00000001       0.00000009       0.00000032      -0.00000004      -0.00000027
I        2.30384054       1.62906144       7.74690229      -0.00188820      -0.00133517       0.00000039
I        6.64151187       4.69625758       7.74690204       0.00188778       0.00133468      -0.00000038
I        5.55709383       1.62906154       5.86863556       0.00094384      -0.00133492      -0.00163540
I        3.38825823       4.69625743       9.62516912      -0.00094393       0.00133510       0.00163524
I        3.38825859       4.69625748       5.86863558      -0.00094387       0.00133498      -0.00163605
I        5.55709378       1.62906136       9.62516901       0.00094465      -0.00133592       0.00163577
