9
Lattice="5.811726521953812 3.5915431689009713e-07 3.3554023864091644 1.937242346124398 5.479348287537661 3.355402674750838 3.992527387477609e-08 3.8137639504806604e-07 6.710804703665745" Properties=species:S:1:pos:R:3:forces:R:3 energy=-25.32301139831543 free_energy=-25.32301139831543 stress="0.00027371104806661606 4.6730215252921425e-09 1.034058669802107e-07 4.6730215252921425e-09 0.0002736198075581342 5.483827081320669e-08 1.034058669802107e-07 5.483827081320669e-08 0.00027377126389183104" pbc="T T T"
Co       1.93724002       1.36982970       3.35539784      -0.00001599      -0.00004879      -0.00003152
Co       5.81173057       4.10951749      10.06623128       0.00002506       0.00003824       0.00015257
Se      -0.00000015       0.00000024      -0.00000158      -0.00000080      -0.00000057      -0.00001259
Cl       1.95832294       1.38474274       6.71080609       0.00459852       0.00324412       0.00000763
Cl       5.79064476       4.09460798       6.71079562      -0.00460304      -0.00323754      -0.00005847
Cl       4.83256856       1.38474565       5.05135914      -0.00228217       0.00326288       0.00397320
Cl       2.91639788       4.09460651       8.37024573       0.00226795      -0.00324166      -0.00400486
Cl       2.91640781       4.09460876       5.05135951       0.00232081      -0.00322925       0.00397550
Cl       4.83256313       1.38473714       8.37024540      -0.00231031       0.00321259      -0.00400152
