9
Lattice="6.06962178692151 -3.759821842734223e-08 3.5042977255503907 2.023207281927922 5.722494194632631 3.5042976301685878 1.1998707149036576e-07 -3.197467541849438e-08 7.008595243277034" Properties=species:S:1:pos:R:3:forces:R:3 energy=-26.84389305114746 free_energy=-26.84389305114746 stress="0.00017730605031829327 1.61859929903585e-08 -8.196956713391046e-08 1.61859929903585e-08 0.00017724215285852551 -5.91316577924772e-08 -8.196956713391046e-08 -5.91316577924772e-08 0.00017736494191922247" pbc="T T T"
Co       2.02320810       1.43062517       3.50429866       0.00000357       0.00000774       0.00000427
Co       6.06962504       4.29187631      10.51288491       0.00001427       0.00002594      -0.00003522
Si      -0.00000024      -0.00000051       0.00000053       0.00000116      -0.00000184      -0.00000111
Br       1.96010214       1.38600031       7.00859513      -0.00156094      -0.00110970       0.00000012
Br       6.13272714       4.33649201       7.00859833       0.00155856       0.00109855       0.00001148
Br       5.08956961       1.38599869       5.20179742       0.00077426      -0.00111385      -0.00134422
Br       3.00325826       4.33649225       8.81539556      -0.00078167       0.00110186       0.00135871
Br       3.00325635       4.33649203       5.20179678      -0.00078790       0.00109923      -0.00134809
Br       5.08957039       1.38600024       8.81539511       0.00077862      -0.00110793       0.00135416
