9
Lattice="6.553856812619123 1.0337819801535228e-07 3.7838707080680516 2.184618973670724 6.179035396063474 3.7838708143031714 1.2024450028448008e-07 2.1513663399349812e-07 7.567741207866532" Properties=species:S:1:pos:R:3:forces:R:3 energy=-22.36138153076172 free_energy=-22.36138153076172 stress="-5.159812280908227e-05 -8.297386777655902e-09 4.952792620471769e-10 -8.297386777655902e-09 -5.158765634405427e-05 -8.770734361007726e-09 4.952792620471769e-10 -8.770734361007726e-09 -5.1590472139650956e-05" pbc="T T T"
Co       2.18461951       1.54475841       3.78387043       0.00000077      -0.00000168      -0.00000058
Co       6.55385669       4.63427606      11.35161149       0.00000025      -0.00000207      -0.00000177
Si       0.00000005       0.00000007      -0.00000003       0.00000022       0.00000088       0.00000018
I        2.16457113       1.53058327       7.56774130       0.00018991       0.00013577       0.00000048
I        6.57390476       4.64845277       7.56774163      -0.00019216      -0.00013444       0.00000092
I        5.47157121       1.53058320       5.65844402      -0.00009535       0.00013500       0.00016394
I        3.26690450       4.64845285       9.47703893       0.00009622      -0.00013535      -0.00016535
I        3.26690435       4.64845290       5.65844425       0.00009491      -0.00013340       0.00016568
I        5.47157135       1.53058334       9.47703885      -0.00009478       0.00013530      -0.00016353
