9
Lattice="4.7447606233953765 -5.405538170368028e-09 2.739388489294589 1.581586862688899 4.4734027502282805 2.7393885008644254 3.681193330086353e-08 4.020009296376164e-08 5.478776914828986" Properties=species:S:1:pos:R:3:forces:R:3 energy=-46.58491516113281 free_energy=-46.58491516113281 stress="0.00015124844503588974 -5.154591065092973e-08 -5.410196735056161e-08 -5.154591065092973e-08 0.0001512804301455617 -7.05360037045466e-08 -5.410196735056161e-08 -7.05360037045466e-08 0.0001512484159320593" pbc="T T T"
Co       1.58158624       1.11835016       2.73938727      -0.00000460      -0.00000593      -0.00000955
Co       4.74476083       3.35505277       8.21816709       0.00000340       0.00000604       0.00001561
Sc      -0.00000010       0.00000006       0.00000034       0.00000115      -0.00000166      -0.00000698
F        1.61232786       1.14008736       5.47877681       0.00009550       0.00006690       0.00000244
F        4.71401981       3.33331537       5.47877628      -0.00009647      -0.00006644      -0.00000539
F        3.93859731       1.14008783       4.13570549      -0.00004348       0.00006942       0.00008418
F        2.38775013       3.33331485       6.82184850       0.00004045      -0.00006512      -0.00008130
F        2.38775127       3.33331550       4.13570546       0.00005061      -0.00006286       0.00008176
F        3.93859638       1.14008752       6.82184848      -0.00004662       0.00005975      -0.00008089
