9
Lattice="4.705241304682527 -8.761606800276659e-08 2.716572606597458 1.5684137528495259 4.436143819633567 2.7165724901565045 7.572073945076582e-09 -1.372562026404095e-07 5.433145200079687" Properties=species:S:1:pos:R:3:forces:R:3 energy=-48.1394157409668 free_energy=-48.1394157409668 stress="-9.769909956958145e-05 -4.872434899994005e-09 -1.4639838674668226e-08 -4.872434899994005e-09 -9.772202611202374e-05 4.9178527916637904e-08 -1.4639838674668226e-08 4.9178527916637904e-08 -9.766798029886559e-05" pbc="T T T"
Co       1.56841367       1.10903540       2.71657295      -0.00000082      -0.00000229       0.00000184
Co       4.70524142       3.32710757       8.14971757       0.00000036      -0.00000041      -0.00000079
Ti       0.00000006       0.00000013      -0.00000005       0.00000315      -0.00000216       0.00000347
F        1.54648614       1.09353078       5.43314515      -0.00411557      -0.00291033      -0.00000134
F        4.72716885       3.34261311       5.43314521       0.00411377       0.00290939       0.00000042
F        3.93199815       1.09353094       4.05586904       0.00205810      -0.00291087      -0.00356473
F        2.34165686       3.34261292       6.81042110      -0.00205695       0.00291241       0.00356542
F        2.34165670       3.34261325       4.05586888      -0.00205823       0.00291071      -0.00356504
F        3.93199829       1.09353052       6.81042136       0.00205605      -0.00290650       0.00356063
