9
Lattice="6.68870541522565 1.261609351161005e-08 3.86172591585893 2.2295684585711233 6.306172063994306 3.861725959273326 3.076367714503859e-08 7.492478004423107e-08 7.723451778433623" Properties=species:S:1:pos:R:3:forces:R:3 energy=-27.23247528076172 free_energy=-27.23247528076172 stress="0.00015011148934718221 -6.6336234283426165e-09 -5.375036860044702e-09 -6.6336234283426165e-09 0.00015011148934718221 1.1334738481139084e-08 -5.375036860044702e-09 1.1334738481139084e-08 0.00015011316281743348" pbc="T T T"
Co       2.22956815       1.57654249       3.86172580      -0.00000043      -0.00000112      -0.00000009
Co       6.68870562       4.72962897      11.58517807       0.00000006      -0.00000039       0.00000151
Ti      -0.00000017      -0.00000004      -0.00000032       0.00000090       0.00000135       0.00000302
I        2.20365993       1.55822305       7.72345169      -0.00117858      -0.00083305      -0.00000004
I        6.71461380       4.74794942       7.72345165       0.00117817       0.00083257      -0.00000022
I        5.58687551       1.55822330       5.77015154       0.00059018      -0.00083387      -0.00102112
I        3.33139834       4.74794928       9.67675224      -0.00058950       0.00083295       0.00101942
I        3.33139882       4.74794929       5.77015153      -0.00058981       0.00083381      -0.00102127
I        5.58687561       1.55822288       9.67675245       0.00058901      -0.00083227       0.00101882
