9
Lattice="6.139378752193981 7.508142330436642e-08 3.5445722533291786 2.046459721592525 5.788262012941621 3.5445721377313686 1.383377980946865e-07 -4.3758210422131424e-08 7.089144267050239" Properties=species:S:1:pos:R:3:forces:R:3 energy=-31.604564666748047 free_energy=-31.604564666748047 stress="0.00015715733752585948 -3.032968098892752e-09 -8.994307520993061e-09 -3.032968098892752e-09 0.0001571377506479621 -2.856025638209303e-09 -8.994307520993061e-09 -2.856025638209303e-09 0.00015716522466391325" pbc="T T T"
Co       2.04646034       1.44706548       3.54457313       0.00000232      -0.00000121       0.00000425
Co       6.13937789       4.34119644      10.63371675      -0.00000320       0.00000035       0.00000011
Ti       0.00000004       0.00000012      -0.00000027      -0.00000052      -0.00000032      -0.00000158
Br       2.03462820       1.43869923       7.08914383       0.00018534       0.00013052      -0.00000221
Br       6.15121040       4.34956261       7.08914416      -0.00018381      -0.00012910      -0.00000113
Br       5.12206459       1.43869923       5.30661155      -0.00009441       0.00013168       0.00015804
Br       3.06377407       4.34956242       8.87167688       0.00009241      -0.00012912      -0.00015805
Br       3.06377396       4.34956294       5.30661172       0.00009358      -0.00013217       0.00015897
Br       5.12206492       1.43869969       8.87167689      -0.00009162       0.00012939      -0.00015835
