9
Lattice="4.627333816126058 -5.367993623381685e-09 2.6715922936620213 1.5424446722303962 4.362691940655944 2.6715921690998377 2.3376550462432238e-08 -1.360272141336836e-07 5.343184546834667" Properties=species:S:1:pos:R:3:forces:R:3 energy=-45.476234436035156 free_energy=-45.476234436035156 stress="0.0006094175623729825 1.1654595510890431e-07 2.4417732280568316e-09 1.1654595510890431e-07 0.0006092619732953608 3.35023955244651e-08 2.4417732280568316e-09 3.35023955244651e-08 0.0006091903196647763" pbc="T T T"
Co       1.54244465       1.09067230       2.67159272      -0.00000047      -0.00000295       0.00000232
Co       4.62733461       3.27201808       8.01477612       0.00000368      -0.00000338      -0.00000273
V       -0.00000007      -0.00000003       0.00000012       0.00000121       0.00000392       0.00001177
F        1.54680768       1.09375809       5.34318417      -0.00333768      -0.00235932      -0.00000028
F        4.62297066       3.26893421       5.34318468       0.00333194       0.00236024       0.00000252
F        3.85393024       1.09375868       4.01116682       0.00166890      -0.00235942      -0.00288984
F        2.31584808       3.26893367       6.67520219      -0.00166442       0.00235333       0.00288056
F        2.31584804       3.26893387       4.01116688      -0.00166898       0.00235882      -0.00288577
F        3.85393026       1.09375827       6.67520223       0.00166588      -0.00235109       0.00288159
