9
Lattice="5.672456706650979 -7.91603704387853e-09 3.274994377891027 1.8908188806990556 5.348043396208508 3.274994402234317 -4.5672875625384097e-08 -2.4812798442503907e-09 6.549988834889814" Properties=species:S:1:pos:R:3:forces:R:3 energy=-34.799434661865234 free_energy=-34.799434661865234 stress="0.00017287067021243274 1.6322672102830893e-09 7.096571330578172e-09 1.6322672102830893e-09 0.00017293445125687867 -6.316058343003306e-09 7.096571330578172e-09 -6.316058343003306e-09 0.0001729116338538006" pbc="T T T"
Co       1.89081710       1.33701330       3.27499406      -0.00001091       0.00001726      -0.00000289
Co       5.67245652       4.01103163       9.82498276      -0.00000119      -0.00000521      -0.00000331
V        0.00000006      -0.00000015       0.00000023       0.00000302       0.00000108      -0.00000166
Cl       1.88573026       1.33341265       6.54998875      -0.00082915      -0.00058451      -0.00000045
Cl       5.67754586       4.01462983       6.54998921       0.00083135       0.00057881       0.00000234
Cl       4.72959225       1.33341293       4.90808478       0.00041828      -0.00058697      -0.00071672
Cl       2.83368396       4.01462994       8.19189331      -0.00041510       0.00058274       0.00072072
Cl       2.83368411       4.01463052       4.90808455      -0.00041605       0.00058405      -0.00071818
Cl       4.72959207       1.33341293       8.19189279       0.00041982      -0.00058733       0.00071988
