9
Lattice="6.556760355752918 -3.827082269110419e-08 3.7855473498962353 2.1855867572790006 6.181772941890287 3.785547335849132 -1.6374481164614394e-08 -2.8782634972854625e-08 7.571094728153945" Properties=species:S:1:pos:R:3:forces:R:3 energy=-26.90488052368164 free_energy=-26.90488052368164 stress="9.282629616791382e-05 -1.0254214144467255e-09 -3.114291116657064e-11 -1.0254214144467255e-09 9.281602979172021e-05 -5.498479893617514e-09 -3.114291116657064e-11 -5.498479893617514e-09 9.282050450565293e-05" pbc="T T T"
Co       2.18558641       1.54544341       3.78554753      -0.00000071       0.00000030       0.00000015
Co       6.55676000       4.63633022      11.35664176      -0.00000148       0.00000151      -0.00000019
V       -0.00000003       0.00000001       0.00000020       0.00000186       0.00000046       0.00000142
I        2.16270216       1.52926097       7.57109463      -0.00004269      -0.00003086      -0.00000014
I        6.57964503       4.65251159       7.57109470       0.00004274       0.00002897       0.00000016
I        5.47540937       1.52926101       5.65850222       0.00002183      -0.00003040      -0.00003639
I        3.26693808       4.65251140       9.48368713      -0.00002088       0.00002962       0.00003678
I        3.26693794       4.65251164       5.65850231      -0.00002187       0.00003032      -0.00003766
I        5.47540943       1.52926129       9.48368715       0.00002137      -0.00002993       0.00003582
