9
Lattice="6.085662589433587 -1.0715069317560203e-07 3.513558857607395 2.0285540550233088 5.737617818405141 3.5135589276375 -8.583517767368237e-08 2.5074403825775788e-08 7.027117863885686" Properties=species:S:1:pos:R:3:forces:R:3 energy=-30.986766815185547 free_energy=-30.986766815185547 stress="0.00029234736575745046 -1.29753656707976e-08 -1.2556360395876709e-08 -1.29753656707976e-08 0.0002923650899901986 6.786348372145312e-09 -1.2556360395876709e-08 6.786348372145312e-09 0.00029233345412649214" pbc="T T T"
Co       2.02855450       1.43440526       3.51355968       0.00000195       0.00000440       0.00000301
Co       6.08566071       4.30321229      10.54067707      -0.00000849      -0.00000577       0.00000162
V       -0.00000016       0.00000003      -0.00000013       0.00000430       0.00000053       0.00000250
Br       2.00400742       1.41704716       7.02711785      -0.00165989      -0.00117382      -0.00000092
Br       6.11020933       4.32057043       7.02711752       0.00165871       0.00117119      -0.00000072
Br       5.08365883       1.41704748       5.24907984       0.00083018      -0.00117166      -0.00143942
Br       3.03055839       4.32057061       8.80515549      -0.00082824       0.00117306       0.00143845
Br       3.03055826       4.32057035       5.24907977      -0.00082821       0.00117267      -0.00143994
Br       5.08365895       1.41704736       8.80515554       0.00082966      -0.00117055       0.00143568
