9
Lattice="5.986397727604654 -3.42536568937563e-09 3.4562482913969133 1.99546592966068 5.644029944374175 3.456248250367034 1.5281937200589883e-08 -3.944513934646132e-08 6.912496556324754" Properties=species:S:1:pos:R:3:forces:R:3 energy=-21.887313842773438 free_energy=-21.887313842773438 stress="9.884269820759073e-05 -1.0515243786812789e-08 -9.592951322190402e-09 -1.0515243786812789e-08 9.885519102681428e-05 -2.580726965462077e-09 -9.592951322190402e-09 -2.580726965462077e-09 9.882299491437152e-05" pbc="T T T"
Co       1.99546476       1.41100742       3.45624787      -0.00000553      -0.00000022      -0.00000263
Co       5.98639781       4.23302167      10.36874602      -0.00000059      -0.00000471       0.00000563
Zn      -0.00000007      -0.00000010      -0.00000005       0.00000202      -0.00000067       0.00000015
Br       2.05007161       1.44961960       6.91249658       0.00014710       0.00010520       0.00000083
Br       5.93179206       4.19441044       6.91249589      -0.00014678      -0.00010596      -0.00000249
Br       4.96136254       1.44961991       5.23166221      -0.00007017       0.00010605       0.00012910
Br       3.02050156       4.19441034       8.59333073       0.00007197      -0.00010265      -0.00012764
Br       3.02050223       4.19441071       5.23166223       0.00007547      -0.00010321       0.00012693
Br       4.96136218       1.44961965       8.59333094      -0.00007348       0.00010608      -0.00013000
