9
Lattice="4.500234755250795 6.872689762425398e-11 2.5982118300328354 1.5000782207596648 4.242862043602202 2.5982118838223887 2.508977761939635e-08 8.361962267224224e-08 5.196423616608912" Properties=species:S:1:pos:R:3:forces:R:3 energy=-35.5512809753418 free_energy=-35.5512809753418 stress="0.0008427527500316501 1.6824687421035378e-08 -3.5738267456508765e-08 1.6824687421035378e-08 0.0008427998400293291 -1.4514498936080145e-08 -3.5738267456508765e-08 -1.4514498936080145e-08 0.0008428565924987197" pbc="T T T"
Co       1.50007912       1.06071573       2.59821170       0.00000664      -0.00000084      -0.00000116
Co       4.50023482       3.18214614       7.79463638       0.00000210      -0.00000518       0.00001075
Zn       0.00000010      -0.00000016       0.00000026       0.00000159       0.00000084      -0.00000597
F        1.54056664       1.08934550       5.19642354      -0.00374885      -0.00264734      -0.00000066
F        4.45974595       3.15351736       5.19642282       0.00374204       0.00265168      -0.00000516
F        3.72995104       1.08934551       3.93238190       0.00187118      -0.00264566      -0.00325008
F        2.27036143       3.15351632       6.46046549      -0.00187568       0.00264801       0.00325021
F        2.27036160       3.15351710       3.93238222      -0.00187317       0.00264992      -0.00324576
F        3.72995126       1.08934520       6.46046518       0.00187390      -0.00265162       0.00324781
