9
Lattice="6.495577114735845 3.469950735284784e-08 3.750223192050913 2.165192388397053 6.124088863607984 3.750223219584605 -1.3777617784693528e-09 3.274748418427167e-08 7.500446386488178" Properties=species:S:1:pos:R:3:forces:R:3 energy=-18.277143478393555 free_energy=-18.277143478393555 stress="0.00020488967129494995 7.2590942146177895e-09 -1.808622918098024e-09 7.2590942146177895e-09 0.00020487999427132308 -1.260484383536209e-09 -1.808622918098024e-09 -1.260484383536209e-09 0.00020487602159846574" pbc="T T T"
Co       2.16519248       1.53102225       3.75022314       0.00000026       0.00000000      -0.00000010
Co       6.49557730       4.59306652      11.25066980       0.00000049       0.00000000       0.00000008
Zn      -0.00000021       0.00000008      -0.00000001      -0.00000072       0.00000041       0.00000042
I        2.23210844       1.57833923       7.50044639      -0.00627677      -0.00443808       0.00000000
I        6.42866108       4.54574981       7.50044635       0.00627747       0.00443932      -0.00000007
I        5.37952303       1.57833898       5.68328557       0.00313808      -0.00443902      -0.00543668
I        3.28124645       4.54574993       9.31760699      -0.00313833       0.00443813       0.00543527
I        3.28124648       4.54574998       5.68328581      -0.00313830       0.00443807      -0.00543519
I        5.37952295       1.57833895       9.31760717       0.00313789      -0.00443883       0.00543641
