9
Lattice="5.557453776035905 -9.231419314498942e-09 3.2085974399620247 1.852484574423748 5.239617703002508 3.20859745535089 -2.2913354417073377e-08 2.645257566335336e-09 6.417194919611175" Properties=species:S:1:pos:R:3:forces:R:3 energy=-25.26955795288086 free_energy=-25.26955795288086 stress="0.0001069041172740981 8.89029116990514e-09 2.2765687113235344e-09 8.89029116990514e-09 0.00010689112241379917 1.0896816782235419e-09 2.2765687113235344e-09 1.0896816782235419e-09 0.00010689974442357197" pbc="T T T"
Co       1.85248533       1.30990409       3.20859760       0.00000520      -0.00000129       0.00000121
Co       5.55745437       3.92971382       9.62579258       0.00000643       0.00000344       0.00000057
Zn      -0.00000007       0.00000001       0.00000013      -0.00000115       0.00000113      -0.00000249
Cl       1.90150669       1.34456818       6.41719481      -0.00058530      -0.00041234      -0.00000073
Cl       5.50843152       3.89504962       6.41719462       0.00058326       0.00041540      -0.00000127
Cl       4.60670010       1.34456802       4.85535046       0.00028887      -0.00041439      -0.00050624
Cl       2.80323775       3.89504931       7.97903912      -0.00029529       0.00041379       0.00050449
Cl       2.80323757       3.89504956       4.85535073      -0.00029355       0.00041138      -0.00050329
Cl       4.60670003       1.34456819       7.97903920       0.00029147      -0.00041713       0.00050771
