9
Lattice="5.7668565131985225 -3.099710666903938e-08 3.3294961200674673 1.9222855238776324 5.437044383053045 3.3294960357122934 -1.0780123463719719e-10 -1.0338978810573377e-07 6.658992240321661" Properties=species:S:1:pos:R:3:forces:R:3 energy=-32.21668243408203 free_energy=-32.21668243408203 stress="0.00019750879437197 7.981799221568053e-09 1.5029053557213956e-08 7.981799221568053e-09 0.00019747014448512346 -5.69930325156065e-09 1.5029053557213956e-08 -5.69930325156065e-09 0.00019753811648115516" pbc="T T T"
Cr       1.92228553       1.35926087       3.32949617       0.00000135       0.00000073       0.00000065
Cr       5.76685668       4.07778291       9.98848761       0.00000027      -0.00000075      -0.00000663
Ag      -0.00000008      -0.00000009      -0.00000023       0.00000000       0.00000022       0.00000074
Cl       1.98296510       1.40216782       6.65899240       0.00160086       0.00113122       0.00000018
Cl       5.70617702       4.03487656       6.65899284      -0.00160095      -0.00113210       0.00000388
Cl       4.77537381       1.40216792       5.04679388      -0.00080164       0.00113185       0.00138626
Cl       2.91376777       4.03487649       8.27119042       0.00079985      -0.00113274      -0.00138691
Cl       2.91376800       4.03487646       5.04679396       0.00080004      -0.00113215       0.00138780
Cl       4.77537434       1.40216802       8.27119053      -0.00079997       0.00113375      -0.00138608
