9
Lattice="4.939994390701971 -3.1736479332207676e-08 2.852107119388034 1.6466648027055069 4.657470953447418 2.852107057508301 4.039857583063606e-08 -4.722078794998946e-08 5.704214168803665" Properties=species:S:1:pos:R:3:forces:R:3 energy=-41.738555908203125 free_energy=-41.738555908203125 stress="0.00011538391845533624 -2.043669233842138e-09 7.910827548585075e-09 -2.043669233842138e-09 0.00011541977437445894 -7.75597186475352e-09 7.910827548585075e-09 -7.75597186475352e-09 0.00011539744446054101" pbc="T T T"
Cr       1.64666486       1.16436715       2.85210592       0.00000026      -0.00000010      -0.00000165
Cr       4.93999447       3.49310345       8.55632056      -0.00000019       0.00000011      -0.00000207
Au      -0.00000001      -0.00000003      -0.00000003      -0.00000607      -0.00001205       0.00001354
F        1.69151835       1.19608384       5.70421475       0.00037023       0.00026106       0.00000130
F        4.89514078       3.46138717       5.70421437      -0.00036068      -0.00025467       0.00000008
F        4.09423557       1.19608370       4.31700530      -0.00018157       0.00025656       0.00031627
F        2.49242397       3.46138738       7.09142354       0.00018374      -0.00025995      -0.00031797
F        2.49242382       3.46138678       4.31700498       0.00018031      -0.00025366       0.00031135
F        4.09423505       1.19608389       7.09142385      -0.00018593       0.00026290      -0.00032082
