9
Lattice="6.120098284116923 3.5927886996821955e-08 3.533440495600522 2.0400328030434354 5.770084034153708 3.5334404820940097 4.509387378837617e-08 1.5344141251858107e-08 7.066880913096143" Properties=species:S:1:pos:R:3:forces:R:3 energy=-30.188093185424805 free_energy=-30.188093185424805 stress="6.225774995982647e-05 5.387136070567067e-09 1.0628450342053952e-09 5.387136070567067e-09 6.225616380106658e-05 2.487736683320918e-09 1.0628450342053952e-09 2.487736683320918e-09 6.224974640645087e-05" pbc="T T T"
Cr       2.04003257       1.44252067       3.53344094      -0.00000037      -0.00000151       0.00000089
Cr       6.12009853       4.32756294      10.60032258       0.00000106      -0.00000108       0.00000483
Ag      -0.00000001       0.00000014      -0.00000017      -0.00000099       0.00000015       0.00000051
Br       2.10595090       1.48913225       7.06688079       0.00061174       0.00043276      -0.00000038
Br       6.05418015       4.28095192       7.06688074      -0.00061092      -0.00043151      -0.00000247
Br       5.06712298       1.48913237       5.35724715      -0.00030563       0.00043330       0.00052860
Br       3.09300823       4.28095198       8.77651415       0.00030492      -0.00043166      -0.00053142
Br       3.09300825       4.28095179       5.35724721       0.00030629      -0.00043237       0.00052990
Br       5.06712285       1.48913229       8.77651416      -0.00030607       0.00043182      -0.00053054
