9
Lattice="6.122886551893214 4.2364685331600056e-08 3.535050123589899 2.0409621882560134 5.772712844826441 3.5350501853378713 -3.462616873127224e-08 5.1141132671289417e-08 7.070100307154045" Properties=species:S:1:pos:R:3:forces:R:3 energy=-30.32853889465332 free_energy=-30.32853889465332 stress="0.0002122631558449939 -5.391906920948486e-09 -3.839560669405273e-09 -5.391906920948486e-09 0.00021226589160505682 -4.103312134517978e-10 -3.839560669405273e-09 -4.103312134517978e-10 0.0002122632140526548" pbc="T T T"
Cr       2.04096246       1.44317813       3.53504994       0.00000048      -0.00000033      -0.00000075
Cr       6.12288642       4.32953451      10.60515064       0.00000011      -0.00000032      -0.00000062
Au       0.00000007      -0.00000010      -0.00000009       0.00000148       0.00000174       0.00000038
Br       2.10653017       1.48954185       7.07010032       0.00186616       0.00131973       0.00000008
Br       6.05731845       4.28317123       7.07010030      -0.00186788      -0.00132047       0.00000037
Br       5.06962147       1.48954178       5.35935864      -0.00093354       0.00131977       0.00161677
Br       3.09422711       4.28317132       8.78084202       0.00093358      -0.00132062      -0.00161702
Br       3.09422726       4.28317125       5.35935872       0.00093376      -0.00132029       0.00161715
Br       5.06962139       1.48954183       8.78084201      -0.00093406       0.00132078      -0.00161647
