9
Lattice="6.632088616478702 -5.6273060455901775e-08 3.829038162806752 2.210696164584493 6.252793069535371 3.8290381417686663 6.229974113834486e-09 -2.136100499195548e-08 7.658076314822842" Properties=species:S:1:pos:R:3:forces:R:3 energy=-27.678068161010742 free_energy=-27.678068161010742 stress="0.00014168184134177864 1.3817172961338997e-09 6.024297727336148e-11 1.3817172961338997e-09 0.00014169076166581362 2.2682780098648436e-09 6.024297727336148e-11 2.2682780098648436e-09 0.00014168480993248522" pbc="T T T"
Cr       2.21069599       1.56319836       3.82903846       0.00000008      -0.00000026       0.00000085
Cr       6.63208876       4.68959469      11.48711431       0.00000035       0.00000065      -0.00000052
Au      -0.00000007      -0.00000008      -0.00000008       0.00000017       0.00000118      -0.00000030
I        2.30958834       1.63312539       7.65807624      -0.00052356      -0.00037040      -0.00000088
I        6.53319663       4.61966760       7.65807639       0.00052305       0.00036985       0.00000020
I        5.47729445       1.63312542       5.82920036       0.00026147      -0.00036976      -0.00045367
I        3.36549021       4.61966753       9.48695228      -0.00026190       0.00037010       0.00045359
I        3.36549023       4.61966754       5.82920021      -0.00026189       0.00036885      -0.00045343
I        5.47729461       1.63312550       9.48695228       0.00026223      -0.00037019       0.00045413
