9
Lattice="5.940819673214062 -4.192877941060241e-08 3.4299339208464517 1.9802731797498578 5.60105851224877 3.4299339297214857 -1.221787473734095e-08 2.230311172701882e-09 6.859867862854876" Properties=species:S:1:pos:R:3:forces:R:3 energy=-33.44579315185547 free_energy=-33.44579315185547 stress="1.7634073401495698e-07 -1.6418654880112626e-08 1.591901543918084e-08 -1.6418654880112626e-08 2.1830835805758397e-07 2.3608919264006545e-08 1.591901543918084e-08 2.3608919264006545e-08 1.1960324286519608e-07" pbc="T T T"
Cr       1.98027433       1.40026493       3.42993354       0.00000283      -0.00000005      -0.00000039
Cr       5.94081908       4.20079354      10.28980270      -0.00000091      -0.00000015       0.00000194
Be       0.00000012      -0.00000012       0.00000011      -0.00000023       0.00000039      -0.00000092
Br       1.95086867       1.37947233       6.85986790       0.00184883       0.00130633      -0.00000063
Br       5.97022419       4.22158648       6.85986753      -0.00185119      -0.00130834      -0.00000117
Br       4.96538533       1.37947244       5.11943543      -0.00092583       0.00131056       0.00160176
Br       2.95570720       4.22158587       8.60029988       0.00092494      -0.00130700      -0.00159988
Br       2.95570743       4.22158591       5.11943557       0.00092506      -0.00130935       0.00160038
Br       4.96538504       1.37947252       8.60030023      -0.00092353       0.00130767      -0.00160089
