9
Lattice="6.485039346183472 -1.0106545903169822e-07 3.7441392102071034 2.1616797076856553 6.114153595288692 3.7441391739900585 2.833677343465753e-08 -2.4319516338364106e-08 7.488278371333508" Properties=species:S:1:pos:R:3:forces:R:3 energy=-29.65692901611328 free_energy=-29.65692901611328 stress="8.37270727060968e-06 2.277466826239305e-10 -2.7386576340049373e-10 2.277466826239305e-10 8.374926437682007e-06 5.049601625728428e-09 -2.7386576340049373e-10 5.049601625728428e-09 8.379233804589603e-06" pbc="T T T"
Cr       2.16167971       1.52853810       3.74413922      -0.00000034      -0.00000037      -0.00000029
Cr       6.48503901       4.58561525      11.23241795      -0.00000057      -0.00000034       0.00000143
Be      -0.00000010      -0.00000008       0.00000007       0.00000011       0.00000003      -0.00000053
I        2.12181324       1.50034849       7.48827846      -0.00022693      -0.00016109      -0.00000025
I        6.52490565       4.61380497       7.48827806       0.00022791       0.00016129      -0.00000026
I        5.42413281       1.50034853       5.58168317       0.00011338      -0.00016095      -0.00019701
I        3.22258664       4.61380494       9.39487332      -0.00011345       0.00016115       0.00019785
I        3.22258661       4.61380513       5.58168341      -0.00011399       0.00016139      -0.00019745
I        5.42413276       1.50034855       9.39487333       0.00011394      -0.00016115       0.00019663
