9
Lattice="5.505374666892688 -1.2535008475011208e-07 3.1785294713861783 1.8351248011941854 5.190516847405722 3.178529418712551 2.844279318085854e-08 -4.439966755523965e-08 6.35705889350803" Properties=species:S:1:pos:R:3:forces:R:3 energy=-36.428009033203125 free_energy=-36.428009033203125 stress="0.0001034635934047401 1.163004448301308e-08 -4.0881489304922525e-09 1.163004448301308e-08 0.00010347078205086291 -2.1955410822727117e-09 -4.0881489304922525e-09 -2.1955410822727117e-09 0.00010347252828069031" pbc="T T T"
Cr       1.83512432       1.29762931       3.17852981      -0.00000180       0.00000208       0.00000128
Cr       5.50537488       3.89288730       9.53558788       0.00000104      -0.00000260      -0.00000114
Be       0.00000007       0.00000009      -0.00000032      -0.00000009       0.00000023       0.00000103
Cl       1.79920897       1.27223281       6.35705889       0.00044346       0.00031447      -0.00000177
Cl       5.54129047       3.91828396       6.35705927      -0.00044274      -0.00031345      -0.00000035
Cl       4.60577050       1.27223267       4.73669018      -0.00022130       0.00031500       0.00038591
Cl       2.73472936       3.91828383       7.97742781       0.00022016      -0.00031388      -0.00038593
Cl       2.73472918       3.91828373       4.73668977       0.00022183      -0.00031546       0.00038582
Cl       4.60577024       1.27223297       7.97742791      -0.00022098       0.00031383      -0.00038496
