9
Lattice="5.980349794769404 3.063082292557602e-08 3.452756472377489 1.9934499481234815 5.638327805987827 3.4527564937602215 2.4961820075622183e-08 4.383904501038395e-08 6.905512901519846" Properties=species:S:1:pos:R:3:forces:R:3 energy=-41.81340789794922 free_energy=-41.81340789794922 stress="6.16243269178085e-05 1.026718976504526e-08 -1.0952854623269559e-08 1.026718976504526e-08 6.162552745081484e-05 1.2328464471522693e-08 -1.0952854623269559e-08 1.2328464471522693e-08 6.160615157568827e-05" pbc="T T T"
Cr       1.99345043       1.40958185       3.45275653       0.00000332      -0.00000036       0.00000045
Cr       5.98034968       4.22874610      10.35826879      -0.00000292      -0.00000089      -0.00000347
Co       0.00000011       0.00000005       0.00000003       0.00000065      -0.00000106       0.00000355
Te       1.98573924       1.40412975       6.90551272       0.00021613       0.00015195      -0.00000021
Te       5.98806060       4.23419825       6.90551318      -0.00021524      -0.00015185       0.00000224
Te       4.98748011       1.40412937       5.17245695      -0.00010859       0.00015163       0.00018842
Te       2.98631952       4.23419830       8.63856906       0.00010883      -0.00015256      -0.00018728
Te       2.98631943       4.23419817       5.17245681       0.00010810      -0.00015282       0.00018571
Te       4.98747995       1.40412970       8.63856940      -0.00011030       0.00015595      -0.00018940
