9
Lattice="6.012398046014647 2.67799925434048e-08 3.471259661682379 2.0041326936123114 5.66854322416678 3.4712596853092266 2.865399553035427e-09 3.09630441946359e-08 6.942519318401729" Properties=species:S:1:pos:R:3:forces:R:3 energy=-32.13214874267578 free_energy=-32.13214874267578 stress="0.0003563607460819185 3.755193933585588e-09 -7.541523849852183e-09 3.755193933585588e-09 0.0003563598438631743 -2.731943116174307e-09 -7.541523849852183e-09 -2.731943116174307e-09 0.000356360076693818" pbc="T T T"
Cr       2.00413268       1.41713511       3.47125981      -0.00000081      -0.00000173       0.00000018
Cr       6.01239806       4.25140699      10.41377834       0.00000014      -0.00000191      -0.00000262
Cu      -0.00000000       0.00000017      -0.00000038      -0.00000087      -0.00000006       0.00000458
Br       2.01305152       1.42344281       6.94251932      -0.00306942      -0.00216994       0.00000049
Br       6.00347891       4.24510072       6.94251964       0.00307119       0.00217313       0.00000075
Br       5.00587221       1.42344274       5.21461369       0.00153569      -0.00217274      -0.00266017
Br       3.01065862       4.24510105       8.67042510      -0.00153396       0.00216988       0.00265744
Br       3.01065848       4.24510081       5.21461377      -0.00153570       0.00217335      -0.00265874
Br       5.00587251       1.42344273       8.67042532       0.00153383      -0.00216997       0.00265814
