9
Lattice="5.161337986936213 -9.917974903572443e-09 2.979899960274624 1.720446045672785 4.866156041340102 2.9798998574286517 6.55881649343291e-08 -7.958217821262923e-08 5.959799806947188" Properties=species:S:1:pos:R:3:forces:R:3 energy=-44.0511474609375 free_energy=-44.0511474609375 stress="0.00030998740112408996 -1.0563257824003358e-08 2.3493932133078488e-08 -1.0563257824003358e-08 0.00030987890204414725 1.0005526185352664e-08 2.3493932133078488e-08 1.0005526185352664e-08 0.00030989659717306495" pbc="T T T"
Cr       1.72044590       1.21653896       2.97990025      -0.00000227       0.00000566       0.00000590
Cr       5.16133934       3.64961593       8.93969941       0.00000979      -0.00000538      -0.00000182
C       -0.00000146      -0.00000890      -0.00000639      -0.00004471      -0.00027528      -0.00020098
S        1.61350284       1.14091983       5.95979967      -0.00138688      -0.00097263      -0.00000220
S        5.26828572       3.72524004       5.95980017       0.00154388       0.00108510       0.00000306
S        4.35458614       1.14092029       4.37723530       0.00067466      -0.00095010      -0.00116956
S        2.52719445       3.72524112       7.54236970      -0.00079066       0.00111455       0.00136167
S        2.52719552       3.72523857       4.37723302      -0.00073898       0.00103045      -0.00126302
S        4.35458788       1.14091775       7.54236711       0.00073504      -0.00103205       0.00126606
