9
Lattice="5.348622974056734 -1.360880884065972e-07 3.0880291421684603 1.7828741801735877 5.042730389920974 3.0880291702397042 -2.0460076341003805e-08 1.9912605517979114e-08 6.176058319774812" Properties=species:S:1:pos:R:3:forces:R:3 energy=-47.18858337402344 free_energy=-47.18858337402344 stress="-2.7478985430207103e-05 -5.8928311119643695e-08 -6.403817032207826e-09 -5.8928311119643695e-08 -2.743978075159248e-05 -6.0635780840812e-09 -6.403817032207826e-09 -6.0635780840812e-09 -2.741122261795681e-05" pbc="T T T"
Cr       1.78287296       1.26068316       3.08802967      -0.00000858       0.00000382       0.00000338
Cr       5.34862337       3.78204725       9.26408628       0.00000380      -0.00000070      -0.00000600
Co       0.00000009      -0.00000012       0.00000077       0.00000030       0.00000137      -0.00000918
S        1.76350517       1.24698651       6.17605867       0.00719181       0.00508672       0.00000038
S        5.36799213       3.79574399       6.17605808      -0.00719309      -0.00508827       0.00000024
S        4.46687006       1.24698651       4.61527026      -0.00359507       0.00508428       0.00622994
S        2.66462741       3.79574327       7.73684655       0.00359398      -0.00508150      -0.00622278
S        2.66462637       3.79574321       4.61527024       0.00359178      -0.00508818       0.00622988
S        4.46687094       1.24698736       7.73684602      -0.00358498       0.00508255      -0.00622591
