9
Lattice="6.015963525189518 -1.4802497958602002e-08 3.473318219796219 2.0053211625560183 5.671904842707378 3.4733182172868444 6.72296741236222e-09 1.6804942972842548e-09 6.94663642794788" Properties=species:S:1:pos:R:3:forces:R:3 energy=-32.3353157043457 free_energy=-32.3353157043457 stress="-9.560355465509929e-06 3.933007697298763e-09 -4.337519676766988e-09 3.933007697298763e-09 -9.56151052378118e-06 -7.963639525598865e-09 -4.337519676766988e-09 -7.963639525598865e-09 -9.596377822163049e-06" pbc="T T T"
Cr       2.00532102       1.41797535       3.47331840      -0.00000068      -0.00000082       0.00000051
Cr       6.01596350       4.25392904      10.41995396      -0.00000087       0.00000021      -0.00000090
C       -0.00000069      -0.00000022       0.00000063       0.00000052      -0.00000129       0.00000102
Br       1.98288569       1.40211207       6.94663647      -0.00149128      -0.00105439       0.00000025
Br       6.03839908       4.26979279       6.94663655       0.00149110       0.00105667      -0.00000015
Br       5.02452140       1.40211166       5.19054703       0.00074428      -0.00105338      -0.00128908
Br       2.99676412       4.26979331       8.70272595      -0.00074369       0.00105374       0.00128672
Br       2.99676361       4.26979314       5.19054671      -0.00074519       0.00105430      -0.00128917
Br       5.02452100       1.40211213       8.70272569       0.00074576      -0.00105496       0.00129078
