9
Lattice="6.473424196693722 -4.635635797487778e-08 3.737433189532891 2.1578080311716166 6.103202823117452 3.737433173403636 1.3087691497387536e-08 -1.04998347107312e-08 7.474866356397211" Properties=species:S:1:pos:R:3:forces:R:3 energy=-29.080493927001953 free_energy=-29.080493927001953 stress="0.00014891766477376223 -1.0648592008166702e-09 -8.328711331717642e-11 -1.0648592008166702e-09 0.00014892869512550533 -4.6237662587600425e-09 -8.328711331717642e-11 -4.6237662587600425e-09 0.00014892069157212973" pbc="T T T"
Cr       2.15780823       1.52580115       3.73743293       0.00000137       0.00000190      -0.00000084
Cr       6.47342392       4.57740172      11.21229999      -0.00000106      -0.00000136       0.00000285
Cu       0.00000003      -0.00000004      -0.00000003      -0.00000007       0.00000030       0.00000098
I        2.19015407       1.54867273       7.47486636      -0.00259683      -0.00183561       0.00000055
I        6.44107824       4.55453003       7.47486606       0.00259534       0.00183501       0.00000007
I        5.37834714       1.54867321       5.63416226       0.00129908      -0.00183586      -0.00224975
I        3.25288496       4.55452988       9.31557059      -0.00129774       0.00183446       0.00224703
I        3.25288527       4.55452981       5.63416204      -0.00129809       0.00183578      -0.00224854
I        5.37834712       1.54867255       9.31557067       0.00129803      -0.00183459       0.00224768
