9
Lattice="6.475114225460099 -5.6076602396657514e-08 3.73840890613122 2.1583713598546312 6.104796241461636 3.738408898791711 4.307640818562612e-09 -5.943077684494072e-09 7.476817804801365" Properties=species:S:1:pos:R:3:forces:R:3 energy=-31.91863250732422 free_energy=-31.91863250732422 stress="0.0001560342061566189 -1.1298242341695186e-08 -3.5079645854807495e-09 -1.1298242341695186e-08 0.00015602799248881638 8.97407061856148e-12 -3.5079645854807495e-09 8.97407061856148e-12 0.00015602812345605344" pbc="T T T"
Cr       2.15837163       1.52619885       3.73840859       0.00000095       0.00000038      -0.00000121
Cr       6.47511419       4.57859698      11.21522689      -0.00000011      -0.00000084       0.00000178
Co      -0.00000014       0.00000009      -0.00000017       0.00000050      -0.00000059       0.00000145
I        2.13775213       1.51161903       7.47681785      -0.00241743      -0.00170891       0.00000103
I        6.49573352       4.59317739       7.47681779       0.00241673       0.00170914      -0.00000052
I        5.40623811       1.51161939       5.58975652       0.00120927      -0.00170915      -0.00209358
I        3.22724738       4.59317711       9.36387921      -0.00120813       0.00170856       0.00209226
I        3.22724759       4.59317699       5.58975653      -0.00120931       0.00170995      -0.00209356
I        5.40623796       1.51161888       9.36387924       0.00120749      -0.00170860       0.00209240
