9
Lattice="6.1816188484318975 1.570479863124335e-09 3.5689592028121693 2.060539613053275 5.82808600881963 3.5689592107300014 6.220734014090398e-09 1.4096057219178667e-08 7.137918394849715" Properties=species:S:1:pos:R:3:forces:R:3 energy=-29.723764419555664 free_energy=-29.723764419555664 stress="0.0001862470671767369 2.6822408738524928e-09 2.2606667648972234e-09 2.6822408738524928e-09 0.0001862219360191375 -6.995806600684773e-09 2.2606667648972234e-09 -6.995806600684773e-09 0.00018622643256094307" pbc="T T T"
Cr       2.06053960       1.45702132       3.56895943      -0.00000030      -0.00000038       0.00000014
Cr       6.18161869       4.37106441      10.70687818      -0.00000012      -0.00000086       0.00000104
Cd      -0.00000001       0.00000009      -0.00000002      -0.00000090      -0.00000062       0.00000019
Br       2.16271596       1.52927122       7.13791828       0.00059572       0.00042140      -0.00000032
Br       6.07944261       4.29881492       7.13791811      -0.00059435      -0.00042021       0.00000010
Br       5.10026117       1.52927095       5.44192591      -0.00029823       0.00042154       0.00051640
Br       3.14189747       4.29881513       8.83391057       0.00029857      -0.00042151      -0.00051759
Br       3.14189776       4.29881486       5.44192618       0.00029754      -0.00042154       0.00051598
Br       5.10026068       1.52927117       8.83391062      -0.00029792       0.00042221      -0.00051598
