9
Lattice="4.894472162692666 1.1822289604170081e-07 2.825824621559599 1.6314907179646676 4.614553218962086 2.825824819696696 -9.321688514067583e-08 1.7675308436153223e-07 5.651649404575557" Properties=species:S:1:pos:R:3:forces:R:3 energy=-41.65757751464844 free_energy=-41.65757751464844 stress="0.0005020858370698988 -2.9390822220420887e-08 1.4275265691754413e-10 -2.9390822220420887e-08 0.0005019396194256842 -8.642604854003366e-09 1.4275265691754413e-10 -8.642604854003366e-09 0.0005020464886911213" pbc="T T T"
Cr       1.63149080       1.15363873       2.82582387       0.00000005       0.00000083      -0.00000314
Cr       4.89447250       3.46091417       8.47747364       0.00000170      -0.00000393      -0.00000262
Cd      -0.00000008      -0.00000005       0.00000003       0.00000342       0.00000031      -0.00000237
F        1.72999667       1.22329301       5.65164998       0.00045818       0.00032511       0.00000232
F        4.79596578       3.39126099       5.65164958      -0.00046188      -0.00032496       0.00000176
F        4.02947382       1.22329331       4.32404606      -0.00022921       0.00032550       0.00039798
F        2.49648889       3.39126042       6.97925304       0.00022873      -0.00032511      -0.00039628
F        2.49648887       3.39126035       4.32404626       0.00022775      -0.00032479       0.00039825
F        4.02947363       1.22329334       6.97925293      -0.00022858       0.00032699      -0.00039592
