9
Lattice="6.73793798505949 3.743675700866791e-08 3.890150227820732 2.245979344453471 6.352588975351277 3.8901502610681455 -2.1647695662385524e-08 2.5412390869390152e-08 7.780300493136347" Properties=species:S:1:pos:R:3:forces:R:3 energy=-26.564743041992188 free_energy=-26.564743041992188 stress="0.0001238018012372777 -7.089293152517939e-09 2.2265616017591583e-09 -7.089293152517939e-09 0.00012381542182993144 -1.9863628519800614e-09 2.2265616017591583e-09 -1.9863628519800614e-09 0.00012383979628793895" pbc="T T T"
Cr       2.24597936       1.58814740       3.89015032       0.00000053       0.00000031      -0.00000032
Cr       6.73793809       4.76444164      11.67045072      -0.00000068      -0.00000020       0.00000001
Cd       0.00000009       0.00000012      -0.00000014       0.00000007      -0.00000034      -0.00000132
I        2.36867064       1.67490311       7.78030054      -0.00066300      -0.00046860       0.00000043
I        6.61524662       4.67768566       7.78030044       0.00066227       0.00046861       0.00000029
I        5.55360246       1.67490328       5.94147920       0.00033133      -0.00046937      -0.00057521
I        3.43031468       4.67768596       9.61912177      -0.00033128       0.00046968       0.00057551
I        3.43031469       4.67768585       5.94147926      -0.00033096       0.00046982      -0.00057501
I        5.55360260       1.67490316       9.61912178       0.00033177      -0.00046994       0.00057562
