9
Lattice="4.632948485819131 -2.5016730975495458e-08 2.674834091385197 1.5443161476674705 4.367985708049697 2.6748340752533286 4.634662261317193e-08 1.30145553690299e-08 5.34966810249571" Properties=species:S:1:pos:R:3:forces:R:3 energy=-48.85419464111328 free_energy=-48.85419464111328 stress="-1.9389664885238744e-05 -3.391193459378883e-08 1.4395441283454602e-08 -3.391193459378883e-08 -1.9326040273881517e-05 -2.950158517478485e-08 1.4395441283454602e-08 -2.950158517478485e-08 -1.9350076399859972e-05" pbc="T T T"
Cr       1.54431703       1.09199634       2.67483558       0.00000533      -0.00000037       0.00000849
Cr       4.63294957       3.27598878       8.02450378       0.00000607      -0.00000261       0.00000898
Co      -0.00000000       0.00000007      -0.00000004      -0.00000241      -0.00000486      -0.00000192
F        1.51122589       1.06859900       5.34966743       0.00108229       0.00076782      -0.00000466
F        4.66603819       3.29938711       5.34966781      -0.00108207      -0.00076467      -0.00000419
F        3.87733483       1.06859860       3.98359418      -0.00054353       0.00076708       0.00093655
F        2.29992894       3.29938721       6.71574083       0.00053731      -0.00076178      -0.00093663
F        2.29992957       3.29938704       3.98359442       0.00053960      -0.00076259       0.00093046
F        3.87733462       1.06859859       6.71574119      -0.00054261       0.00076202      -0.00093715
