9
Lattice="5.6824377635584815 -3.440538270743033e-08 3.280756906798639 1.8941459162915386 5.357453511979103 3.2807568590926395 -9.805388928144677e-09 -6.536113310636218e-08 6.5615138305807035" Properties=species:S:1:pos:R:3:forces:R:3 energy=-34.09495544433594 free_energy=-34.09495544433594 stress="-0.00018280271615367383 1.1941135191761987e-08 -4.976681466928312e-08 1.1941135191761987e-08 -0.0001828601089073345 -1.5630339689209904e-08 -4.976681466928312e-08 -1.5630339689209904e-08 -0.0001828027598094195" pbc="T T T"
Cr       1.89414632       1.33936309       3.28075758       0.00000365      -0.00000164       0.00000367
Cr       5.68243698       4.01809089       9.84226885      -0.00000430       0.00000350      -0.00000956
C        0.00000080       0.00000098       0.00000041       0.00000036       0.00000020       0.00000025
Cl       1.87643295       1.32683795       6.56151367       0.00059111       0.00041690      -0.00000059
Cl       5.70015007       4.03061437       6.56151416      -0.00059073      -0.00041772       0.00000276
Cl       4.74422070       1.32683816       4.90579566      -0.00029577       0.00041683       0.00051399
Cl       2.83236300       4.03061480       8.21723198       0.00029750      -0.00041626      -0.00050998
Cl       2.83236274       4.03061487       4.90579572       0.00029479      -0.00042105       0.00051337
Cl       4.74422118       1.32683856       8.21723227      -0.00029666       0.00041927      -0.00051394
