9
Lattice="4.156494173252598 1.3447670844987541e-08 2.3997530247406047 1.3854980300139164 3.918780339734051 2.3997530947423416 -5.758035888624863e-09 8.166273941210428e-08 4.799506059454432" Properties=species:S:1:pos:R:3:forces:R:3 energy=-46.828094482421875 free_energy=-46.828094482421875 stress="5.7234912674175575e-05 9.86580559469985e-08 -6.565726806684324e-08 9.86580559469985e-08 5.7212921092286706e-05 1.1187767512410574e-07 -6.565726806684324e-08 1.1187767512410574e-07 5.73595825699158e-05" pbc="T T T"
Cr       1.38549777       0.97969501       2.39975290       0.00000074       0.00000011       0.00000082
Cr       4.15649412       2.93908537       7.19925943       0.00000039      -0.00000081      -0.00000038
C        0.00000000       0.00000008       0.00000030       0.00000006       0.00000271      -0.00000757
F        1.22490253       0.86613705       4.79950615      -0.00269066      -0.00190523      -0.00000103
F        4.31708956       3.05264342       4.79950609       0.00269470       0.00190366       0.00000137
F        3.54404287       0.86613700       3.46054984       0.00134479      -0.00190479      -0.00233234
F        1.99794936       3.05264327       6.13846219      -0.00134628       0.00190485       0.00234030
F        1.99794930       3.05264360       3.46054966      -0.00134653       0.00190084      -0.00233379
F        3.54404299       0.86613710       6.13846233       0.00134286      -0.00190105       0.00233305
