9
Lattice="4.299559307886547 4.964120091000317e-08 2.482351749947745 1.433186411870313 4.053663357917401 2.4823518727399234 -1.1343960847353198e-07 7.017509214831524e-08 4.964703696378651" Properties=species:S:1:pos:R:3:forces:R:3 energy=-52.30796813964844 free_energy=-52.30796813964844 stress="0.0001959910587174818 -1.3418911315454807e-08 5.8303420757965796e-08 -1.3418911315454807e-08 0.0001962862879736349 1.7276340713578975e-07 5.8303420757965796e-08 1.7276340713578975e-07 0.00019589460862334818" pbc="T T T"
Cr       1.43318540       1.01341424       2.48235504      -0.00000861      -0.00001305       0.00002482
Cr       4.29956061       3.04024682       7.44705776       0.00001027      -0.00000968       0.00002017
Co      -0.00000001       0.00000003       0.00000019      -0.00000042      -0.00000111       0.00000417
O        1.45140225       1.02629197       4.96470769      -0.00393546      -0.00282174       0.00003894
O        4.28134344       3.02737146       4.96469661       0.00393766       0.00282526      -0.00005945
O        3.57385722       1.02629523       3.73930007       0.00196230      -0.00279868      -0.00343680
O        2.15888701       3.02736976       6.19010491      -0.00196972       0.00280815       0.00341809
O        2.15888103       3.02736569       3.73930176      -0.00203040       0.00276983      -0.00342607
O        3.57386539       1.02629901       6.19010477       0.00203484      -0.00275964       0.00341481
