9
Lattice="5.630970073059486 -3.152675007490756e-08 3.2510420697683453 1.8769900201617085 5.308929226614846 3.2510420255451766 -6.340469413075125e-08 -9.899596671844373e-08 6.502084249356826" Properties=species:S:1:pos:R:3:forces:R:3 energy=-34.523773193359375 free_energy=-34.523773193359375 stress="9.789081377675757e-05 9.780386500679583e-10 1.0129188154905933e-08 9.780386500679583e-10 9.791064803721383e-05 2.0010656243130143e-08 1.0129188154905933e-08 2.0010656243130143e-08 9.790128387976438e-05" pbc="T T T"
Cr       1.87698996       1.32723260       3.25104189      -0.00000145       0.00000188      -0.00000001
Cr       5.63096996       3.98169616       9.75312870       0.00000020      -0.00000423       0.00001501
Cu       0.00000016      -0.00000029       0.00000009      -0.00000038       0.00000329      -0.00000263
Cl       1.87980484       1.32922275       6.50208444       0.00056198       0.00039932       0.00000021
Cl       5.62815516       3.97970651       6.50208314      -0.00056458      -0.00039852      -0.00000579
Cl       4.69106718       1.32922307       4.87900057      -0.00028083       0.00039956       0.00048462
Cl       2.81689202       3.97970629       8.12516706       0.00027926      -0.00039849      -0.00048986
Cl       2.81689285       3.97970669       4.87900039       0.00028513      -0.00039995       0.00048706
Cl       4.69106799       1.32922264       8.12516710      -0.00027943       0.00039703      -0.00048840
