9
Lattice="5.599506519846831 1.6337669087674e-08 3.23287649756521 1.8665021801955537 5.279265506285328 3.2328765122704644 -1.856331420704638e-09 1.6697524486335202e-08 6.465752998345681" Properties=species:S:1:pos:R:3:forces:R:3 energy=-38.25368881225586 free_energy=-38.25368881225586 stress="0.00035035100881941617 3.727719999346846e-08 -3.038085694129222e-08 3.727719999346846e-08 0.0003504470514599234 -5.3652606801790625e-09 -3.038085694129222e-08 -5.3652606801790625e-09 0.00035034274333156645" pbc="T T T"
Cr       1.86650169       1.31981580       3.23287710      -0.00000120      -0.00000427       0.00000333
Cr       5.59950636       3.95944861       9.69862782      -0.00000202      -0.00000254      -0.00001257
Co       0.00000014      -0.00000026       0.00000044      -0.00000044       0.00000397      -0.00000330
Cl       1.83625001       1.29842464       6.46575312      -0.00273068      -0.00193012       0.00000019
Cl       5.62975865       3.98084080       6.46575397       0.00273009       0.00193051       0.00000178
Cl       4.68138138       1.29842481       4.82311494       0.00136510      -0.00192916      -0.00236204
Cl       2.78462770       3.98084123       8.10839067      -0.00136334       0.00193131       0.00236526
Cl       2.78462667       3.98084142       4.82311546      -0.00136422       0.00192912      -0.00235783
Cl       4.68138219       1.29842508       8.10839040       0.00136676      -0.00192861       0.00236508
