9
Lattice="5.608997946299488 -3.047886910832611e-08 3.23835655994274 1.8696659698695355 5.288213942157815 3.2383565313543863 6.874365940947978e-08 1.3595735518118761e-08 6.476713000817921" Properties=species:S:1:pos:R:3:forces:R:3 energy=-43.97380828857422 free_energy=-43.97380828857422 stress="0.00018960313173010945 6.101974481254047e-09 -3.5304537071567665e-09 6.101974481254047e-09 0.00018959039880428463 -2.0065803241209323e-08 -3.5304537071567665e-09 -2.0065803241209323e-08 0.0001895916066132486" pbc="T T T"
Cr       1.86966467       1.32205387       3.23835641      -0.00000972       0.00000380      -0.00000012
Cr       5.60899789       3.96616108       9.71507133      -0.00000080       0.00000418       0.00001398
Co       0.00000013       0.00000004       0.00000022      -0.00000054      -0.00000007      -0.00000167
Se       1.87049147       1.32263706       6.47671271       0.00208589       0.00147342      -0.00000080
Se       5.60817310       3.96557602       6.47671230      -0.00208132      -0.00147560      -0.00000525
Se       4.67375271       1.32263721       4.85824979      -0.00103901       0.00147311       0.00180577
Se       2.80491146       3.96557679       8.09517624       0.00104079      -0.00147518      -0.00180818
Se       2.80491233       3.96557694       4.85824938       0.00104545      -0.00147329       0.00180361
Se       4.67375218       1.32263669       8.09517598      -0.00104092       0.00146957      -0.00180736
