9
Lattice="6.049091641833272 2.6054046994631874e-08 3.4924446021260813 2.0163638621392352 5.7031384217060275 3.4924446766663184 -1.0697352127306407e-07 1.5651077687420504e-08 6.984889389535632" Properties=species:S:1:pos:R:3:forces:R:3 energy=-38.043331146240234 free_energy=-38.043331146240234 stress="0.00018466637993697077 -3.004945625662003e-08 -6.88190393560717e-09 -3.004945625662003e-08 0.00018466825713403523 9.630676700567165e-09 -6.88190393560717e-09 9.630676700567165e-09 0.0001847119419835508" pbc="T T T"
Cr       2.01636377       1.42578400       3.49244456       0.00000049      -0.00000168      -0.00000009
Cr       6.04909138       4.27735393      10.47733412      -0.00000014      -0.00000057       0.00000003
Fe       0.00000006       0.00000016       0.00000019       0.00000094      -0.00000032      -0.00000201
Br       1.85478967       1.31153458       6.98488898      -0.00309889      -0.00219232      -0.00000023
Br       6.21066577       4.39160426       6.98488911       0.00309763       0.00218975      -0.00000014
Br       5.12169703       1.31153452       5.09873962       0.00155100      -0.00219195      -0.00268386
Br       2.94375883       4.39160391       8.87103885      -0.00155292       0.00219618       0.00268837
Br       2.94375859       4.39160386       5.09873984      -0.00154934       0.00219220      -0.00268561
Br       5.12169650       1.31153463       8.87103925       0.00155105      -0.00219129       0.00268393
