9
Lattice="6.4795813464888745 -1.0924831174143941e-07 3.7409880732903296 2.1598603354582964 6.109007942066489 3.7409880912533806 -5.1931048245164375e-08 -1.472060714878165e-08 7.4819762365277835" Properties=species:S:1:pos:R:3:forces:R:3 energy=-33.8737907409668 free_energy=-33.8737907409668 stress="0.00018449676281306893 -2.26731167174421e-08 5.980386186266173e-10 -2.26731167174421e-08 0.00018449114577379078 3.935308079405786e-09 5.980386186266173e-10 3.935308079405786e-09 0.00018454006931278855" pbc="T T T"
Cr       2.15986056       1.52725146       3.74098820       0.00000026      -0.00000130      -0.00000005
Cr       6.47958107       4.58175625      11.22296512      -0.00000066       0.00000081       0.00000174
Fe       0.00000008      -0.00000025      -0.00000045       0.00000209       0.00000551       0.00000332
I        1.99471826       1.41047857       7.48197625      -0.00667082      -0.00471681      -0.00000048
I        6.64472319       4.69852931       7.48197613       0.00666769       0.00471377      -0.00000075
I        5.48222216       1.41047863       5.46846499       0.00333675      -0.00471815      -0.00578003
I        3.15721956       4.69852945       9.49548730      -0.00333571       0.00471647       0.00577733
I        3.15721958       4.69852947       5.46846473      -0.00333522       0.00471660      -0.00577838
I        5.48222216       1.41047839       9.49548732       0.00333544      -0.00471671       0.00577731
