9
Lattice="5.670723950198877 -4.5139465216788214e-08 3.2739939443465933 1.890241299159224 5.346409919166981 3.273993901072817 1.3769668054072006e-08 -4.32626965959648e-08 6.547987864843432" Properties=species:S:1:pos:R:3:forces:R:3 energy=-40.24121856689453 free_energy=-40.24121856689453 stress="0.00037927523953840137 1.5094428817974404e-08 6.183695777650655e-09 1.5094428817974404e-08 0.00037927739322185516 2.1258909299604056e-08 6.183695777650655e-09 2.1258909299604056e-08 0.0003793241921812296" pbc="T T T"
Cr       1.89024150       1.33660177       3.27399468       0.00000163      -0.00000324       0.00000264
Cr       5.67072387       4.00980790       9.82198306       0.00000003       0.00000400       0.00000728
Fe       0.00000043       0.00000027       0.00000066      -0.00000998      -0.00000697      -0.00001828
Cl       1.81541755       1.28369359       6.54798783       0.00156850       0.00110562       0.00000154
Cl       5.74554747       4.06271614       6.54798681      -0.00156105      -0.00109859      -0.00000534
Cl       4.76301500       1.28369385       4.84619134      -0.00078507       0.00110719       0.00135478
Cl       2.79795004       4.06271566       8.24978369       0.00077893      -0.00109947      -0.00134842
Cl       2.79794983       4.06271579       4.84619144       0.00078249      -0.00110936       0.00135539
Cl       4.76301536       1.28369434       8.24978331      -0.00077572       0.00110056      -0.00135009
