9
Lattice="6.133830934511813 -2.747618693889328e-09 3.5413689791021636 2.044610306568538 5.783031376198555 3.541368983163659 3.99196751827648e-08 3.320178235535948e-08 7.082737889061438" Properties=species:S:1:pos:R:3:forces:R:3 energy=-33.447174072265625 free_energy=-33.447174072265625 stress="0.00011169228673679754 -2.2611286176754675e-09 3.433097361948967e-09 -2.2611286176754675e-09 0.00011170805373694748 -6.849110167905792e-09 3.433097361948967e-09 -6.849110167905792e-09 0.00011169615754624829" pbc="T T T"
Cr       2.04461080       1.44575795       3.54136909       0.00000110      -0.00000020       0.00000079
Cr       6.13383050       4.33727321      10.62410721      -0.00000167      -0.00000077       0.00000124
Ge       0.00000011       0.00000030      -0.00000002      -0.00000028      -0.00000366      -0.00000267
Br       2.03405982       1.43829722       7.08273808       0.00353081       0.00249494      -0.00000022
Br       6.14438106       4.34473424       7.08273784      -0.00352826      -0.00249408      -0.00000108
Br       5.11680112       1.43829756       5.30291608      -0.00176573       0.00249770       0.00305765
Br       3.06164018       4.34473374       8.86255922       0.00176380      -0.00249383      -0.00305420
Br       3.06164018       4.34473367       5.30291638       0.00176439      -0.00249508       0.00305459
Br       5.11680135       1.43829774       8.86255946      -0.00176411       0.00249503      -0.00305607
