9
Lattice="6.714160997687275 4.737615096893994e-08 3.8764226537651316 2.2380536965585653 6.330171657756234 3.8764226780205524 4.0428977352089236e-08 5.829429756214076e-08 7.752845237505276" Properties=species:S:1:pos:R:3:forces:R:3 energy=-29.80644416809082 free_energy=-29.80644416809082 stress="0.00010146146814804524 6.275681752043738e-09 2.729612091911804e-10 6.275681752043738e-09 0.00010145552369067445 -1.8258781153690506e-09 2.729612091911804e-10 -1.8258781153690506e-09 0.00010145900159841403" pbc="T T T"
Cr       2.23805425       1.58254344       3.87642285       0.00000133       0.00000063       0.00000098
Cr       6.71416123       4.74762898      11.62926843       0.00000128       0.00000151       0.00000147
Ge       0.00000007       0.00000007      -0.00000016      -0.00000052       0.00000004      -0.00000029
I        2.33103113       1.64828783       7.75284524      -0.00044490      -0.00031487      -0.00000060
I        6.62118359       4.68188356       7.75284536       0.00044578       0.00031533      -0.00000101
I        5.54864529       1.64828798       5.89515457       0.00022176      -0.00031498      -0.00038610
I        3.40356917       4.68188360       9.61053588      -0.00022363       0.00031483       0.00038520
I        3.40356908       4.68188376       5.89515456      -0.00022260       0.00031383      -0.00038534
I        5.54864509       1.64828783       9.61053557       0.00022154      -0.00031630       0.00038561
