9
Lattice="5.770676572847872 8.45252748905443e-08 3.3317023625050615 1.9235588673290336 5.440646572577706 3.3317024837106546 -4.547708046066156e-08 1.1628880484863127e-07 6.663404803778595" Properties=species:S:1:pos:R:3:forces:R:3 energy=-40.15574645996094 free_energy=-40.15574645996094 stress="0.0001475168246543035 -7.84597489200678e-08 -3.483765809164652e-08 -7.84597489200678e-08 0.00014742840721737593 -4.426009070357395e-08 -3.483765809164652e-08 -4.426009070357395e-08 0.0001472526346333325" pbc="T T T"
Cr       1.92354468       1.36016484       3.33170675      -0.00009910       0.00002415       0.00003113
Cr       5.77067678       4.08048915       9.99511692      -0.00000042       0.00003150       0.00006903
Ge      -0.00000080       0.00000031       0.00000068       0.00000232       0.00000384      -0.00000187
Se       1.99265594       1.40901684       6.66340436       0.00502768       0.00353232      -0.00001065
Se       5.70158499       4.03162394       6.66340265      -0.00500143      -0.00357912      -0.00002510
Se       4.77435442       1.40902070       5.05739163      -0.00247854       0.00355801       0.00435476
Se       2.91988349       4.03162957       8.26941445       0.00249694      -0.00353600      -0.00436492
Se       2.91988756       4.03162628       5.05738884       0.00252421      -0.00355661       0.00433195
Se       4.77435446       1.40901542       8.26941232      -0.00247185       0.00352180      -0.00438417
