9
Lattice="6.223919954766408 -3.6235227511297915e-08 3.593381893006109 2.0746399479541786 5.867968027613382 3.5933818978646417 7.86694629790297e-09 1.1513205522083346e-08 7.18676377238632" Properties=species:S:1:pos:R:3:forces:R:3 energy=-37.3235969543457 free_energy=-37.3235969543457 stress="0.0001356819411739707 -3.4444396224131424e-09 6.058434198763507e-09 -3.4444396224131424e-09 0.0001356905559077859 3.1959659363423043e-09 6.058434198763507e-09 3.1959659363423043e-09 0.0001356791763100773" pbc="T T T"
Cr       2.07463986       1.46699180       3.59338177      -0.00000053      -0.00000038      -0.00000059
Cr       6.22391970       4.40097570      10.78014561      -0.00000101      -0.00000133      -0.00000004
Ge      -0.00000006       0.00000007       0.00000022       0.00000031      -0.00000008      -0.00000017
Te       2.21176684       1.56395532       7.18676370       0.00267898       0.00189477      -0.00000040
Te       6.08679324       4.30401260       7.18676382      -0.00267866      -0.00189462      -0.00000023
Te       5.11803656       1.56395542       5.50882826      -0.00133914       0.00189500       0.00232050
Te       3.18052355       4.30401277       8.86469920       0.00133954      -0.00189373      -0.00231989
Te       3.18052352       4.30401280       5.50882826       0.00133999      -0.00189424       0.00231999
Te       5.11803649       1.56395550       8.86469943      -0.00133950       0.00189449      -0.00231922
