9
Lattice="5.557876288341805 -2.073876675233505e-08 3.2088413496992922 1.8526253992892245 5.240016064427569 3.208841368068296 4.9570757327417885e-08 5.75491461494515e-08 6.417682613539531" Properties=species:S:1:pos:R:3:forces:R:3 energy=-43.1851692199707 free_energy=-43.1851692199707 stress="9.614556620363146e-05 1.5496853578156333e-08 -1.2074157673680475e-08 1.5496853578156333e-08 9.609076369088143e-05 1.3283862898560983e-08 -1.2074157673680475e-08 1.3283862898560983e-08 9.608742402633652e-05" pbc="T T T"
Cr       1.85262567       1.31000286       3.20884196       0.00000267      -0.00000894       0.00000317
Cr       5.55787699       3.93001210       9.62652494       0.00000501      -0.00000035       0.00000540
Ge      -0.00000008       0.00000005      -0.00000014       0.00000319       0.00000019       0.00000179
S        1.87994697       1.32932334       6.41768275      -0.00199831      -0.00141150      -0.00000063
S        5.53055415       3.91069376       6.41768252       0.00199127       0.00141585      -0.00000171
S        4.61790315       1.32932341       4.83692298       0.00099942      -0.00140983      -0.00172967
S        2.79259845       3.91069340       7.99844176      -0.00100046       0.00141644       0.00172347
S        2.79259882       3.91069258       4.83692272      -0.00099847       0.00141090      -0.00172776
S        4.61790296       1.32932283       7.99844212       0.00099570      -0.00141287       0.00172597
