9
Lattice="4.82556160163627 8.194567730410038e-08 2.7860393319179257 1.6085205509548723 4.549583524850735 2.786039436157937 -8.309655565178101e-08 6.89092996580554e-08 5.57207880776328" Properties=species:S:1:pos:R:3:forces:R:3 energy=-48.58892822265625 free_energy=-48.58892822265625 stress="-7.28728118701838e-05 -1.6535508962078893e-08 8.595683276269028e-09 -1.6535508962078893e-08 -7.299605204025283e-05 2.0268100087150742e-08 8.595683276269028e-09 2.0268100087150742e-08 -7.292458030860871e-05" pbc="T T T"
Cr       1.60852044       1.13739584       2.78603965      -0.00000010       0.00000021      -0.00000006
Cr       4.82556174       3.41218843       8.35811804       0.00000011       0.00000032      -0.00000010
Ge       0.00000011       0.00000002       0.00000012       0.00000042      -0.00000005      -0.00000199
F        1.49800265       1.05924757       5.57207862       0.00364985       0.00258017      -0.00000004
F        4.93607934       3.49033576       5.57207875      -0.00364996      -0.00258123      -0.00000015
F        4.07656020       1.05924772       4.08334764      -0.00182451       0.00257982       0.00315929
F        2.35752176       3.49033582       7.06080976       0.00182343      -0.00257830      -0.00315775
F        2.35752159       3.49033572       4.08334783       0.00182470      -0.00258072       0.00315998
F        4.07656025       1.05924773       7.06080979      -0.00182410       0.00257979      -0.00315941
