9
Lattice="6.119700842578231 4.120250001268085e-08 3.5332108811148077 2.039900290931358 5.769709454519243 3.533210930953083 1.8241379806801155e-08 7.393777152978581e-08 7.066421730634612" Properties=species:S:1:pos:R:3:forces:R:3 energy=-32.64817810058594 free_energy=-32.64817810058594 stress="0.00010978162754327059 1.0862419408397272e-08 5.664356095280709e-09 1.0862419408397272e-08 0.00010976692283293232 2.830062406644629e-09 5.664356095280709e-09 2.830062406644629e-09 0.00010976006888085976" pbc="T T T"
Cr       2.03990058       1.44242731       3.53321135       0.00000156      -0.00000006       0.00000064
Cr       6.11970093       4.32728221      10.59963182      -0.00000018       0.00000054      -0.00000178
Mg      -0.00000011      -0.00000007      -0.00000024       0.00000050       0.00000113       0.00000131
Br       2.09263671       1.47971787       7.06642172       0.00076628       0.00054161      -0.00000006
Br       6.06696453       4.28999174       7.06642216      -0.00076918      -0.00054295       0.00000059
Br       5.07338227       1.47971758       5.34548744      -0.00038397       0.00054244       0.00066489
Br       3.08621871       4.28999193       8.78735621       0.00038568      -0.00054384      -0.00066601
Br       3.08621846       4.28999178       5.34548736       0.00038385      -0.00054239       0.00066542
Br       5.07338250       1.47971785       8.78735637      -0.00038460       0.00054345      -0.00066488
