9
Lattice="6.07028122508854 2.517887668610097e-08 3.504678506025671 2.0234271058679685 5.723116232047866 3.5046784937288042 2.602483461949495e-09 -1.3220244964386682e-08 7.009357007543707" Properties=species:S:1:pos:R:3:forces:R:3 energy=-39.25998306274414 free_energy=-39.25998306274414 stress="1.5244906535372138e-05 2.663951059744818e-09 -2.237203844401847e-08 2.663951059744818e-09 1.5263654859154485e-05 -8.104442450473925e-09 -2.237203844401847e-08 -8.104442450473925e-09 1.523993159935344e-05" pbc="T T T"
Cr       2.02342687       1.43077912       3.50467840      -0.00000207      -0.00000001       0.00000056
Cr       6.07028102       4.29233681      10.51403419       0.00000007      -0.00000099      -0.00000323
Mn      -0.00000005       0.00000013       0.00000070       0.00000103      -0.00000269      -0.00000881
Br       1.93012107       1.36480162       7.00935704       0.00135029       0.00095425       0.00000114
Br       6.16358725       4.35831473       7.00935733      -0.00134865      -0.00095310       0.00000113
Br       5.10522099       1.36480153       5.17621241      -0.00067528       0.00095525       0.00117087
Br       2.98848779       4.35831443       8.84250177       0.00067419      -0.00095199      -0.00116507
Br       2.98848735       4.35831469       5.17621247       0.00067506      -0.00095476       0.00116972
Br       5.10522111       1.36480190       8.84250174      -0.00067460       0.00095413      -0.00116643
