9
Lattice="5.705208917755068 -2.2821590158140825e-08 3.2939040401821296 1.9017362966408689 5.378922624791568 3.2939040189837017 6.6742977709914895e-09 -2.124324577530264e-08 6.587808068804003" Properties=species:S:1:pos:R:3:forces:R:3 energy=-35.537994384765625 free_energy=-35.537994384765625 stress="0.0001335779670625925 -3.1538743172632167e-08 -4.9340420638088744e-09 -3.1538743172632167e-08 0.00013358895375858992 1.525150850056889e-08 -4.9340420638088744e-09 1.525150850056889e-08 0.00013356053386814892" pbc="T T T"
Cr       1.90173723       1.34473077       3.29390377       0.00000426       0.00000029      -0.00000059
Cr       5.70520897       4.03419178       9.88171355       0.00000033      -0.00000149       0.00001016
Mg      -0.00000011      -0.00000007       0.00000053       0.00000025       0.00000086      -0.00000975
Cl       1.93950979       1.37144080       6.58780789       0.00067482       0.00047987      -0.00000366
Cl       5.66743494       4.00748196       6.58780755      -0.00067821      -0.00047917      -0.00000400
Cl       4.73545382       1.37144087       4.97356901      -0.00033852       0.00048107       0.00058470
Cl       2.87149118       4.00748124       8.20204650       0.00033324      -0.00047585      -0.00058083
Cl       2.87149170       4.00748211       4.97356899       0.00034192      -0.00047933       0.00058547
Cl       4.73545333       1.37144081       8.20204674      -0.00033806       0.00047380      -0.00058161
