9
Lattice="6.565424208365311 -4.730223802372995e-08 3.790549535801906 2.1884747000315703 6.18994127909476 3.7905495210677285 -4.5108152388957084e-08 -4.9941899483409024e-08 7.5810991497334355" Properties=species:S:1:pos:R:3:forces:R:3 energy=-35.20867919921875 free_energy=-35.20867919921875 stress="0.000269861426204443 -4.151068822011439e-09 8.244522287093048e-10 -4.151068822011439e-09 0.00026986791635863483 -6.17026341132032e-09 8.244522287093048e-10 -6.17026341132032e-09 0.0002698630269151181" pbc="T T T"
Cr       2.18847538       1.54748595       3.79054889       0.00000156       0.00000067      -0.00000279
Cr       6.56542323       4.64245505      11.37164760      -0.00000337      -0.00000227      -0.00000225
Mn      -0.00000001       0.00000024       0.00000080      -0.00000108      -0.00000291      -0.00000845
I        2.18007174       1.54154353       7.58109964      -0.00230660      -0.00163100      -0.00000027
I        6.57382654       4.64839753       7.58109949       0.00231163       0.00163335       0.00000019
I        5.47538860       1.54154336       5.67854723       0.00115162      -0.00162861      -0.00199573
I        3.27851160       4.64839700       9.48365057      -0.00115667       0.00163519       0.00200485
I        3.27851069       4.64839772       5.67854752      -0.00115251       0.00162949      -0.00199868
I        5.47538768       1.54154437       9.48365114       0.00115535      -0.00163382       0.00200307
