9
Lattice="6.019880263529657 3.370079210566464e-08 3.4755794890508844 2.006626798922437 5.675597436209854 3.4755794671592004 3.986450051270866e-08 1.3767695353265673e-09 6.951158909054378" Properties=species:S:1:pos:R:3:forces:R:3 energy=-43.37516784667969 free_energy=-43.37516784667969 stress="9.34342824621126e-05 5.024166860323476e-09 -3.3099873952835424e-09 5.024166860323476e-09 9.342847624793649e-05 -3.435315809596773e-09 -3.3099873952835424e-09 -3.435315809596773e-09 9.344221325591207e-05" pbc="T T T"
Cr       2.00662673       1.41889952       3.47557958      -0.00000008       0.00000152       0.00000012
Cr       6.01988064       4.25669785      10.42673832       0.00000282      -0.00000209       0.00000144
Mn       0.00000007      -0.00000003      -0.00000003      -0.00000150      -0.00000083      -0.00000313
Te       2.03682141       1.44025047       6.95115901       0.00075275       0.00053385      -0.00000016
Te       5.98968568       4.23534700       6.95115901      -0.00075109      -0.00053182      -0.00000059
Te       5.00146943       1.44025021       5.23951842      -0.00037742       0.00053371       0.00065145
Te       3.02503742       4.23534740       8.66279911       0.00037514      -0.00053170      -0.00065149
Te       3.02503733       4.23534718       5.23951864       0.00037646      -0.00053409       0.00065278
Te       5.00146973       1.44025029       8.66279934      -0.00037692       0.00053130      -0.00065045
