9
Lattice="5.708775043152651 1.8949720454457586e-08 3.295962741624979 1.9029250384729215 5.382284682263646 3.295962730846903 2.8905285196039398e-08 7.238703569111871e-09 6.591925433184554" Properties=species:S:1:pos:R:3:forces:R:3 energy=-42.07143020629883 free_energy=-42.07143020629883 stress="0.00033272415748797357 -1.3496617157215951e-08 -3.091724876114199e-09 -1.3496617157215951e-08 0.0003326828882563859 -7.718305439219364e-10 -3.091724876114199e-09 -7.718305439219364e-10 0.0003326729347463697" pbc="T T T"
Cr       1.90292498       1.34557112       3.29596321       0.00000060      -0.00000146       0.00000136
Cr       5.70877475       4.03671408       9.88788754      -0.00000228       0.00000159      -0.00000244
Mn       0.00000018       0.00000024       0.00000026      -0.00000367      -0.00000815      -0.00000431
Cl       1.86315407       1.31744869       6.59192558      -0.00325134      -0.00230046      -0.00000061
Cl       5.74854572       4.06483530       6.59192559       0.00326197       0.00230604      -0.00000140
Cl       4.77719826       1.31744836       4.90950092       0.00162350      -0.00229984      -0.00281414
Cl       2.83450263       4.06483625       8.27434949      -0.00162843       0.00230606       0.00282236
Cl       2.83450186       4.06483584       4.90950135      -0.00162636       0.00229955      -0.00281864
Cl       4.77719795       1.31744899       8.27434973       0.00162609      -0.00230337       0.00281803
