9
Lattice="4.7166903384320245 -1.1578643645991107e-07 2.7231825101253517 1.5722299989986717 4.446938043318749 2.723182518175056 2.9550914330443858e-08 3.075446649212489e-08 5.446364969067013" Properties=species:S:1:pos:R:3:forces:R:3 energy=-58.53219985961914 free_energy=-58.53219985961914 stress="-1.9991355657111853e-05 -1.8263908430071751e-07 -8.49160528559878e-08 -1.8263908430071751e-07 -1.9848652300424874e-05 2.1254547277749225e-07 -8.49160528559878e-08 2.1254547277749225e-07 -1.964498733286746e-05" pbc="T T T"
Cr       1.57223316       1.11173604       2.72318226      -0.00000258      -0.00000351      -0.00000013
Cr       4.71669258       3.33520461       8.16954579       0.00000052       0.00000325       0.00000268
Mn      -0.00000072      -0.00000077       0.00000038      -0.00000081       0.00000376      -0.00000277
O        1.52116260       1.07562952       5.44636509      -0.00086796      -0.00062293       0.00000787
O        4.76775635       3.37130850       5.44636508       0.00085616       0.00060970       0.00000715
O        3.95610478       1.07562466       4.04055065       0.00044316      -0.00061643      -0.00075948
O        2.33281446       3.37131222       6.85218029      -0.00043356       0.00061297       0.00074601
O        2.33281350       3.37131295       4.04055116      -0.00043350       0.00062168      -0.00075281
O        3.95610480       1.07562417       6.85217931       0.00043958      -0.00060874       0.00075197
