9
Lattice="6.684347568245256 4.586595720061766e-09 3.8592098502206813 2.2281158583039407 6.302063263675502 3.859209853861626 -1.7993216927327813e-08 -8.26390787714369e-09 7.718419731606542" Properties=species:S:1:pos:R:3:forces:R:3 energy=-28.829153060913086 free_energy=-28.829153060913086 stress="9.778128151083365e-05 -9.613120077744952e-09 3.124098091333849e-09 -9.613120077744952e-09 9.777129889698699e-05 8.603411316698839e-09 3.124098091333849e-09 8.603411316698839e-09 9.777717787073925e-05" pbc="T T T"
Cr       2.22811528       1.57551529       3.85920991      -0.00000106      -0.00000155       0.00000071
Cr       6.68434756       4.72654769      11.57762935       0.00000023       0.00000080      -0.00000167
Mg      -0.00000014       0.00000003       0.00000027       0.00000133      -0.00000145      -0.00000034
I        2.31017526       1.63354044       7.71841969       0.00030430       0.00021472      -0.00000022
I        6.60228847       4.66852305       7.71841983      -0.00030401      -0.00021493       0.00000073
I        5.52926029       1.63354015       5.85988024      -0.00015172       0.00021423       0.00026499
I        3.38320358       4.66852286       9.57695897       0.00015133      -0.00021270      -0.00026290
I        3.38320329       4.66852293       5.85988031       0.00015160      -0.00021484       0.00026293
I        5.52926004       1.63354061       9.57695916      -0.00015204       0.00021569      -0.00026418
