9
Lattice="5.721671126165239 5.3618980073262036e-08 3.3034083595333628 1.9072237442798348 5.394443306490718 3.3034083855043535 4.212377915119953e-10 3.2105698696188985e-08 6.606816718337144" Properties=species:S:1:pos:R:3:forces:R:3 energy=-46.61589050292969 free_energy=-46.61589050292969 stress="0.0003701208916027099 3.598973563612162e-08 4.10423783847591e-09 3.598973563612162e-08 0.0003701243840623647 1.7771711213754315e-08 4.10423783847591e-09 1.7771711213754315e-08 0.00037007915670983493" pbc="T T T"
Cr       1.90722377       1.34860993       3.30340920      -0.00000069      -0.00000552       0.00000456
Cr       5.72167241       4.04583379       9.91022690       0.00000889       0.00000607       0.00000948
Mn       0.00000005      -0.00000004      -0.00000021      -0.00000098      -0.00000094       0.00000388
Se       1.90148917       1.34455573       6.60681623      -0.00344491      -0.00243631      -0.00000189
Se       5.72740557       4.04988769       6.60681635       0.00344434       0.00243744      -0.00000338
Se       4.77092651       1.34455590       4.95014613       0.00172199      -0.00243622      -0.00298384
Se       2.85796739       4.04988794       8.26348659      -0.00172448       0.00243485       0.00297603
Se       2.85796810       4.04988756       4.95014601      -0.00172311       0.00243723      -0.00298268
Se       4.77092655       1.34455507       8.26348670       0.00171910      -0.00243658       0.00297794
