9
Lattice="5.47933990024617 1.55705151091541e-08 3.163498660541655 1.8264467008773453 5.165971789782044 3.163498569120696 -2.4275964820108037e-08 -1.29133027716257e-07 6.326997363130539" Properties=species:S:1:pos:R:3:forces:R:3 energy=-49.88182830810547 free_energy=-49.88182830810547 stress="-5.9073088777950034e-05 -3.0517714577626975e-08 2.463156967280611e-08 -3.0517714577626975e-08 -5.904789941268973e-05 -2.7957545611911883e-08 2.463156967280611e-08 -2.7957545611911883e-08 -5.90553718211595e-05" pbc="T T T"
Cr       1.82644451       1.29149258       3.16349908      -0.00001316      -0.00000216       0.00000427
Cr       5.47933922       3.87447793       9.49049375      -0.00000623      -0.00000466      -0.00001476
Mn       0.00000011      -0.00000014       0.00000013       0.00000066       0.00000431       0.00000068
S        1.80787601       1.27836087       6.32699736      -0.00173444      -0.00122681      -0.00000060
S        5.49791122       3.88761025       6.32699804       0.00173616       0.00122401       0.00000600
S        4.57540246       1.27836146       4.72916523       0.00086999      -0.00122702      -0.00150275
S        2.73038533       3.88761078       7.92482989      -0.00086176       0.00122818       0.00150269
S        2.73038445       3.88761063       4.72916569      -0.00086936       0.00122938      -0.00150120
S        4.57540312       1.27836215       7.92482908       0.00087821      -0.00122488       0.00150585
