9
Lattice="4.699324758928039 2.990761783908044e-08 2.7131562218319263 1.56644163023954 4.430565760969901 2.713156194581556 -4.689553632564192e-08 -6.653492678317937e-08 5.426312524889339" Properties=species:S:1:pos:R:3:forces:R:3 energy=-52.588008880615234 free_energy=-52.588008880615234 stress="0.00019157388305757195 -1.4792277625019778e-08 3.200249665269439e-08 -1.4792277625019778e-08 0.00019149134459439665 4.716383372738164e-08 3.200249665269439e-08 4.716383372738164e-08 0.00019164170953445137" pbc="T T T"
Cr       1.56644188       1.10764369       2.71315681       0.00000178       0.00000532       0.00000080
Cr       4.69932509       3.32292358       8.13946658       0.00000140      -0.00000264      -0.00000542
Mn       0.00000019      -0.00000037       0.00000023      -0.00000202       0.00000377      -0.00000893
F        1.54119658       1.08979025       5.42631257       0.00333855       0.00235669       0.00000015
F        4.72456893       3.34077568       5.42631302      -0.00333371      -0.00235868       0.00000426
F        3.92872619       1.08979142       4.04787130      -0.00166747       0.00235749       0.00288801
F        2.33703983       3.34077391       6.80475344       0.00166418      -0.00235960      -0.00287893
F        2.33703926       3.34077443       4.04787227       0.00166241      -0.00236105       0.00288879
F        3.92872752       1.08979056       6.80475344      -0.00166505       0.00235879      -0.00288873
