9
Lattice="4.762230747492797 6.594429204007805e-08 2.7494753953815994 1.5874102992381416 4.489874583955051 2.7494754163376416 1.0743522849531939e-07 1.0163403377350474e-07 5.498950604679911" Properties=species:S:1:pos:R:3:forces:R:3 energy=-54.86081314086914 free_energy=-54.86081314086914 stress="-4.068802809342742e-05 -3.573221052377562e-09 -2.7591283924266463e-08 -3.573221052377562e-09 -4.055976387462579e-05 -1.2884542321955905e-08 -2.7591283924266463e-08 -1.2884542321955905e-08 -4.06386170652695e-05" pbc="T T T"
Cr       1.58741021       1.12246871       2.74947562      -0.00000031       0.00000030      -0.00000020
Cr       4.76223084       3.36740618       8.24842645      -0.00000033       0.00000072       0.00000155
Nb      -0.00000002      -0.00000003      -0.00000016      -0.00000474       0.00000474      -0.00000575
F        1.62382837       1.14821998       5.49895056       0.00178671       0.00126296      -0.00000001
F        4.72581272       3.34165458       5.49895023      -0.00178558      -0.00126225      -0.00000135
F        3.95031685       1.14821997       4.15575198      -0.00089329       0.00126341       0.00154781
F        2.39932450       3.34165476       6.84214951       0.00089386      -0.00126410      -0.00154853
F        2.39932441       3.34165474       4.15575187       0.00089431      -0.00126517       0.00154927
F        3.95031668       1.14822017       6.84214946      -0.00089034       0.00125965      -0.00154260
