9
Lattice="5.385082975163804 6.521033406157149e-09 3.109079065101195 1.7950276724789962 5.0771049705478895 3.109079051343577 -1.5104043399028094e-09 -1.7917611324664808e-08 6.218158132818502" Properties=species:S:1:pos:R:3:forces:R:3 energy=-45.6765251159668 free_energy=-45.6765251159668 stress="7.060931238811463e-05 2.8453140288320355e-08 6.23430018720228e-09 2.8453140288320355e-08 7.058956543914974e-05 6.402460506205188e-11 6.23430018720228e-09 6.402460506205188e-11 7.061301585054025e-05" pbc="T T T"
Cr       1.79502731       1.26927585       3.10907988      -0.00000280      -0.00000342       0.00000723
Cr       5.38508294       3.80782886       9.32723638      -0.00000150       0.00000110      -0.00000614
Ni      -0.00000014      -0.00000018       0.00000023      -0.00000809       0.00000335       0.00000770
S        1.77149876       1.25263893       6.21815778       0.00135547       0.00095868      -0.00000074
S        5.40861149       3.82446590       6.21815814      -0.00134891      -0.00095293       0.00000237
S        4.49933313       1.25263884       4.64324224      -0.00067660       0.00095096       0.00116777
S        2.68077741       3.82446673       7.79307393       0.00068164      -0.00095987      -0.00117755
S        2.68077728       3.82446593       4.64324243       0.00067410      -0.00095665       0.00117248
S        4.49933443       1.25263907       7.79307387      -0.00067344       0.00095847      -0.00117290
