9
Lattice="4.127833686205178 -4.0837841937050385e-08 2.3832059368045133 1.3759445114084305 3.8917589598672317 2.3832059578622062 -2.1428908776092833e-08 1.0637775687840786e-08 4.766411910724964" Properties=species:S:1:pos:R:3:forces:R:3 energy=-48.598018646240234 free_energy=-48.598018646240234 stress="-0.0008786748512648046 -1.462955001585442e-08 -3.868135678430917e-08 -1.462955001585442e-08 -0.0008787221158854663 1.263303772702784e-07 -3.868135678430917e-08 1.263303772702784e-07 -0.0008787067490629852" pbc="T T T"
Cr       1.37594439       0.97293998       2.38320700       0.00000019      -0.00000006       0.00000361
Cr       4.12783376       2.91881892       7.14961805       0.00000012      -0.00000124      -0.00000062
Ni       0.00000001      -0.00000006      -0.00000022      -0.00000735       0.00000259       0.00000710
O        1.40915272       0.99642189       4.76641236      -0.00609811      -0.00430673       0.00000499
O        4.09462565       2.89533698       4.76641255       0.00610343       0.00430921       0.00000470
O        3.42325651       0.99642194       3.60356748       0.00304832      -0.00431477      -0.00529107
O        2.08052111       2.89533774       5.92925506      -0.00305016       0.00431325       0.00527777
O        2.08052125       2.89533723       3.60356789      -0.00304609       0.00431325      -0.00528395
O        3.42325734       0.99642112       5.92925497       0.00304896      -0.00431578       0.00527678
