9
Lattice="4.636834047831499 5.516703720192894e-08 2.6770773804626042 1.5456114247795596 4.371649128342876 2.6770773397760737 5.718796733989692e-08 -9.392666929206586e-09 5.354154661872731" Properties=species:S:1:pos:R:3:forces:R:3 energy=-45.739742279052734 free_energy=-45.739742279052734 stress="0.0003731644537765533 -5.62955193572634e-09 2.066137483325292e-08 -5.62955193572634e-09 0.0003731462056748569 -2.0427652458465673e-08 2.066137483325292e-08 -2.0427652458465673e-08 0.0003730983007699251" pbc="T T T"
Cr       1.54561030       1.09291319       2.67707732      -0.00000651       0.00000626      -0.00000128
Cr       4.63683335       3.27873759       8.03123147      -0.00000713       0.00000521      -0.00000151
Ni       0.00000007      -0.00000001      -0.00000025       0.00000189      -0.00000145       0.00001235
F        1.53807099       1.08757992       5.35415486       0.00114228       0.00080596       0.00000216
F        4.64437513       3.28406829       5.35415462      -0.00113990      -0.00080953      -0.00000123
F        3.86779879       1.08757971       4.00908611      -0.00056771       0.00080078       0.00098699
F        2.31464727       3.28406915       6.69922382       0.00057478      -0.00080848      -0.00099290
F        2.31464709       3.28406857       4.00908523       0.00057177      -0.00080731       0.00098644
F        3.86779912       1.08758042       6.69922411      -0.00056963       0.00080856      -0.00099118
