9
Lattice="6.88176153395197 2.9251381157354112e-08 3.9731868745376824 2.2939205392516544 6.4881869302544235 3.9731868739212977 -2.0793323247701597e-08 -1.5458038217723497e-08 7.946373785090512" Properties=species:S:1:pos:R:3:forces:R:3 energy=-36.50164794921875 free_energy=-36.50164794921875 stress="0.00011539673141669482 1.0631547198158842e-08 -9.33637167577217e-09 1.0631547198158842e-08 0.00011538090620888397 1.0296548502708447e-08 -9.33637167577217e-09 1.0296548502708447e-08 0.00011538054241100326" pbc="T T T"
Cr       2.29392041       1.62204677       3.97318669       0.00000015      -0.00000006       0.00000005
Cr       6.88176159       4.86614040      11.91956049       0.00000005       0.00000029       0.00000012
Nb       0.00000004       0.00000058       0.00000044      -0.00000021      -0.00000663      -0.00000589
I        2.27146933       1.60617161       7.94637383      -0.00497452      -0.00351820      -0.00000021
I        6.90421220       4.88201509       7.94637382       0.00497974       0.00352060      -0.00000042
I        5.74602694       1.60617131       5.94033685       0.00248609      -0.00351670      -0.00430614
I        3.42965544       4.88201515       9.95241009      -0.00249083       0.00352181       0.00431340
I        3.42965541       4.88201533       5.94033735      -0.00248786       0.00351745      -0.00430888
I        5.74602680       1.60617156       9.95241052       0.00248736      -0.00351857       0.00430793
