9
Lattice="6.4504681503105 -2.7135159019812096e-08 3.724179505807436 2.1501560167711715 6.081559678894493 3.7241795192291494 -1.6160611113279963e-08 5.010958967143699e-09 7.448359039605827" Properties=species:S:1:pos:R:3:forces:R:3 energy=-31.089052200317383 free_energy=-31.089052200317383 stress="7.941608782857656e-05 1.8302227511313163e-09 -1.8620053277018656e-09 1.8302227511313163e-09 7.941471267258748e-05 2.2337460769961126e-09 -1.8620053277018656e-09 2.2337460769961126e-09 7.94160005170852e-05" pbc="T T T"
Cr       2.15015598       1.52038989       3.72417951      -0.00000021       0.00000075      -0.00000029
Cr       6.45046819       4.56117018      11.17253835       0.00000016       0.00000107       0.00000075
Ni      -0.00000001       0.00000002       0.00000010      -0.00000005      -0.00000016      -0.00000006
I        2.15678994       1.52508075       7.44835900      -0.00080951      -0.00057211      -0.00000009
I        6.44383411       4.55647872       7.44835916       0.00081004       0.00057222      -0.00000020
I        5.37207315       1.52508063       5.59201450       0.00040454      -0.00057296      -0.00070086
I        3.22855103       4.55647893       9.30470359      -0.00040489       0.00057216       0.00070073
I        3.22855095       4.55647882       5.59201446      -0.00040472       0.00057238      -0.00070071
I        5.37207325       1.52508066       9.30470366       0.00040467      -0.00057339       0.00070068
