9
Lattice="5.637419893232459 1.8125749093570478e-08 3.2547658296184023 1.8791400136495287 5.315010253142564 3.254765773933684 6.441784308046517e-08 -2.264928746419795e-08 6.509531547661835" Properties=species:S:1:pos:R:3:forces:R:3 energy=-42.701866149902344 free_energy=-42.701866149902344 stress="4.3511616240721196e-05 2.4865006054142214e-08 -1.0792191140751584e-08 2.4865006054142214e-08 4.353830809122883e-05 -7.854239925109141e-09 -1.0792191140751584e-08 -7.854239925109141e-09 4.35277761425823e-05" pbc="T T T"
Cr       1.87913991       1.32875294       3.25476603      -0.00000121       0.00000246       0.00000161
Cr       5.63741879       3.98625847       9.76429832      -0.00000700       0.00000448       0.00000600
Ni       0.00000004      -0.00000008      -0.00000002       0.00000192       0.00000017      -0.00000062
Se       1.89587890       1.34058817       6.50953144       0.00189704       0.00133619      -0.00000114
Se       5.62068143       3.97442181       6.50953126      -0.00189564      -0.00134066      -0.00000313
Se       4.68948099       1.34058840       4.89664462      -0.00094609       0.00134027       0.00164229
Se       2.82707945       3.97442139       8.12241844       0.00094670      -0.00134009      -0.00164056
Se       2.82707976       3.97442147       4.89664424       0.00095163      -0.00134218       0.00163841
Se       4.68948069       1.34058839       8.12241826      -0.00094754       0.00133941      -0.00164264
