9
Lattice="5.971549634962776 -9.875809406218954e-08 3.447675705875018 1.9905164624672433 5.6300309251297955 3.447675687533148 -6.795869129259891e-08 -7.051816376248648e-08 6.895351529457973" Properties=species:S:1:pos:R:3:forces:R:3 energy=-34.53695297241211 free_energy=-34.53695297241211 stress="0.0001256946852663532 -1.8169611593066293e-08 2.1150061257912967e-08 -1.8169611593066293e-08 0.00012571783736348152 2.185736480697642e-09 2.1150061257912967e-08 2.185736480697642e-09 0.00012567271187435836" pbc="T T T"
Cr       1.99051627       1.40750758       3.44767554      -0.00000050      -0.00000028      -0.00000215
Cr       5.97154981       4.22252333      10.34302742      -0.00000009      -0.00000027       0.00000105
Ni       0.00000000      -0.00000007       0.00000017       0.00000090      -0.00000149      -0.00000010
Br       1.95781287       1.38438269       6.89535149       0.00066948       0.00047368      -0.00000075
Br       6.00425320       4.24564807       6.89535140      -0.00067016      -0.00047278       0.00000032
Br       4.99264325       1.38438264       5.14319149      -0.00033496       0.00047289       0.00058034
Br       2.96942270       4.24564801       8.64751145       0.00033447      -0.00047185      -0.00058000
Br       2.96942305       4.24564821       5.14319145       0.00033511      -0.00047269       0.00058064
Br       4.99264296       1.38438254       8.64751133      -0.00033444       0.00047277      -0.00057940
