9
Lattice="6.102207097246657 -8.182692663419105e-10 3.5231109298577503 2.034069037133599 5.7532159993477325 3.5231109203496866 2.574274499759483e-08 6.557862489935242e-09 7.046221815127817" Properties=species:S:1:pos:R:3:forces:R:3 energy=-33.887271881103516 free_energy=-33.887271881103516 stress="0.0001414199941791594 -5.07006259198306e-09 -1.954518547009343e-09 -5.07006259198306e-09 0.00014142082363832742 2.923638220408975e-09 -1.954518547009343e-09 2.923638220408975e-09 0.00014142987492959946" pbc="T T T"
Cr       2.03406896       1.43830418       3.52311110      -0.00000079       0.00000078       0.00000085
Cr       6.10220736       4.31491173      10.56933298       0.00000026      -0.00000001       0.00000144
Pd      -0.00000009      -0.00000005      -0.00000004       0.00000108       0.00000040       0.00000113
Br       2.03114704       1.43623799       7.04622169       0.00086731       0.00061318       0.00000001
Br       6.10512905       4.31697819       7.04622177      -0.00086789      -0.00061422      -0.00000045
Br       5.08663366       1.43623786       5.28213584      -0.00043364       0.00061360       0.00075038
Br       3.04964248       4.31697811       8.81030768       0.00043366      -0.00061369      -0.00075172
Br       3.04964254       4.31697809       5.28213591       0.00043377      -0.00061363       0.00075022
Br       5.08663365       1.43623791       8.81030774      -0.00043382       0.00061362      -0.00075179
