9
Lattice="4.866161119810806 -1.2989743601373735e-07 2.8094795280989495 1.6220536331745643 4.5878604645629 2.809479443160117 -9.856249522700654e-08 -1.7372258638936178e-07 5.618959226913169" Properties=species:S:1:pos:R:3:forces:R:3 energy=-44.70813751220703 free_energy=-44.70813751220703 stress="3.18899801641237e-05 3.346297461348513e-08 2.6881100012587922e-08 3.346297461348513e-08 3.1931329431245103e-05 3.91526171483747e-08 2.6881100012587922e-08 3.91526171483747e-08 3.188238406437449e-05" pbc="T T T"
Cr       1.62205472       1.14696427       2.80948016       0.00000199      -0.00000161       0.00000119
Cr       4.86616160       3.44089565       8.42843799       0.00000225       0.00000141      -0.00000094
Pd       0.00000003       0.00000005      -0.00000038      -0.00000544      -0.00000125       0.00000462
F        1.64217903       1.16119572       5.61895916      -0.00037947      -0.00026847      -0.00000155
F        4.84603499       3.42666486       5.61895928       0.00038262       0.00027243       0.00000005
F        4.04507142       1.16119500       4.23164879       0.00019017      -0.00027101      -0.00032948
F        2.44314264       3.42666529       7.00626948      -0.00019000       0.00026844       0.00032554
F        2.44314289       3.42666405       4.23164788      -0.00019104       0.00026822      -0.00033025
F        4.04507134       1.16119564       7.00627012       0.00018883      -0.00026819       0.00033087
