9
Lattice="3.9551957286601285 1.0575542338981865e-06 2.2835344311219834 1.318399719885811 3.7289968979291057 2.283534177215144 5.626191589643209e-07 8.686156116528495e-08 4.567067887758019" Properties=species:S:1:pos:R:3:forces:R:3 energy=-58.44376754760742 free_energy=-58.44376754760742 stress="0.00015170978440437466 2.0808079170819838e-07 1.0607803346829314e-07 2.0808079170819838e-07 0.00014620734145864844 -1.489729442027965e-07 1.0607803346829314e-07 -1.489729442027965e-07 0.0001504219981143251" pbc="T T T"
Cr       1.31851214       0.93226921       2.28359046       0.00203879       0.00040712       0.00088196
Cr       3.95532703       2.79672296       6.85066073       0.00226172      -0.00019733       0.00090198
P        0.00000797       0.00001905      -0.00001366      -0.00375928      -0.00310174       0.00093948
O        1.39712305       0.98797576       4.56704564       0.00045431       0.00099251      -0.00028950
O        3.87637843       2.74101958       4.56704675       0.00259221       0.00211048      -0.00027154
O        3.25654843       0.98795461       3.49350606      -0.00039354      -0.00098541      -0.00132546
O        2.01696520       2.74104608       5.64058979      -0.00112510       0.00047305       0.00040105
O        2.01696469       2.74104531       3.49352339      -0.00143865       0.00093099      -0.00142542
O        3.25655708       0.98793889       5.64059059      -0.00063163      -0.00062928       0.00018817
