9
Lattice="5.591480300416027 4.7555016058095985e-09 3.228242591336451 1.863826773386432 5.271698189528665 3.2282425877033525 4.993387396822841e-08 3.0858986071085904e-08 6.456485096184893" Properties=species:S:1:pos:R:3:forces:R:3 energy=-42.10660171508789 free_energy=-42.10660171508789 stress="-0.00018162536434829235 3.517787305895581e-08 4.0284766633646996e-09 3.517787305895581e-08 -0.00018167296366300434 -1.2693271322916644e-08 4.0284766633646996e-09 -1.2693271322916644e-08 -0.00018168195674661547" pbc="T T T"
Cr       1.86382782       1.31792474       3.22824181       0.00000690      -0.00000055      -0.00000364
Cr       5.59148021       3.95377389       9.68472870      -0.00000093       0.00000293       0.00000600
P        0.00000001      -0.00000011       0.00000002      -0.00000177       0.00000311      -0.00000192
Se       1.86389769       1.31797445       6.45648546      -0.00271651      -0.00192152       0.00000129
Se       5.59140918       3.95372366       6.45648468       0.00271541       0.00192192      -0.00000316
Se       4.65953128       1.31797448       4.84242509       0.00135596      -0.00191925      -0.00235209
Se       2.79577540       3.95372339       8.07054516      -0.00135908       0.00191773       0.00235149
Se       2.79577574       3.95372381       4.84242502      -0.00135507       0.00191827      -0.00235063
Se       4.65953117       1.31797460       8.07054514       0.00135502      -0.00192268       0.00235280
