9
Lattice="5.761467045858487 8.792527732128861e-08 3.326384526374497 1.9204890466119777 5.4319632781983875 3.3263846156979766 -5.335437424077301e-08 7.167125226761983e-08 6.652769145161445" Properties=species:S:1:pos:R:3:forces:R:3 energy=-36.03807830810547 free_energy=-36.03807830810547 stress="0.0003953749837819487 2.6761426852317527e-08 3.1189390625741e-08 2.6761426852317527e-08 0.00039530894719064236 -3.0265461248291103e-09 3.1189390625741e-08 -3.0265461248291103e-09 0.00039534340612590313" pbc="T T T"
Cr       1.92048934       1.35799077       3.32638504       0.00000242       0.00000088       0.00000089
Cr       5.76146717       4.07397264       9.97915419      -0.00000123      -0.00000063       0.00000348
Pd      -0.00000027      -0.00000001      -0.00000029       0.00000303      -0.00000210       0.00000953
Cl       1.91292392       1.35264158       6.65276901      -0.00025995      -0.00018407       0.00000052
Cl       5.76903200       4.07932196       6.65276905       0.00025934       0.00018365      -0.00000014
Cl       4.80500512       1.35264153       4.98302486       0.00012902      -0.00018265      -0.00022730
Cl       2.87695058       4.07932205       8.32251311      -0.00013013       0.00018105       0.00022243
Cl       2.87695117       4.07932192       4.98302508      -0.00013066       0.00018565      -0.00022988
Cl       4.80500515       1.35264139       8.32251312       0.00012799      -0.00018174       0.00022060
