9
Lattice="5.467453118905788 3.704084214219381e-08 3.1566355574057936 1.822484467726923 5.154764333097666 3.156635453767027 1.425179542665792e-08 -1.1685353347822192e-07 6.313271090126731" Properties=species:S:1:pos:R:3:forces:R:3 energy=-45.74433135986328 free_energy=-45.74433135986328 stress="7.06365881342208e-06 6.945127584145894e-09 -1.892962231409001e-09 6.945127584145894e-09 6.98657686371007e-06 8.16224421384959e-09 -1.892962231409001e-09 8.16224421384959e-09 7.065723366395105e-06" pbc="T T T"
Cr       1.82248475       1.28869018       3.15663490       0.00000126      -0.00000789      -0.00000807
Cr       5.46745374       3.86607445       9.46990723       0.00000550       0.00001169       0.00000240
P        0.00000007       0.00000010      -0.00000021      -0.00000206      -0.00000120      -0.00000193
S        1.75442618       1.24056631       6.31327210      -0.00110042      -0.00078130       0.00000425
S        5.53551156       3.91419763       6.31327090       0.00110340       0.00078130       0.00000004
S        4.59023940       1.24056557       4.67601332       0.00054759      -0.00078523      -0.00095057
S        2.69969690       3.91419815       7.95052839      -0.00055581       0.00078338       0.00095129
S        2.69969812       3.91419837       4.67601279      -0.00054729       0.00078368      -0.00095093
S        4.59023974       1.24056617       7.95052887       0.00054783      -0.00078434       0.00095391
