9
Lattice="6.551802595623661 -2.2134608800448503e-09 3.7826849924352883 2.1839341782783324 6.177098754582903 3.7826850239170913 1.7858376151695569e-09 3.9819953415393405e-08 7.565369981777399" Properties=species:S:1:pos:R:3:forces:R:3 energy=-30.845212936401367 free_energy=-30.845212936401367 stress="8.967066241893917e-05 1.1062888383150948e-08 2.2157615742202097e-09 1.1062888383150948e-08 8.967080793809146e-05 3.595007277978901e-11 2.2157615742202097e-09 3.595007277978901e-11 8.96630808711052e-05" pbc="T T T"
Cr       2.18393411       1.54427468       3.78268484       0.00000026       0.00000053      -0.00000080
Cr       6.55180263       4.63282443      11.34805531      -0.00000086       0.00000098      -0.00000008
Pd       0.00000009       0.00000008       0.00000026      -0.00000004      -0.00000137      -0.00000132
I        2.20705750       1.56062516       7.56537001       0.00026580       0.00018788      -0.00000036
I        6.52867924       4.61647337       7.56536990      -0.00026459      -0.00018743       0.00000044
I        5.44827397       1.56062527       5.69405278      -0.00013354       0.00018829       0.00023099
I        3.28746301       4.61647334       9.43668699       0.00013288      -0.00018821      -0.00022951
I        3.28746284       4.61647360       5.69405286       0.00013345      -0.00018841       0.00023124
I        5.44827372       1.56062525       9.43668704      -0.00013335       0.00018773      -0.00023051
