9
Lattice="4.351146313093157 -1.4605048370865047e-07 2.5121358748453515 1.4503820395840814 4.102299626392604 2.512135748548649 1.1203018368225724e-07 -7.546392022639406e-08 5.024271555648768" Properties=species:S:1:pos:R:3:forces:R:3 energy=-55.54277420043945 free_energy=-55.54277420043945 stress="-0.00012412630894687027 -1.327061909250915e-07 -2.2276825717426618e-08 -1.327061909250915e-07 -0.00012364474241621792 -9.29399632809691e-08 -2.2276825717426618e-08 -9.29399632809691e-08 -0.00012395979138091207" pbc="T T T"
Cr       1.45038581       1.02557473       2.51213875       0.00001669      -0.00000058       0.00001604
Cr       4.35114783       3.07672264       7.53640852       0.00000933      -0.00001061       0.00000644
S       -0.00000020      -0.00000048       0.00000104      -0.00000311       0.00001375      -0.00002769
O        1.34597097       0.95174487       5.02427018       0.00048816       0.00033569      -0.00000035
O        4.45555668       3.15055412       5.02427174      -0.00050139      -0.00033820       0.00000477
O        3.67815920       0.95174639       3.67778058      -0.00023866       0.00033736       0.00041187
O        2.12336527       3.15055388       6.37076017       0.00023532      -0.00033951      -0.00041163
O        2.12336771       3.15055401       3.67778101       0.00024098      -0.00033593       0.00040889
O        3.67816064       0.95174675       6.37076202      -0.00024825       0.00033772      -0.00040591
