9
Lattice="5.850141801298684 2.3717144584634905e-08 3.3775810718323545 1.9500472767656527 5.515567192596619 3.3775810938201354 -1.4883291997299535e-08 1.6405322752650796e-08 6.755162169443326" Properties=species:S:1:pos:R:3:forces:R:3 energy=-32.53383255004883 free_energy=-32.53383255004883 stress="-1.1953489774896298e-05 3.1156992541525597e-09 1.0137701345058758e-08 3.1156992541525597e-09 -1.1965757948928513e-05 2.9296145509505322e-09 1.0137701345058758e-08 2.9296145509505322e-09 -1.1962374628637917e-05" pbc="T T T"
Cr       1.95004680       1.37889239       3.37758086      -0.00000048       0.00000456      -0.00000153
Cr       5.85014156       4.13667522      10.13274236      -0.00000297      -0.00000035      -0.00000689
S        0.00000021      -0.00000009      -0.00000001      -0.00000002      -0.00000108      -0.00000073
Cl       1.95485494       1.38229117       6.75516237      -0.00109300      -0.00077255       0.00000165
Cl       5.84533438       4.13327616       6.75516256       0.00109255       0.00077030       0.00000374
Cl       4.87271446       1.38229100       5.07053532       0.00054798      -0.00077423      -0.00094464
Cl       2.92747480       4.13327585       8.43978964      -0.00054550       0.00077243       0.00094864
Cl       2.92747464       4.13327574       5.07053475      -0.00054671       0.00077249      -0.00094864
Cl       4.87271441       1.38229147       8.43978941       0.00054795      -0.00077179       0.00094834
