9
Lattice="2.571428305580328 0.12222453770595045 1.039285117253423 -0.1477788842412816 2.4679168453474993 2.2905030618448365 -0.6705314925208613 1.061076609839095 3.4718773366789533" Properties=species:S:1:pos:R:3:forces:R:3 energy=-120616714240.0 free_energy=-120616714240.0 stress="0.0 188492944.0 -2309220096.0 188492944.0 0.0 -653593344.0 -2309220096.0 -653593344.0 0.0" pbc="T T T"
Cr      -1.44462387       0.87927677       0.79010690 2152285184.00000000 -28341104640.00000000 27041873920.00000000
Cr       1.12923328       3.28864411       4.33995915 -84370898944.00000000 35644329984.00000000 -8184689152.00000000
Si       1.17167773      -0.62048776      -2.39519280 104522604544.00000000 -176548773888.00000000 -98944507904.00000000
O       -0.35173694       3.96361508       6.74413621 -74999595008.00000000 -327828832256.00000000 -39601520640.00000000
O        0.66892588       1.93447096       1.74072192 -7582764544.00000000 -10911985664.00000000 -3049537536.00000000
O        1.70289771       2.09873109       1.59925334 -41431777280.00000000 -47579312128.00000000 -39214751744.00000000
O       -1.05757011       3.77934894       5.03892229 32836165632.00000000 -5030769664.00000000 -6563562496.00000000
O        1.12178608       0.57150070       2.86316456 48463527936.00000000 46426050560.00000000 -25188343808.00000000
O        0.31901283       2.88587469       3.30811444 20410466304.00000000 514170355712.00000000 193704919040.00000000
