9
Lattice="5.8857789733495345 -5.987244524300323e-08 3.3981560324886226 1.9619262566663977 5.549165599823986 3.398156052121782 -8.145437572350903e-08 -3.355137468966184e-08 6.796312206060401" Properties=species:S:1:pos:R:3:forces:R:3 energy=-42.72222900390625 free_energy=-42.72222900390625 stress="8.063943823799491e-05 -7.966391990521515e-09 1.0936040517606216e-08 -7.966391990521515e-09 8.06264069979079e-05 1.051977172039642e-08 1.0936040517606216e-08 1.051977172039642e-08 8.066444570431486e-05" pbc="T T T"
Cr       1.96192610       1.38729125       3.39815636      -0.00000119       0.00000017       0.00000161
Cr       5.88577844       4.16187383      10.19446846      -0.00000245      -0.00000123       0.00000254
Sc       0.00000005       0.00000038      -0.00000046       0.00000050      -0.00000564       0.00000384
Cl       1.99545789       1.41100188       6.79631219       0.00097108       0.00068702      -0.00000086
Cl       5.85224706       4.13816323       6.79631180      -0.00096656      -0.00068493      -0.00000073
Cl       4.88804959       1.41100226       5.12627338      -0.00048462       0.00068410       0.00083671
Cl       2.95965535       4.13816405       8.46635082       0.00048600      -0.00068439      -0.00083843
Cl       2.95965600       4.13816354       5.12627383       0.00048292      -0.00068183       0.00083477
Cl       4.88805015       1.41100160       8.46635078      -0.00048576       0.00068670      -0.00083958
