9
Lattice="6.625001269367176 -8.617640671723823e-08 3.824946226411554 2.208333685151516 6.2461110869531895 3.8249462091886235 -4.168651479271488e-08 -5.057055151371843e-08 7.649892525026315" Properties=species:S:1:pos:R:3:forces:R:3 energy=-27.52552604675293 free_energy=-27.52552604675293 stress="1.2662675317187677e-06 1.873367239113577e-08 -4.945824638724616e-09 1.873367239113577e-08 1.2436314591468545e-06 -3.6263281266712966e-09 -4.945824638724616e-09 -3.6263281266712966e-09 1.2972442391401273e-06" pbc="T T T"
Cr       2.20833381       1.56152791       3.82494652       0.00000039      -0.00000033       0.00000125
Cr       6.62500107       4.68458349      11.47483837      -0.00000039       0.00000185      -0.00000052
S       -0.00000000       0.00000023       0.00000017       0.00000078       0.00000106       0.00000070
I        2.33916822       1.65404136       7.64989236      -0.00064862      -0.00045965      -0.00000051
I        6.49416674       4.59206943       7.64989241       0.00064825       0.00045881       0.00000005
I        5.45541716       1.65404147       5.85072521       0.00032383      -0.00045967      -0.00056086
I        3.37791776       4.59206950       9.44905985      -0.00032343       0.00045967       0.00056058
I        3.37791760       4.59206904       5.85072508      -0.00032514       0.00045795      -0.00056087
I        5.45541728       1.65404138       9.44905981       0.00032432      -0.00045969       0.00056014
