9
Lattice="3.9064696743642298 -8.239883833625238e-08 2.255401284697239 1.3021563158212561 3.6830549604455873 2.2554015698167245 -1.6721526390789423e-07 2.3095965459175497e-07 4.510802859019645" Properties=species:S:1:pos:R:3:forces:R:3 energy=-46.810855865478516 free_energy=-46.810855865478516 stress="-0.00022726421593688428 2.5858255980892864e-07 7.97458952206398e-08 2.5858255980892864e-07 -0.00022815496777184308 5.546339139073098e-07 7.97458952206398e-08 5.546339139073098e-07 -0.00022799239377491176" pbc="T T T"
Cr       1.30215668       0.92076403       2.25540139      -0.00002025      -0.00000012      -0.00000118
Cr       3.90646925       2.76229117       6.76620411       0.00001157      -0.00000014       0.00001745
S       -0.00000067      -0.00000000       0.00000034       0.00000887       0.00000025      -0.00000388
F        1.28727946       0.91024424       4.51080280       0.00193679       0.00136894      -0.00000036
F        3.92134657       2.77281092       4.51080285      -0.00193986      -0.00137368      -0.00000098
F        3.26282884       0.91024544       3.37021979      -0.00095861       0.00136596       0.00167984
F        1.94579707       2.77280946       5.65138576       0.00096063      -0.00136134      -0.00167921
F        1.94579685       2.77281005       3.37021946       0.00096531      -0.00136313       0.00167498
F        3.26282918       0.91024507       5.65138633      -0.00096500       0.00136289      -0.00168648
