9
Lattice="4.920764997673809 1.6065398010786878e-08 2.8410046637760793 1.6402549290715152 4.639341642626386 2.841004811519466 -3.3635595342342167e-07 -5.6891635628737056e-08 5.68200991013781" Properties=species:S:1:pos:R:3:forces:R:3 energy=-55.05009841918945 free_energy=-55.05009841918945 stress="0.0004895927268080413 2.5186144725353188e-08 1.5472355840984164e-08 2.5186144725353188e-08 0.0004896692698821425 2.532549459033362e-08 1.5472355840984164e-08 2.532549459033362e-08 0.0004895736929029226" pbc="T T T"
Cr       1.64025349       1.15983381       2.84100615      -0.00000283      -0.00000223       0.00000083
Cr       4.92076298       3.47950577       8.52301395      -0.00000382      -0.00000237      -0.00000031
Sc       0.00000014       0.00000018      -0.00000028       0.00000320      -0.00000239       0.00000840
F        1.64004178       1.15968445       5.68200899       0.00380953       0.00269243      -0.00000179
F        4.92097841       3.47965755       5.68201044      -0.00381223      -0.00269527       0.00000130
F        4.10074484       1.15968488       4.26132214      -0.00190291       0.00269634       0.00330131
F        2.46027572       3.47965787       7.10269658       0.00190768      -0.00269311      -0.00330343
F        2.46027667       3.47965731       4.26132196       0.00190687      -0.00269080       0.00329700
F        4.10074424       1.15968488       7.10269707      -0.00190547       0.00269739      -0.00330316
