9
Lattice="5.610941447051388 -8.461754758530828e-08 3.239478477835608 1.870313799068653 5.290046136493344 3.2394783684339905 8.489132208468218e-08 -7.396177301922191e-08 6.478956808634989" Properties=species:S:1:pos:R:3:forces:R:3 energy=-40.5065803527832 free_energy=-40.5065803527832 stress="-9.571717964718118e-05 8.085503933052962e-10 1.195098864315014e-08 8.085503933052962e-10 -9.571987175149843e-05 1.7233003912764389e-09 1.195098864315014e-08 1.7233003912764389e-09 -9.560142643749714e-05" pbc="T T T"
Cr       1.87031442       1.32251307       3.23947869       0.00000313       0.00001366       0.00000252
Cr       5.61093966       3.96753250       9.71843589      -0.00001286      -0.00001319       0.00000760
Se      -0.00000022       0.00000033       0.00000011       0.00000506      -0.00000239       0.00000319
S        1.85461161       1.31140844       6.47895690       0.00252730       0.00178844      -0.00000006
S        5.62664443       3.97863712       6.47895636      -0.00252753      -0.00179440      -0.00000526
S        4.68363583       1.31140952       4.84561823      -0.00126252       0.00179660       0.00218374
S        2.79762000       3.97863739       8.11229538       0.00126651      -0.00178963      -0.00218403
S        2.79762009       3.97863660       4.84561755       0.00126547      -0.00179231       0.00217944
S        4.68363574       1.31140882       8.11229546      -0.00126502       0.00179332      -0.00218713
