9
Lattice="5.674670762575678 -8.90078470587395e-08 3.276272710318572 1.8915568789605048 5.350130731266323 3.2762726375388747 4.889248069873422e-08 -5.456436013088289e-08 6.552545335952841" Properties=species:S:1:pos:R:3:forces:R:3 energy=-41.96686935424805 free_energy=-41.96686935424805 stress="-2.6518242520978674e-05 -1.8063628814957156e-08 1.443158037517378e-08 -1.8063628814957156e-08 -2.642185972945299e-05 1.5318319057655572e-08 1.443158037517378e-08 1.5318319057655572e-08 -2.646348366397433e-05" pbc="T T T"
Cr       1.89155826       1.33753193       3.27627273       0.00000837      -0.00000723       0.00000222
Cr       5.67466993       4.01259910       9.82881758      -0.00000625       0.00000850      -0.00000328
Si       0.00000010       0.00000003       0.00000014      -0.00000066      -0.00000082      -0.00000274
Se       1.92597009       1.36186560       6.55254524      -0.00326004      -0.00231115      -0.00000198
Se       5.64025745       3.98826485       6.55254519       0.00326075       0.00231152       0.00000028
Se       4.71168537       1.36186589       4.94421162       0.00162758      -0.00230995      -0.00282647
Se       2.85454231       3.98826423       8.16087945      -0.00162966       0.00231117       0.00282967
Se       2.85454200       3.98826445       4.94421164      -0.00163058       0.00230860      -0.00282722
Se       4.71168529       1.36186626       8.16087914       0.00163049      -0.00231059       0.00282955
