9
Lattice="6.178197316018572 -5.553570326475347e-08 3.5669838711391293 2.059399086150789 5.824860042230456 3.5669838136855665 7.72670478299378e-08 -1.5729916375854954e-08 7.133967608447775" Properties=species:S:1:pos:R:3:forces:R:3 energy=-38.185508728027344 free_energy=-38.185508728027344 stress="0.0002829803270287812 6.8685972465232226e-09 1.9057588840354356e-09 6.8685972465232226e-09 0.00028298606048338115 -1.1258382670575884e-08 1.9057588840354356e-09 -1.1258382670575884e-08 0.00028296816162765026" pbc="T T T"
Cr       2.05939854       1.45621477       3.56698343      -0.00000154      -0.00000063      -0.00000214
Cr       6.17819708       4.36864543      10.70095217      -0.00000295       0.00000332       0.00000583
Si       0.00000019       0.00000018       0.00000020      -0.00000074      -0.00000026      -0.00000016
Te       2.11249156       1.49375653       7.13396782       0.00409922       0.00289538       0.00000194
Te       6.12510507       4.33110316       7.13396720      -0.00409762      -0.00289664      -0.00000301
Te       5.12195187       1.49375703       5.39645505      -0.00204693       0.00289886       0.00354949
Te       3.11564497       4.33110315       8.87148017       0.00204891      -0.00289742      -0.00354919
Te       3.11564501       4.33110301       5.39645492       0.00205093      -0.00289735       0.00354744
Te       5.12195167       1.49375659       8.87148020      -0.00204919       0.00289470      -0.00355006
