9
Lattice="4.434376524784107 -4.025531558351033e-09 2.5601881433701017 1.4781254783550635 4.180770188884102 2.5601881885956335 9.02868358298259e-08 1.1923218404533005e-07 5.120376130358795" Properties=species:S:1:pos:R:3:forces:R:3 energy=-51.883914947509766 free_energy=-51.883914947509766 stress="-0.0003160904161632061 1.3130318166076904e-07 -1.9926880145959558e-09 1.3130318166076904e-07 -0.00031602641684003174 6.700351207200583e-08 -1.9926880145959558e-09 6.700351207200583e-08 -0.00031627266434952617" pbc="T T T"
Cr       1.47812745       1.04519512       2.56018910       0.00001845       0.00003009       0.00002096
Cr       4.43437302       3.13557551       7.68056283      -0.00003598      -0.00002476      -0.00000344
Se      -0.00000040       0.00000078       0.00000470       0.00000238      -0.00001304      -0.00005374
O        1.44654147       1.02285683       5.12037501      -0.00146663      -0.00106454      -0.00000233
O        4.46596119       3.15791281       5.12037484       0.00148201       0.00106537      -0.00001189
O        3.71110776       1.02285825       3.81292824       0.00073427      -0.00102663      -0.00126219
O        2.20139471       3.15791207       6.42782356      -0.00075424       0.00105619       0.00129592
O        2.20139487       3.15790961       3.81292618      -0.00073260       0.00100863      -0.00128543
O        3.71110827       1.02286072       6.42782554       0.00075263      -0.00103033       0.00130033
