9
Lattice="6.859626132913966 3.391227404263349e-08 3.9604069507721915 2.2865420747662566 6.467317503256954 3.960406953389631 1.4795041433940653e-08 1.3667394260030554e-08 7.920813875918642" Properties=species:S:1:pos:R:3:forces:R:3 energy=-35.50035095214844 free_energy=-35.50035095214844 stress="4.625988003681414e-05 1.6662202284578598e-08 -2.904768869882446e-09 1.6662202284578598e-08 4.624126086127944e-05 2.2514966280251514e-10 -2.904768869882446e-09 2.2514966280251514e-10 4.622984124580398e-05" pbc="T T T"
Cr       2.28654186       1.61682943       3.96040689      -0.00000032       0.00000022       0.00000009
Cr       6.85962624       4.85048824      11.88122123      -0.00000005      -0.00000005       0.00000015
Sc       0.00000028      -0.00000020      -0.00000066      -0.00000367      -0.00000004       0.00000564
I        2.31904123       1.63980971       7.92081379      -0.00033121      -0.00023435       0.00000012
I        6.82712691       4.82750768       7.92081371       0.00033388       0.00023594       0.00000022
I        5.70010544       1.63981004       5.96875557       0.00016650      -0.00023563      -0.00028831
I        3.44606252       4.82750807       9.87287259      -0.00016333       0.00023160       0.00028432
I        3.44606273       4.82750773       5.96875549      -0.00016612       0.00023491      -0.00028725
I        5.70010570       1.63980949       9.87287256       0.00016434      -0.00023262       0.00028515
