9
Lattice="5.051479483093751 -1.5709222288141462e-07 2.916473218656817 1.6838262876330659 4.7625806922055824 2.9164733201957844 -2.81281118927064e-07 -7.453655904565966e-08 5.832946924506869" Properties=species:S:1:pos:R:3:forces:R:3 energy=-55.78054428100586 free_energy=-55.78054428100586 stress="3.0010960472282022e-05 1.7718582157044693e-08 2.6578446110647747e-08 1.7718582157044693e-08 3.001352888531983e-05 1.6418512771565474e-08 2.6578446110647747e-08 1.6418512771565474e-08 3.0046230676816776e-05" pbc="T T T"
Cr       1.68382664       1.19064543       2.91647363       0.00000011       0.00000010      -0.00000109
Cr       5.05147968       3.57193609       8.74941957       0.00000085       0.00000039      -0.00000003
Ti       0.00000012      -0.00000048      -0.00000022      -0.00000096       0.00000511      -0.00000012
F        1.56926942       1.10964183       5.83294750       0.00092137       0.00065087      -0.00000062
F        5.16603599       3.65293840       5.83294685      -0.00092216      -0.00065246       0.00000026
F        4.26684400       1.10964046       4.27550103      -0.00046220       0.00065081       0.00079772
F        2.46846105       3.65293954       7.39039191       0.00046202      -0.00065194      -0.00079824
F        2.46846149       3.65293930       4.27550119       0.00046176      -0.00065361       0.00079870
F        4.26684369       1.10964121       7.39039244      -0.00046095       0.00065063      -0.00079650
