9
Lattice="6.180797185920864 7.688771445165549e-08 3.568484898254245 2.0602658055403342 5.827311449101431 3.568484890616507 -1.3969079350563393e-08 -1.923185400004051e-08 7.13696982070363" Properties=species:S:1:pos:R:3:forces:R:3 energy=-39.878013610839844 free_energy=-39.878013610839844 stress="0.00019720876298379153 -6.427092635874487e-09 -6.795999318853774e-09 -6.427092635874487e-09 0.00019720933050848544 -6.9490466714228205e-09 -6.795999318853774e-09 -6.9490466714228205e-09 0.0001972253230633214" pbc="T T T"
Cr       2.06026591       1.45682766       3.56848534       0.00000173      -0.00000075       0.00000096
Cr       6.18079760       4.37048401      10.70545406       0.00000019       0.00000044      -0.00000284
Ti       0.00000002      -0.00000006      -0.00000043      -0.00000036      -0.00000091       0.00000273
Br       2.03994252       1.44245719       7.13696961       0.00019759       0.00013970       0.00000004
Br       6.20112042       4.38485433       7.13697001      -0.00019727      -0.00013910       0.00000062
Br       5.16082565       1.44245720       5.33512708      -0.00009865       0.00013867       0.00017110
Br       3.08023703       4.38485436       8.93881282       0.00009900      -0.00014040      -0.00017126
Br       3.08023694       4.38485411       5.33512713       0.00009737      -0.00013771       0.00016980
Br       5.16082592       1.44245720       8.93881282      -0.00009966       0.00014002      -0.00017118
