9
Lattice="5.8461360495390355 1.7833397150095733e-08 3.3752682540644754 1.948711973019699 5.5117902245996895 3.375268358518949 -1.538928518115565e-07 1.9111377743706187e-08 6.750536774679152" Properties=species:S:1:pos:R:3:forces:R:3 energy=-43.16549301147461 free_energy=-43.16549301147461 stress="0.00019185330893378705 1.1115258935490147e-08 -1.282671213687081e-08 1.1115258935490147e-08 0.00019190830062143505 -5.477001518983116e-09 -1.282671213687081e-08 -5.477001518983116e-09 0.00019191857427358627" pbc="T T T"
Cr       1.94871175       1.37794712       3.37526816      -0.00000149      -0.00000126      -0.00000172
Cr       5.84613608       4.13384275      10.12580431       0.00000135       0.00000221      -0.00000482
Ti      -0.00000002       0.00000004       0.00000020       0.00000061       0.00000372      -0.00000133
Cl       1.92001937       1.35765854       6.75053717      -0.00069208      -0.00048877      -0.00000174
Cl       5.87482907       4.15413165       6.75053707       0.00068776       0.00048818       0.00000022
Cl       4.88612639       1.35765847       5.03805401       0.00034415      -0.00048853      -0.00059845
Cl       2.90872175       4.15413128       8.46301947      -0.00034432       0.00049010       0.00059907
Cl       2.90872099       4.15413205       5.03805345      -0.00034332       0.00048483      -0.00059313
Cl       4.88612611       1.35765912       8.46301962       0.00034742      -0.00049052       0.00060205
