9
Lattice="6.797529540126767 -6.097586331179124e-08 3.9245555588508587 2.265843134652022 6.408772178016473 3.924555537895901 5.2715168789448286e-08 1.1610756078970174e-08 7.84911102639636" Properties=species:S:1:pos:R:3:forces:R:3 energy=-35.63246154785156 free_energy=-35.63246154785156 stress="0.00011281020124442875 -1.648554714961392e-08 9.537848288942996e-10 -1.648554714961392e-08 0.00011282733612461016 3.3152507405986853e-09 9.537848288942996e-10 3.3152507405986853e-09 0.00011282808554824442" pbc="T T T"
Cr       2.26584302       1.60219298       3.92455552       0.00000053      -0.00000043      -0.00000028
Cr       6.79752960       4.80657917      11.77366676      -0.00000064      -0.00000017       0.00000018
Ti      -0.00000034       0.00000003       0.00000006       0.00000374      -0.00000027       0.00000026
I        2.23599833       1.58108953       7.84911112      -0.00202947      -0.00143594      -0.00000034
I        6.82737462       4.82768280       7.84911113       0.00202812       0.00143289       0.00000013
I        5.67953036       1.58108973       5.86098676       0.00101492      -0.00143528      -0.00175731
I        3.38384257       4.82768217       9.83723494      -0.00101640       0.00143754       0.00175975
I        3.38384261       4.82768231       5.86098713      -0.00101596       0.00143642      -0.00175939
I        5.67953014       1.58108978       9.83723505       0.00101514      -0.00143479       0.00175697
