9
Lattice="6.631092177551603 4.191371902373081e-08 3.8284628991775835 2.2103640914478486 6.2518537543960315 3.8284629117394484 -1.4634244500175932e-08 5.0371119416642975e-09 7.656925823702402" Properties=species:S:1:pos:R:3:forces:R:3 energy=-35.652008056640625 free_energy=-35.652008056640625 stress="0.0002385976113146171 1.6089026777521553e-09 -3.5127365460851934e-09 1.6089026777521553e-09 0.00023859347857069224 2.369119900258454e-10 -3.5127365460851934e-09 2.369119900258454e-10 0.00023859408975113183" pbc="T T T"
Cr       2.21036407       1.56296347       3.82846283       0.00000017       0.00000021      -0.00000014
Cr       6.63109227       4.68889039      11.48538895      -0.00000000      -0.00000001      -0.00000002
V        0.00000016      -0.00000001      -0.00000007      -0.00000147       0.00000004       0.00000198
I        2.18942813       1.54815943       7.65692576      -0.00083421      -0.00058979       0.00000020
I        6.65202819       4.70369426       7.65692548       0.00083566       0.00059033       0.00000079
I        5.53637788       1.54815964       5.72456337       0.00041824      -0.00059133      -0.00072365
I        3.30507797       4.70369445       9.58928854      -0.00041687       0.00058922       0.00072204
I        3.30507823       4.70369419       5.72456333      -0.00041794       0.00059064      -0.00072308
I        5.53637812       1.54815942       9.58928835       0.00041636      -0.00058926       0.00072195
