9
Lattice="4.736693848802574 2.059739316737467e-08 2.7347315660552156 1.5788979498188636 4.465797934622704 2.734731599312993 -7.264211147784828e-08 -1.0633434303134167e-08 5.469463257930255" Properties=species:S:1:pos:R:3:forces:R:3 energy=-53.73031997680664 free_energy=-53.73031997680664 stress="0.00013702723663300276 -6.619327308499123e-09 4.377981088765637e-09 -6.619327308499123e-09 0.00013702204159926623 1.004881422517201e-08 4.377981088765637e-09 1.004881422517201e-08 0.00013706697791349143" pbc="T T T"
Cr       1.57889708       1.11645028       2.73473111      -0.00000227       0.00000205      -0.00000183
Cr       4.73669384       3.34934854       8.20419389       0.00000042       0.00000105      -0.00000184
V        0.00000025      -0.00000004      -0.00000003      -0.00000507      -0.00000162      -0.00000226
F        1.56339902       1.10549007       5.46946347       0.00269537       0.00190501       0.00000016
F        4.75219279       3.36030760       5.46946340      -0.00269163      -0.00190474       0.00000146
F        3.95499461       1.10548985       4.08867547      -0.00134566       0.00190390       0.00233389
F        2.36059745       3.36030757       6.85025179       0.00134714      -0.00190458      -0.00233116
F        2.36059733       3.36030779       4.08867512       0.00134731      -0.00190543       0.00233233
F        3.95499452       1.10549015       6.85025162      -0.00134560       0.00190448      -0.00233077
