9
Lattice="6.11953705595634 1.3014981475354495e-08 3.5331162488539993 2.039845696135107 5.769554837227267 3.5331162513729506 -2.845302792887121e-08 -1.7034232860918825e-08 7.066232546990032" Properties=species:S:1:pos:R:3:forces:R:3 energy=-39.62281036376953 free_energy=-39.62281036376953 stress="0.0002443323319312185 1.657392978415828e-08 6.530276763783149e-09 1.657392978415828e-08 0.0002443210396450013 -1.2693258888418768e-08 6.530276763783149e-09 -1.2693258888418768e-08 0.0002443157718516886" pbc="T T T"
Cr       2.03984566       1.44238888       3.53311633      -0.00000005       0.00000048       0.00000029
Cr       6.11953667       4.32716615      10.59934865      -0.00000115       0.00000007       0.00000004
V        0.00000030      -0.00000000      -0.00000030      -0.00000349      -0.00000158       0.00000275
Br       2.01848215       1.42728212       7.06623256      -0.00074097      -0.00052430       0.00000022
Br       6.14090027       4.34227243       7.06623253       0.00074690       0.00052749      -0.00000021
Br       5.11029612       1.42728244       5.28117275       0.00037123      -0.00052509      -0.00064221
Br       3.04908673       4.34227256       8.85129261      -0.00037065       0.00052236       0.00064065
Br       3.04908676       4.34227251       5.28117258      -0.00037215       0.00052441      -0.00064319
Br       5.11029624       1.42728224       8.85129249       0.00037031      -0.00052378       0.00064165
