9
Lattice="6.586390869738488 -8.023203486095122e-08 3.802654530865883 2.195463553971941 6.209708793718827 3.8026545198339865 1.4123366911647131e-08 -3.5245314950331627e-09 7.605309037269343" Properties=species:S:1:pos:R:3:forces:R:3 energy=-27.16106414794922 free_energy=-27.16106414794922 stress="6.966092041693628e-05 -3.2764742030622074e-09 -7.370795640504468e-10 -3.2764742030622074e-09 6.96712959324941e-05 2.546523214519425e-09 -7.370795640504468e-10 2.546523214519425e-09 6.966148794163018e-05" pbc="T T T"
Cr       2.19546356       1.55242706       3.80265450       0.00000079       0.00000013      -0.00000052
Cr       6.58639087       4.65728159      11.40796330       0.00000000       0.00000014       0.00000054
Zn      -0.00000010      -0.00000018      -0.00000011      -0.00000024       0.00000105      -0.00000055
I        2.24225168       1.58551141       7.60530907       0.00028777       0.00020405       0.00000017
I        6.53960327       4.62419752       7.60530910      -0.00028955      -0.00020496      -0.00000039
I        5.46526494       1.58551100       5.74450159      -0.00014373       0.00020424       0.00024990
I        3.31658929       4.62419755       9.46611689       0.00014435      -0.00020435      -0.00025086
I        3.31658937       4.62419748       5.74450130       0.00014496      -0.00020446       0.00025094
I        5.46526488       1.58551138       9.46611668      -0.00014436       0.00020412      -0.00024910
