9
Lattice="5.662693980268728 -1.5513747501004604e-08 3.2693578878527134 1.8875646558742145 5.3388390526886464 3.269357869820035 8.177286081165732e-09 -1.6303186212645967e-08 6.5387157615419005" Properties=species:S:1:pos:R:3:forces:R:3 energy=-33.186527252197266 free_energy=-33.186527252197266 stress="0.00029099255334585905 1.2825266182403539e-08 1.1612946160255433e-08 1.2825266182403539e-08 0.0002909839677158743 2.0471238926234037e-08 1.1612946160255433e-08 2.0471238926234037e-08 0.0002910165931098163" pbc="T T T"
Cr       1.88756451       1.33470957       3.26935859      -0.00000121      -0.00000123       0.00000463
Cr       5.66269348       4.00412963       9.80807337      -0.00000287       0.00000061      -0.00000234
Zn      -0.00000013      -0.00000007      -0.00000006       0.00000010       0.00000105      -0.00000194
Cl       1.91954676       1.35732415       6.53871510      -0.00120378      -0.00085217      -0.00000295
Cl       5.63071223       3.98151479       6.53871600       0.00120425       0.00085187       0.00000130
Cl       4.70292116       1.35732449       4.93173405       0.00060251      -0.00085121      -0.00104338
Cl       2.84733797       3.98151472       8.14569757      -0.00060190       0.00085193       0.00104234
Cl       2.84733801       3.98151464       4.93173380      -0.00060081       0.00085041      -0.00104165
Cl       4.70292060       1.35732411       8.14569763       0.00060374      -0.00085130       0.00104392
