9
Lattice="6.060101601134485 6.861908362108524e-09 3.49880128337981 2.0200338649405825 5.713518684745208 3.4988012982299033 1.0737839017560981e-08 2.578037286198151e-08 6.99760254816111" Properties=species:S:1:pos:R:3:forces:R:3 energy=-30.690881729125977 free_energy=-30.690881729125977 stress="0.00012582854833453894 3.213983079675131e-09 8.00399124756268e-09 3.213983079675131e-09 0.00012583266652654856 -4.672336295641344e-09 8.00399124756268e-09 -4.672336295641344e-09 0.00012580245675053447" pbc="T T T"
Cr       2.02003422       1.42838020       3.49880121       0.00000136       0.00000220      -0.00000000
Cr       6.06010147       4.28513865      10.49640409       0.00000000      -0.00000180      -0.00000008
Zn       0.00000005       0.00000015       0.00000020       0.00000062      -0.00000084       0.00000069
Br       2.05053044       1.44994417       6.99760253       0.00080281       0.00056845      -0.00000004
Br       6.02960491       4.26357450       6.99760247      -0.00080258      -0.00056866       0.00000017
Br       5.03483637       1.44994418       5.27461261      -0.00040236       0.00056873       0.00069602
Br       3.04529908       4.26357447       8.72059234       0.00040170      -0.00056896      -0.00069533
Br       3.04529913       4.26357444       5.27461276       0.00040069      -0.00056808       0.00069484
Br       5.03483622       1.44994414       8.72059226      -0.00040232       0.00056902      -0.00069632
