9
Lattice="4.642208749966846 -1.0336805784279128e-07 2.6801805121473907 1.5474028613741675 4.37671642897169 2.6801804390983532 7.89993489559151e-08 -3.360547152376666e-08 5.3603608874639095" Properties=species:S:1:pos:R:3:forces:R:3 energy=-43.93360900878906 free_energy=-43.93360900878906 stress="0.0006447972264140844 2.0830386304737658e-08 -4.393101438182612e-09 2.0830386304737658e-08 0.0006447881460189819 -1.6517308409902398e-08 -4.393101438182612e-09 -1.6517308409902398e-08 0.0006449308712035418" pbc="T T T"
Cr       1.54740457       1.09417950       2.68018089       0.00000848       0.00000239       0.00000354
Cr       4.64220880       3.28253635       8.04054253       0.00000153      -0.00000536       0.00000748
Zn      -0.00000016       0.00000004      -0.00000005       0.00000113      -0.00000411      -0.00000333
F        1.57739418       1.11538586       5.36036080      -0.00310391      -0.00219330      -0.00000215
F        4.61221717       3.26133064       5.36036071       0.00310388       0.00219977      -0.00000234
F        3.85351131       1.11538683       4.04624360       0.00155045      -0.00219250      -0.00269610
F        2.33609942       3.26132985       6.67447749      -0.00155848       0.00219569       0.00269261
F        2.33610020       3.26132989       4.04624358      -0.00155450       0.00219449      -0.00269419
F        3.85351140       1.11538631       6.67447768       0.00155126      -0.00219700       0.00269431
