9
Lattice="6.7718585411430885 2.332481989234173e-07 3.909734094469981 2.2572864583347703 6.384568952050595 3.9097339939324858 2.6908746382164694e-07 6.714085950090426e-08 7.819467722866913" Properties=species:S:1:pos:R:3:forces:R:3 energy=-27.31783676147461 free_energy=-27.31783676147461 stress="0.0002470247563906014 1.1018848944388537e-08 6.984449907321277e-09 1.1018848944388537e-08 0.0002470081963110715 2.773299145886199e-09 6.984449907321277e-09 2.773299145886199e-09 0.00024699573987163603" pbc="T T T"
Cs       2.25728610       1.59614317       3.90973391       0.00000037      -0.00000066       0.00000025
Cs       6.77185908       4.78842692      11.72920223      -0.00000033      -0.00000009      -0.00000060
Co       0.00000027      -0.00000051       0.00000065      -0.00000231       0.00000177      -0.00000139
Br       2.04323429       1.44478347       7.81946793      -0.00702280      -0.00496414      -0.00000113
Br       6.98591129       4.93978518       7.81946761       0.00702283       0.00496529       0.00000110
Br       5.75024240       1.44478441       5.67922595       0.00351065      -0.00496569      -0.00608112
Br       3.27890272       4.93978500       9.95970981      -0.00350995       0.00496498       0.00607984
Br       3.27890282       4.93978489       5.67922629      -0.00350936       0.00496432      -0.00608023
Br       5.75024225       1.44478440       9.95970875       0.00351091      -0.00496590       0.00608335
