9
Lattice="7.419417070189632 -1.3907797867985835e-06 4.283603648354623 2.47313748450661 6.995094735821544 4.283604042656116 -2.6955933590373414e-07 2.923116126161922e-07 8.567207763599683" Properties=species:S:1:pos:R:3:forces:R:3 energy=-21.850271224975586 free_energy=-21.850271224975586 stress="-1.5702964446973056e-05 -1.8102941368169922e-08 6.83189171901688e-10 -1.8102941368169922e-08 -1.5698697097832337e-05 1.5942293041248945e-09 6.83189171901688e-10 1.5942293041248945e-09 -1.5674284441047348e-05" pbc="T T T"
Cs       2.47313860       1.74877345       4.28360407      -0.00000037       0.00000050       0.00000021
Cs       7.41941557       5.24631998      12.85081144       0.00000039      -0.00000002       0.00000013
C       -0.00000046      -0.00000048      -0.00000038       0.00000076      -0.00000023      -0.00000007
I        2.18852839       1.54752531       8.56720801       0.00152969       0.00108415      -0.00000020
I        7.70402610       5.44756892       8.56720737      -0.00153023      -0.00108460      -0.00000010
I        6.32514924       1.54752191       6.17892814      -0.00076309       0.00108072       0.00132185
I        3.56740544       5.44757188      10.95548741       0.00076303      -0.00108036      -0.00132149
I        3.56740473       5.44757199       6.17892799       0.00076303      -0.00108135       0.00132197
I        6.32514967       1.54752187      10.95548757      -0.00076327       0.00108120      -0.00132242
