9
Lattice="6.403721450550561 2.435474724732379e-07 3.6971902702012684 2.134574056407604 6.037487100582911 3.6971902529872263 2.810828971115285e-07 1.7767284786622614e-07 7.394380053552633" Properties=species:S:1:pos:R:3:forces:R:3 energy=-30.410144805908203 free_energy=-30.410144805908203 stress="1.0195582035521511e-05 2.669190557469392e-08 1.4666064807045132e-08 2.669190557469392e-08 1.028528822644148e-05 -3.1959128676817272e-09 1.4666064807045132e-08 -3.1959128676817272e-09 1.0233169632556383e-05" pbc="T T T"
Cs       2.13457376       1.50937207       3.69719024       0.00000085      -0.00000070      -0.00000034
Cs       6.40372198       4.52811564      11.09157014      -0.00000008       0.00000028       0.00000052
Co      -0.00000219       0.00000098      -0.00000029       0.00001895      -0.00000885       0.00000406
Cl       1.84211546       1.30257390       7.39438021       0.00080669       0.00056678      -0.00000061
Cl       6.69618095       4.73491362       7.39438034      -0.00081334      -0.00056902       0.00000019
Cl       5.48266440       1.30257350       5.29250958      -0.00040850       0.00057139       0.00070098
Cl       3.05563194       4.73491372       9.49625099       0.00040318      -0.00056729      -0.00069726
Cl       3.05563225       4.73491374       5.29250977       0.00040114      -0.00056534       0.00069414
Cl       5.48266463       1.30257338       9.49625112      -0.00040892       0.00057256      -0.00070173
