9
Lattice="6.736181234739258 -2.444398110675079e-07 3.889136248421647 2.245393513074605 6.350932801885317 3.8891362508092198 3.168040754236679e-08 2.532548139032369e-08 7.778272441971286" Properties=species:S:1:pos:R:3:forces:R:3 energy=-32.70556640625 free_energy=-32.70556640625 stress="1.339021764579229e-05 -6.826822129823995e-08 2.1042194653375645e-09 -6.826822129823995e-08 1.341311690339353e-05 1.2861981701917102e-08 2.1042194653375645e-09 1.2861981701917102e-08 1.3465753909258638e-05" pbc="T T T"
Cs       2.24539398       1.58773291       3.88913599      -0.00000033       0.00000033       0.00000014
Cs       6.73618100       4.76319929      11.66740916       0.00000034       0.00000013      -0.00000050
Cr      -0.00000050      -0.00000015      -0.00000098       0.00000899       0.00000424       0.00001061
Br       2.03539309       1.43924037       7.77827253       0.00066162       0.00046814      -0.00000115
Br       6.94618228       4.91169296       7.77827177      -0.00066911      -0.00047472       0.00000182
Br       5.71848382       1.43924067       5.65183921      -0.00032747       0.00046283       0.00056683
Br       3.26309055       4.91169184       9.90470630       0.00032980      -0.00046552      -0.00057138
Br       3.26309077       4.91169199       5.65183946       0.00032623      -0.00046368       0.00056686
Br       5.71848434       1.43924036       9.90470643      -0.00033011       0.00046831      -0.00057331
