9
Lattice="6.971908639226355 -1.0814537608636772e-07 4.025233324011775 2.3239693876548997 6.573179131741263 4.025233422380859 -1.6238967353607796e-07 5.650171191487027e-09 8.050466929290717" Properties=species:S:1:pos:R:3:forces:R:3 energy=-24.25680160522461 free_energy=-24.25680160522461 stress="3.689192817546427e-05 -8.240787607860511e-09 5.1933324307640305e-09 -8.240787607860511e-09 3.6959998396923766e-05 -1.7160008969341334e-09 5.1933324307640305e-09 -1.7160008969341334e-09 3.691721212817356e-05" pbc="T T T"
Cs       2.32396902       1.64329509       4.02523366      -0.00000046       0.00000061       0.00000045
Cs       6.97190869       4.92988383      12.07570105       0.00000040      -0.00000046      -0.00000047
C       -0.00000053      -0.00000031      -0.00000261      -0.00000027       0.00000020       0.00000080
Br       1.94660110       1.37645572       8.05046682      -0.00133735      -0.00094795       0.00000108
Br       7.34927604       5.19672220       8.05046621       0.00134096       0.00095192       0.00000151
Br       5.99860784       1.37645670       5.71104076       0.00066966      -0.00095212      -0.00116307
Br       3.29726993       5.19672383      10.38989378      -0.00066893       0.00094664       0.00116071
Br       3.29727082       5.19672296       5.71104137      -0.00067198       0.00095069      -0.00116283
Br       5.99860831       1.37645615      10.38989325       0.00066790      -0.00094965       0.00116184
