9
Lattice="6.722078323044347 -3.451477904740255e-08 3.8809939046661537 2.240692690479557 6.337635790111105 3.88099399356837 -4.957694501720647e-07 -2.4167926623724796e-07 7.761988668030189" Properties=species:S:1:pos:R:3:forces:R:3 energy=-26.660762786865234 free_energy=-26.660762786865234 stress="9.228739509126171e-05 -2.091964645956068e-08 -1.6103305711112625e-07 -2.091964645956068e-08 9.239485370926559e-05 8.515230121020068e-08 -1.6103305711112625e-07 8.515230121020068e-08 9.250076982425526e-05" pbc="T T T"
Cs       2.24069124       1.58441050       3.88099364       0.00000079      -0.00000051      -0.00000015
Cs       6.72207764       4.75322697      11.64298265       0.00000038       0.00000000      -0.00000015
C        0.00000600      -0.00000538      -0.00000484       0.00001695      -0.00000712       0.00001076
Cl       1.77009625       1.25164692       7.76199078       0.00110133       0.00077569      -0.00000941
Cl       7.19267127       5.08598581       7.76199153      -0.00109635      -0.00076947      -0.00002173
Cl       5.83702826       1.25165014       5.41394966      -0.00054988       0.00077487       0.00093276
Cl       3.12574188       5.08598673      10.11003063       0.00052458      -0.00075034      -0.00091898
Cl       3.12573992       5.08598883       5.41394159       0.00055817      -0.00078718       0.00095117
Cl       5.83703020       1.25165109      10.11003035      -0.00055583       0.00076403      -0.00094424
