9
Lattice="7.2669322616951915 -2.2539576229192935e-06 4.195566925584309 2.4223090166468735 6.851329518076031 4.195566253894069 3.370106338382896e-07 -5.843465087658447e-07 8.391133267448776" Properties=species:S:1:pos:R:3:forces:R:3 energy=-28.98291015625 free_energy=-28.98291015625 stress="-9.759800741448998e-05 7.339610696988075e-09 1.8016061531511696e-08 7.339610696988075e-09 -9.761682304088026e-05 -2.452209812986439e-08 1.8016061531511696e-08 -2.452209812986439e-08 -9.763222624314949e-05" pbc="T T T"
Cs       2.42231046       1.71283128       4.19556682      -0.00000043      -0.00000016       0.00000064
Cs       7.26693142       5.13849571      12.58669993       0.00000011       0.00000024      -0.00000081
Cr       0.00000139       0.00000016      -0.00000148      -0.00000849      -0.00000056       0.00001377
I        2.21779302       1.56821604       8.39113323       0.00753842       0.00533047      -0.00000124
I        7.47144732       5.28311148       8.39113264      -0.00753311      -0.00532921       0.00000142
I        6.15803563       1.56821390       6.11623146      -0.00376790       0.00532696       0.00652686
I        3.53120560       5.28311295      10.66603527       0.00377324      -0.00533304      -0.00653366
I        3.53120609       5.28311205       6.11623216       0.00376657      -0.00532433       0.00652393
I        6.15803567       1.56821320      10.66603595      -0.00376845       0.00532962      -0.00653076
