9
Lattice="5.6962444638811816 7.705828416908748e-08 3.288728303197308 1.8987481635750214 5.370471170264448 3.288728413534506 -6.97430141480856e-08 8.58191800155843e-08 6.577456727193063" Properties=species:S:1:pos:R:3:forces:R:3 energy=-45.07505798339844 free_energy=-45.07505798339844 stress="6.372079951688647e-05 8.430776077261726e-09 6.584947032095556e-10 8.430776077261726e-09 6.370674236677587e-05 -1.0069347133878637e-08 6.584947032095556e-10 -1.0069347133878637e-08 6.371890049194917e-05" pbc="T T T"
Cs       1.89874776       1.34261834       3.28872854      -0.00000033      -0.00000055       0.00000003
Cs       5.69624437       4.02785342       9.86618603       0.00000001       0.00000023      -0.00000065
Cr      -0.00000023      -0.00000010       0.00000011      -0.00000120       0.00000194      -0.00000088
F        1.53424942       1.08487826       6.57745674       0.00272581       0.00192529      -0.00000049
F        6.06074276       4.28559258       6.57745618      -0.00272211      -0.00192349       0.00000047
F        4.92911961       1.08487893       4.61742756      -0.00136226       0.00192441       0.00235695
F        2.66587310       4.28559300       8.53748597       0.00136209      -0.00192694      -0.00235933
F        2.66587341       4.28559256       4.61742726       0.00136004      -0.00192551       0.00235957
F        4.92912003       1.08487827       8.53748552      -0.00136209       0.00192471      -0.00235558
