9
Lattice="5.323386342853214 2.6659212965159727e-08 3.0734586371690096 1.77446202065809 5.018936349657364 3.0734588428688556 2.159209641129747e-08 2.67197699551744e-07 6.146917236939416" Properties=species:S:1:pos:R:3:forces:R:3 energy=-38.28830337524414 free_energy=-38.28830337524414 stress="-0.00017968122847378254 4.461654157239536e-08 3.038175044878244e-09 4.461654157239536e-08 -0.00017969825421459973 3.9627128245456333e-08 3.038175044878244e-09 3.9627128245456333e-08 -0.0001795800490071997" pbc="T T T"
Cs       1.77446164       1.25473430       3.07345868      -0.00000034      -0.00000101      -0.00000297
Cs       5.32338699       3.76420282       9.22037436      -0.00000467      -0.00000366       0.00000291
C       -0.00000130      -0.00000087      -0.00000151      -0.00000257      -0.00001297      -0.00000966
F        1.31906139       0.93271707       6.14691768      -0.00698447      -0.00493222       0.00000018
F        5.77878889       4.08622008       6.14691791       0.00698841       0.00494707      -0.00000417
F        4.66385482       0.93271790       4.21580026       0.00349551      -0.00493973      -0.00606120
F        2.43399192       4.08622036       8.07803650      -0.00349528       0.00494272       0.00606012
F        2.43399250       4.08621879       4.21579999      -0.00349075       0.00494009      -0.00605178
F        4.66385628       0.93271623       8.07803551       0.00349265      -0.00494105       0.00606716
