9
Lattice="6.492967700545322 -1.0327324105654771e-07 3.7487170671178567 2.164322592852428 6.121628991535085 3.7487168534332844 1.6652516452349596e-07 -1.4395792744244776e-07 7.497433845805388" Properties=species:S:1:pos:R:3:forces:R:3 energy=-35.94047927856445 free_energy=-35.94047927856445 stress="2.1716123228543438e-05 7.822186631756267e-08 4.527120722741529e-08 7.822186631756267e-08 2.1702029698644765e-05 -5.968460214944571e-08 4.527120722741529e-08 -5.968460214944571e-08 2.1640040358761325e-05" pbc="T T T"
Cs       2.16432234       1.53040758       3.74871703       0.00000060      -0.00000053      -0.00000038
Cs       6.49296753       4.59122151      11.24615112       0.00000033       0.00000006      -0.00000005
Cr      -0.00000004       0.00000012       0.00000127      -0.00000290       0.00000342      -0.00002096
Cl       1.90960973       1.35029767       7.49743352       0.00243527       0.00172263       0.00000056
Cl       6.74768104       4.77133057       7.49743358      -0.00243661      -0.00171816       0.00000119
Cl       5.53816417       1.35029699       5.40248626      -0.00122590       0.00173056       0.00211841
Cl       3.11912634       4.77133148       9.59238285       0.00122298      -0.00172649      -0.00211768
Cl       3.11912659       4.77133114       5.40248602       0.00122365      -0.00172910       0.00212173
Cl       5.53816405       1.35029812       9.59237969      -0.00121766       0.00171791      -0.00210266
