9
Lattice="5.662155164897107 2.0338928062131598e-07 3.2690472253668608 1.8873852195622163 5.338331877661679 3.269047272410667 -2.8538355174625948e-08 3.7436975123396714e-08 6.538094500163585" Properties=species:S:1:pos:R:3:forces:R:3 energy=-38.56991195678711 free_energy=-38.56991195678711 stress="6.521862815134227e-06 -1.823273620971122e-08 5.377662315453335e-09 -1.823273620971122e-08 6.448798103519948e-06 8.760900338522504e-11 5.377662315453335e-09 8.760900338522504e-11 6.440028300858103e-06" pbc="T T T"
Cs       1.88738504       1.33458281       3.26904776      -0.00000027       0.00000058      -0.00000051
Cs       5.66215527       4.00374930       9.80714069      -0.00000023       0.00000006       0.00000082
Co       0.00000006       0.00000012       0.00000033      -0.00000072       0.00000183      -0.00001028
F        1.50728006       1.06580826       6.53809435      -0.00106497      -0.00075425       0.00000097
F        6.04226021       4.27252390       6.53809507       0.00106442       0.00075395       0.00000142
F        4.90851476       1.06580808       4.57439027       0.00053027      -0.00075270      -0.00092046
F        2.64102557       4.27252396       8.50179854      -0.00053194       0.00075528       0.00092296
F        2.64102511       4.27252382       4.57439007      -0.00053070       0.00074935      -0.00091764
F        4.90851530       1.06580816       8.50179896       0.00053407      -0.00075413       0.00092322
