9
Lattice="7.139945806786398 1.536796565644824e-06 4.122249508916264 2.379982969728914 6.731602456726298 4.122250227323409 -3.2004924452394586e-07 6.535561449276207e-07 8.244499572174186" Properties=species:S:1:pos:R:3:forces:R:3 energy=-26.32202911376953 free_energy=-26.32202911376953 stress="0.0001295584806939587 2.1249854853522265e-07 -9.593842165145361e-09 2.1249854853522265e-07 0.0001291729131480679 1.0556003182671247e-08 -9.593842165145361e-09 1.0556003182671247e-08 0.00012933391553815454" pbc="T T T"
Cs       2.37998174       1.68289999       4.12224968       0.00000105       0.00000293       0.00000047
Cs       7.13994700       5.04870448      12.36674958      -0.00000143      -0.00000258      -0.00000074
Fe      -0.00000035      -0.00000033       0.00000733       0.00000586       0.00000597      -0.00010968
I        2.03425135       1.43842756       8.24449728      -0.00505055      -0.00355909       0.00000807
I        7.48567667       5.29317789       8.24449812       0.00504471       0.00355284       0.00000791
I        6.12282511       1.43842566       5.88395966       0.00249846      -0.00351989      -0.00432693
I        3.39710453       5.29317839      10.60503796      -0.00251832       0.00354743       0.00437511
I        3.39710440       5.29317827       5.88395917      -0.00249700       0.00351946      -0.00432573
I        6.12282341       1.43842673      10.60503848       0.00251720      -0.00354695       0.00437132
