9
Lattice="6.446585954066983 1.4494391412429397e-07 3.721937879206621 2.148862195324878 6.077898875254838 3.721937751067124 3.376570989412366e-07 8.182146949285935e-08 7.443875173574023" Properties=species:S:1:pos:R:3:forces:R:3 energy=-32.50328826904297 free_energy=-32.50328826904297 stress="-2.5735482722666347e-06 -1.0724960475272383e-08 -3.858863451000616e-08 -1.0724960475272383e-08 -2.5804438337218016e-06 -1.8110022370620982e-09 -3.858863451000616e-08 -1.8110022370620982e-09 -2.494246700734948e-06" pbc="T T T"
Cs       2.14886213       1.51947456       3.72193800      -0.00000015       0.00000014      -0.00000082
Cs       6.44658655       4.55842431      11.16581328      -0.00000100      -0.00000059      -0.00000035
Fe       0.00000505       0.00000153       0.00000084      -0.00004916      -0.00001151      -0.00001336
Cl       1.87487489       1.32573634       7.44387406       0.00097048       0.00068629       0.00000341
Cl       6.72057247       4.75216135       7.44387666      -0.00094080      -0.00066537      -0.00000264
Cl       5.50914744       1.32573716       5.34562837      -0.00047377       0.00067756       0.00082377
Cl       3.08629933       4.75216215       9.54212228       0.00048044      -0.00067779      -0.00082541
Cl       3.08629825       4.75216185       5.34562738       0.00048721      -0.00068024       0.00083235
Cl       5.50914806       1.32573715       9.54212227      -0.00047332       0.00067130      -0.00081715
