9
Lattice="6.800947157242677 3.4435607096804566e-07 3.9265281119328272 2.2669828635082028 6.411993608028237 3.9265278467578004 3.8481460908903624e-07 -5.266667134275708e-08 7.8530555573473695" Properties=species:S:1:pos:R:3:forces:R:3 energy=-29.87459945678711 free_energy=-29.87459945678711 stress="5.709746801585425e-06 1.1985376602297038e-07 6.494633453257848e-08 1.1985376602297038e-07 5.5639657148276456e-06 -7.620018038778653e-08 6.494633453257848e-08 -7.620018038778653e-08 5.480291747517185e-06" pbc="T T T"
Cs       2.26698256       1.60299870       3.92652804      -0.00000039       0.00000023      -0.00000018
Cs       6.80094777       4.80899509      11.77958345       0.00000056       0.00000001       0.00000026
Fe       0.00000004      -0.00000023       0.00000008      -0.00000445      -0.00000270      -0.00000059
Br       1.88111679       1.33014954       7.85305564       0.00119016       0.00084302       0.00000016
Br       7.18681309       5.08184404       7.85305562      -0.00118223      -0.00083913       0.00000118
Br       5.86038989       1.33014883       5.55561967      -0.00060426       0.00085588       0.00105177
Br       3.20754008       5.08184511      10.15049123       0.00060464      -0.00085753      -0.00104880
Br       3.20754137       5.08184486       5.55562093       0.00059582      -0.00084870       0.00103803
Br       5.86039004       1.33014951      10.15049120      -0.00059976       0.00084887      -0.00104158
