9
Lattice="5.777092901274345 -1.916324781923976e-07 3.3354059083668406 1.925697429439538 5.446694854229637 3.3354059493226105 -6.217133922328583e-08 6.198520602809545e-09 6.670811924417508" Properties=species:S:1:pos:R:3:forces:R:3 energy=-41.286407470703125 free_energy=-41.286407470703125 stress="0.00015220000932458788 -5.9257818207925084e-08 2.909620278046532e-08 -5.9257818207925084e-08 0.00015204280498437583 -2.3403963211876544e-09 2.909620278046532e-08 -2.3403963211876544e-09 0.000152185297338292" pbc="T T T"
Cs       1.92569686       1.36167295       3.33540595       0.00000115      -0.00000112       0.00000019
Cs       5.77709382       4.08502085      10.00621684      -0.00000050       0.00000110      -0.00000017
Fe       0.00000015       0.00000015      -0.00000011      -0.00000111       0.00000188       0.00000458
F        1.58819892       1.12302543       6.67081180       0.00632173       0.00447488       0.00000238
F        6.11459143       4.32366924       6.67081189      -0.00632370      -0.00447249       0.00000124
F        4.98299272       1.12302485       4.71082664      -0.00315979       0.00447261       0.00547236
F        2.71979670       4.32367000       8.63079744       0.00316188      -0.00447708      -0.00547802
F        2.71979737       4.32366963       4.71082683       0.00315949      -0.00447190       0.00547391
F        4.98299310       1.12302536       8.63079720      -0.00315928       0.00447226      -0.00547594
