9
Lattice="6.5279221071847875 -4.329208280236902e-09 3.76889748018107 2.1759740745296927 6.15458364768488 3.7688974059053937 -3.9709382378170126e-08 -1.1904741153667526e-07 7.537795029140772" Properties=species:S:1:pos:R:3:forces:R:3 energy=-30.334421157836914 free_energy=-30.334421157836914 stress="2.6380126655567437e-05 2.856128844541672e-08 -2.3129107518116143e-08 2.856128844541672e-08 2.6306148356525227e-05 -1.9642349968762574e-08 -2.3129107518116143e-08 -1.9642349968762574e-08 2.6281686587026343e-05" pbc="T T T"
Cs       2.17597412       1.53864574       3.76889756       0.00000014       0.00000021       0.00000017
Cs       6.52792217       4.61593781      11.30669181      -0.00000023       0.00000004       0.00000003
Ge      -0.00000013       0.00000003      -0.00000008       0.00000119      -0.00000333       0.00000649
Cl       1.90448082       1.34667108       7.53779431       0.00107762       0.00076206       0.00000336
Cl       6.79941528       4.80791274       7.53779562      -0.00107509      -0.00076333      -0.00000143
Cl       5.57568120       1.34667080       5.41822585      -0.00053723       0.00076465       0.00093697
Cl       3.12821450       4.80791271       9.65736432       0.00053869      -0.00076623      -0.00093520
Cl       3.12821437       4.80791219       5.41822616       0.00053826      -0.00076061       0.00093116
Cl       5.57568218       1.34667128       9.65736443      -0.00054348       0.00076655      -0.00094150
