9
Lattice="6.775561861543582 -2.6037626599166934e-07 3.911872592315314 2.2585203569159433 6.388061132238205 3.9118726236887 -1.5054446406870881e-07 -6.802683049601094e-08 7.823745445381482" Properties=species:S:1:pos:R:3:forces:R:3 energy=-26.647016525268555 free_energy=-26.647016525268555 stress="4.730508953798562e-05 -1.956686013215858e-08 3.490420841245623e-09 -1.956686013215858e-08 4.729210559162311e-05 -1.1874786487453548e-08 3.490420841245623e-09 -1.1874786487453548e-08 4.730906948680058e-05" pbc="T T T"
Cs       2.25852069       1.59701493       3.91187279      -0.00000042       0.00000059      -0.00000005
Cs       6.77556150       4.79104558      11.73561814       0.00000052      -0.00000027      -0.00000054
Ge       0.00000006      -0.00000061      -0.00000116       0.00000123       0.00000671       0.00001005
Br       2.05441091       1.45268784       7.82374494      -0.00185183      -0.00130895       0.00000139
Br       6.97967129       4.93537356       7.82374531       0.00184636       0.00130467       0.00000119
Br       5.74835523       1.45268846       5.69104581       0.00092902      -0.00131170      -0.00160637
Br       3.28572627       4.93537308       9.95644529      -0.00092307       0.00130463       0.00159837
Br       3.28572663       4.93537223       5.69104585      -0.00092667       0.00131091      -0.00160469
Br       5.74835560       1.45268826       9.95644570       0.00092489      -0.00130655       0.00160064
