9
Lattice="5.681303324963933 -1.1583285321519581e-07 3.2801019524686295 1.893767646948321 5.356384163641191 3.2801019850855506 -8.922989203775396e-08 -2.314764234305488e-08 6.560204059487946" Properties=species:S:1:pos:R:3:forces:R:3 energy=-42.664100646972656 free_energy=-42.664100646972656 stress="-0.0003843306622002274 -8.434756892938822e-08 2.8949045938198026e-10 -8.434756892938822e-08 -0.0003843928570859134 9.746069729033024e-09 2.8949045938198026e-10 9.746069729033024e-09 -0.00038421168574132025" pbc="T T T"
Cs       1.89376767       1.33909576       3.28010239      -0.00000026       0.00000033      -0.00000005
Cs       5.68130338       4.01728777       9.84030769      -0.00000050       0.00000073      -0.00000139
Ge      -0.00000027      -0.00000002      -0.00000033       0.00000502       0.00000136       0.00000056
F        1.50115843       1.06147872       6.56020401      -0.00163037      -0.00114876      -0.00000057
F        6.07391282       4.29490551       6.56020349       0.00162503       0.00114593       0.00000016
F        4.93072375       1.06147906       4.58014325       0.00081778      -0.00115255      -0.00141719
F        2.64434667       4.29490511       8.54026414      -0.00081719       0.00115338       0.00141767
F        2.64434678       4.29490500       4.58014330      -0.00081746       0.00115219      -0.00141594
F        4.93072396       1.06147916       8.54026428       0.00081797      -0.00115240       0.00141677
