9
Lattice="7.3076617039644445 -5.441209976839735e-07 4.219080577568765 2.4358868918156524 6.889729935918368 4.219080282837797 2.2217767163942643e-07 -2.038669325336063e-07 8.438160770314635" Properties=species:S:1:pos:R:3:forces:R:3 energy=-23.21383285522461 free_energy=-23.21383285522461 stress="2.8417987778084353e-05 1.7067807167592264e-09 -5.291824756170627e-09 1.7067807167592264e-09 2.8310978450463153e-05 5.7128226593761156e-09 -5.291824756170627e-09 5.7128226593761156e-09 2.8387081329128705e-05" pbc="T T T"
Cs       2.43588683       1.72243239       4.21908011      -0.00000051       0.00000291      -0.00000007
Cs       7.30766183       5.16729661      12.65724180       0.00000044      -0.00000286       0.00000019
Ge       0.00000006       0.00000014      -0.00000001       0.00000047      -0.00000003      -0.00000037
I        2.37899536       1.68219699       8.43816072      -0.00211321      -0.00148521      -0.00000021
I        7.36455351       5.20753229       8.43816076       0.00211301       0.00148506       0.00000031
I        6.11816481       1.68219673       6.27934952       0.00105464      -0.00148635      -0.00182472
I        3.62538408       5.20753213      10.59697204      -0.00105499       0.00148655       0.00182492
I        3.62538428       5.20753311       6.27934939      -0.00105392       0.00148711      -0.00182481
I        6.11816451       1.68219638      10.59697213       0.00105409      -0.00148724       0.00182480
