9
Lattice="7.411609744302917 -2.7276065125235514e-07 4.279095477393705 2.470536223721098 6.987732585796569 4.27909565155515 9.105289863009651e-08 2.776872937966974e-07 8.558190797079236" Properties=species:S:1:pos:R:3:forces:R:3 energy=-32.33252716064453 free_energy=-32.33252716064453 stress="4.077652920386754e-05 -5.864055907522925e-08 3.0155509200824326e-09 -5.864055907522925e-08 4.082069426658563e-05 7.118567957320465e-09 3.0155509200824326e-09 7.118567957320465e-09 4.087636261829175e-05" pbc="T T T"
Cs       2.47053719       1.74693465       4.27909472      -0.00000008      -0.00000028       0.00000042
Cs       7.41160845       5.24079830      12.83728693       0.00000019       0.00000051       0.00000029
Hf       0.00000017      -0.00000048       0.00000124      -0.00000093       0.00000448      -0.00001109
I        2.33914761       1.65402748       8.55819119      -0.00086175      -0.00060922      -0.00000061
I        7.54299857       5.33370467       8.55819073       0.00086023       0.00060941       0.00000038
I        6.24203551       1.65402800       6.30485839       0.00043375      -0.00061490      -0.00075351
I        3.64011130       5.33370459      10.81152338      -0.00043570       0.00061662       0.00075512
I        3.64010962       5.33370473       6.30485825      -0.00043266       0.00061153      -0.00074925
I        6.24203589       1.65402848      10.81152294       0.00043694      -0.00061825       0.00075826
