9
Lattice="6.865052826979844 -3.49659035523854e-07 3.9635403197028523 2.288350550085936 6.472434303049377 3.9635404280930406 -8.274930645331182e-08 7.423759733833402e-08 7.927080782731771" Properties=species:S:1:pos:R:3:forces:R:3 energy=-36.86836242675781 free_energy=-36.86836242675781 stress="0.00019701231212820858 -9.069130157968175e-08 -9.898633912541754e-09 -9.069130157968175e-08 0.00019710710330400616 5.57043522420031e-09 -9.898633912541754e-09 5.57043522420031e-09 0.00019715097732841969" pbc="T T T"
Cs       2.28835045       1.61810854       3.96354019       0.00000168      -0.00000006       0.00000045
Cs       6.86505260       4.85432527      11.89062162      -0.00000149      -0.00000026      -0.00000027
Hf      -0.00000036      -0.00000017       0.00000040       0.00000774       0.00000303      -0.00000510
Br       2.14999152       1.52027390       7.92708064      -0.00626618      -0.00443217       0.00000028
Br       7.00341325       4.95216097       7.92708071       0.00625682       0.00442609      -0.00000007
Br       5.79005638       1.52027433       5.82548875       0.00313611      -0.00443500      -0.00543198
Br       3.36334681       4.95215923      10.02867254      -0.00313653       0.00443856       0.00543483
Br       3.36334648       4.95215958       5.82548876      -0.00313514       0.00443661      -0.00543238
Br       5.79005604       1.52027444      10.02867239       0.00313693      -0.00443678       0.00543419
