9
Lattice="5.833600196943789 -2.707093302018812e-07 3.368030533023315 1.9445331614378019 5.4999709810285085 3.368030502393766 -1.1329765118315006e-07 -1.1762671896466045e-07 6.7360612622838625" Properties=species:S:1:pos:R:3:forces:R:3 energy=-54.1456413269043 free_energy=-54.1456413269043 stress="-1.9933049770770594e-05 -3.096091205634366e-08 -7.65224772436568e-09 -3.096091205634366e-08 -1.993719160964247e-05 -2.5020311156254138e-08 -7.65224772436568e-09 -2.5020311156254138e-08 -1.996562241401989e-05" pbc="T T T"
Cs       1.94453301       1.37499271       3.36803117       0.00000024      -0.00000003       0.00000003
Cs       5.83360068       4.12497792      10.10409319      -0.00000105      -0.00000016      -0.00000134
Hf      -0.00000006       0.00000006      -0.00000020      -0.00000075       0.00000327      -0.00000352
F        1.64260686       1.16149817       6.73606080       0.00024387       0.00017355       0.00000113
F        6.13552648       4.33847258       6.73606097      -0.00024621      -0.00017435      -0.00000028
F        5.01229623       1.16149826       4.79056946      -0.00012072       0.00017306       0.00021241
F        2.76583642       4.33847250       8.68155242       0.00012193      -0.00017341      -0.00021385
F        2.76583670       4.33847238       4.79056936       0.00012315      -0.00017261       0.00021506
F        5.01229655       1.16149797       8.68155231      -0.00012053       0.00017066      -0.00020975
