9
Lattice="6.5901802373046845 -8.686949958302922e-08 3.80484224370573 2.196726677386502 6.213281235952649 3.8048422202892116 5.0509330946470154e-08 7.036150866919173e-09 7.609684399926917" Properties=species:S:1:pos:R:3:forces:R:3 energy=-41.0047492980957 free_energy=-41.0047492980957 stress="8.068631723290309e-05 -2.4558481470648985e-08 6.5905938484434046e-09 -2.4558481470648985e-08 8.067423186730593e-05 -7.299006954397669e-10 6.5905938484434046e-09 -7.299006954397669e-10 8.068741590250283e-05" pbc="T T T"
Cs       2.19672682       1.55332055       3.80484191       0.00000022      -0.00000052       0.00000044
Cs       6.59018026       4.65996093      11.41452624      -0.00000041       0.00000064       0.00000006
Hf      -0.00000069      -0.00000011      -0.00000072       0.00001058       0.00000164       0.00001542
Cl       2.01276596       1.42324024       7.60968432      -0.00114320      -0.00080758       0.00000008
Cl       6.77414167       4.79004122       7.60968432       0.00113381       0.00080103       0.00000001
Cl       5.58379687       1.42324047       5.54794890       0.00057308      -0.00080840      -0.00098985
Cl       3.20310956       4.79004069       9.67142078      -0.00056865       0.00080512       0.00098388
Cl       3.20311002       4.79004064       5.54794868      -0.00057355       0.00081094      -0.00099222
Cl       5.58379753       1.42324002       9.67142086       0.00056811      -0.00080284       0.00098196
