9
Lattice="6.769474601586433 1.26938780258164e-07 3.908357795102455 2.256491538182435 6.382322042293627 3.9083579949091742 -1.771748705836043e-07 1.1943068905180577e-07 7.816715897080671" Properties=species:S:1:pos:R:3:forces:R:3 energy=-29.66656494140625 free_energy=-29.66656494140625 stress="-3.0170644095051102e-05 2.0432681324678015e-08 -4.698405220437962e-08 2.0432681324678015e-08 -3.0186562071321532e-05 3.6236979639170386e-08 -4.698405220437962e-08 3.6236979639170386e-08 -3.0220624466892332e-05" pbc="T T T"
Cs       2.25649186       1.59558073       3.90835857      -0.00000069      -0.00000020      -0.00000082
Cs       6.76947423       4.78674149      11.72507285       0.00000050       0.00000026       0.00000107
Ir       0.00000019       0.00000054       0.00000131       0.00000138      -0.00000646      -0.00002688
Br       2.05119074       1.45041097       7.81671468       0.00479539       0.00339182       0.00000284
Br       6.97477527       4.93191117       7.81671628      -0.00479437      -0.00339021      -0.00000055
Br       5.74387856       1.45041072       5.68474076      -0.00239943       0.00339667       0.00416103
Br       3.28208782       4.93191097       9.94869058       0.00239152      -0.00338489      -0.00414584
Br       3.28208586       4.93191131       5.68474040       0.00240425      -0.00339751       0.00416355
Br       5.74387940       1.45041120       9.94869121      -0.00239847       0.00339048      -0.00415434
