9
Lattice="7.301149340302971 -1.1476785626183758e-06 4.215321493117354 2.433715291621219 6.883590052874394 4.215321619738516 -3.047989086807344e-07 -6.044674096514801e-08 8.430643514161805" Properties=species:S:1:pos:R:3:forces:R:3 energy=-26.885677337646484 free_energy=-26.885677337646484 stress="3.1016810453365906e-07 -2.7718041195612386e-08 -5.550027282197334e-08 -2.7718041195612386e-08 3.079129271554848e-07 6.738125790661798e-08 -5.550027282197334e-08 6.738125790661798e-08 3.5071127513219835e-07" pbc="T T T"
Cs       2.43371587       1.72089772       4.21532169      -0.00000039       0.00000130       0.00000077
Cs       7.30114820       5.16269160      12.64596487       0.00000073      -0.00000146      -0.00000023
Ir       0.00000102      -0.00000053       0.00000145      -0.00001241       0.00000478      -0.00002187
I        2.20244739       1.55736466       8.43064259       0.00043891       0.00031230       0.00000154
I        7.53241681       5.32622411       8.43064394      -0.00043364      -0.00030874      -0.00000091
I        6.19992450       1.55736504       6.12269804      -0.00021702       0.00030655       0.00037377
I        3.53494049       5.32622335      10.73858788       0.00021371      -0.00030163      -0.00036860
I        3.53493816       5.32622604       6.12269843       0.00022424      -0.00031513       0.00038544
I        6.19992493       1.55736342      10.73858760      -0.00021418       0.00030214      -0.00036997
