9
Lattice="5.670302570284976 1.2985655687716405e-07 3.273750788798308 1.89010094678168 5.346012545302293 3.273750844933778 -4.976676574385669e-08 3.356120090543908e-08 6.5475016637951695" Properties=species:S:1:pos:R:3:forces:R:3 energy=-41.95394515991211 free_energy=-41.95394515991211 stress="-0.00020755470904987305 -5.270407221757978e-09 3.691347449930049e-09 -5.270407221757978e-09 -0.0002075989032164216 1.770309765447564e-08 3.691347449930049e-09 1.770309765447564e-08 -0.00020754979050252587" pbc="T T T"
Cs       1.89010075       1.33650283       3.27375094       0.00000046       0.00000118       0.00000011
Cs       5.67030206       4.00950961       9.82125380       0.00000081       0.00000001      -0.00000179
Ir      -0.00000007       0.00000022       0.00000002       0.00000504       0.00000746      -0.00000555
F        1.61101079       1.13915650       6.54750144       0.00604190       0.00427364       0.00000128
F        5.94939328       4.20685628       6.54750092      -0.00605099      -0.00427826       0.00000090
F        4.86479704       1.13915638       4.66892700      -0.00302310       0.00427572       0.00523552
F        2.69560598       4.20685628       8.42607668       0.00302348      -0.00427580      -0.00523709
F        2.69560636       4.20685654       4.66892620       0.00302567      -0.00427914       0.00524168
F        4.86479755       1.13915613       8.42607619      -0.00302324       0.00427526      -0.00523503
