9
Lattice="6.4998910400573955 2.2515107649933123e-07 3.7527140722906824 2.1666305307681357 6.128156377504374 3.7527141211209827 4.313592043436343e-08 9.030642720135094e-08 7.505428069867743" Properties=species:S:1:pos:R:3:forces:R:3 energy=-32.97149658203125 free_energy=-32.97149658203125 stress="-1.4266875041357707e-05 -2.638947016464499e-08 -1.9972206999341324e-08 -2.638947016464499e-08 -1.4241516510082874e-05 2.5971209183239807e-08 -1.9972206999341324e-08 2.5971209183239807e-08 -1.4213791473594029e-05" pbc="T T T"
Cs       2.16663053       1.53203928       3.75271404       0.00000024       0.00000004      -0.00000007
Cs       6.49989147       4.59611747      11.25814183      -0.00000040       0.00000011       0.00000040
Ir       0.00000021      -0.00000013       0.00000049       0.00000382       0.00000264      -0.00001829
Cl       1.92032324       1.35787381       7.50542794       0.00518167       0.00366290       0.00000105
Cl       6.74619823       4.77028280       7.50542822      -0.00518492      -0.00366576       0.00000010
Cl       5.53972934       1.35787378       5.41576305      -0.00259076       0.00366412       0.00448936
Cl       3.12679212       4.77028287       9.59509322       0.00258747      -0.00365898      -0.00447911
Cl       3.12679187       4.77028296       5.41576300       0.00259215      -0.00366497       0.00448918
Cl       5.53972945       1.35787402       9.59509350      -0.00258914       0.00366002      -0.00448269
