9
Lattice="6.819713794530229 1.6384169600002208e-08 3.937363654964512 2.273238023620203 6.429687685371806 3.937363522180386 6.03202558497792e-08 -1.1997377059834002e-07 7.874727205451225" Properties=species:S:1:pos:R:3:forces:R:3 energy=-31.734790802001953 free_energy=-31.734790802001953 stress="0.00023414612223859876 4.072638670749029e-09 1.847750219496902e-08 4.072638670749029e-09 0.00023414177121594548 -8.647102589520728e-09 1.847750219496902e-08 -8.647102589520728e-09 0.00023422087542712688" pbc="T T T"
Cs       2.27323708       1.60742130       3.93736363       0.00000125       0.00000031      -0.00000034
Cs       6.81971419       4.82226586      11.81209186      -0.00000040       0.00000022      -0.00000068
Mn      -0.00000251      -0.00000000       0.00000176       0.00003284       0.00000009      -0.00002408
Br       1.98118075       1.40090630       7.87472711      -0.00719502      -0.00508773       0.00000031
Br       7.11177184       5.02878169       7.87472639       0.00717797       0.00507668       0.00000249
Br       5.82912485       1.40090584       5.65311664       0.00358578      -0.00507593      -0.00621878
Br       3.26382834       5.02878174      10.09633624      -0.00359837       0.00508726       0.00623729
Br       3.26382874       5.02878203       5.65311705      -0.00359594       0.00508148      -0.00622710
Br       5.82912425       1.40090561      10.09633659       0.00359190      -0.00508222       0.00623089
