9
Lattice="7.246075689777153 -9.635742010207355e-07 4.183524483780439 2.4153570264015327 6.831666756239389 4.183525572185744 -6.841266105978452e-07 8.492682173567073e-07 8.36705015250297" Properties=species:S:1:pos:R:3:forces:R:3 energy=-29.303970336914062 free_energy=-29.303970336914062 stress="-2.6866890038945712e-05 -9.639192910526617e-08 -2.6529765051463983e-08 -9.639192910526617e-08 -2.683050843188539e-05 1.1711065894814965e-08 -2.6529765051463983e-08 1.1711065894814965e-08 -2.6701020033215173e-05" pbc="T T T"
Cs       2.41535750       1.70791728       4.18352495       0.00000047      -0.00000034      -0.00000010
Cs       7.24607412       5.12374935      12.55057513      -0.00000047      -0.00000055       0.00000024
Mo       0.00000138      -0.00000114      -0.00000032      -0.00001118       0.00001514      -0.00000187
I        2.29020636       1.61942155       8.36704987       0.00264975       0.00187421      -0.00000009
I        7.37122599       5.21224621       8.36705081      -0.00265059      -0.00187562      -0.00000086
I        6.10096996       1.61941954       6.16690544      -0.00131422       0.00186399       0.00227505
I        3.56046145       5.21224635      10.56719541       0.00131914      -0.00186820      -0.00228241
I        3.56046049       5.21224590       6.16690531       0.00132269      -0.00186990       0.00228745
I        6.10097096       1.61942166      10.56719409      -0.00131552       0.00186133      -0.00227717
