9
Lattice="6.791852087686632 -2.730197498890589e-07 3.9212781045322167 2.2639504843641984 6.403419748202956 3.9212780250755803 1.4272695037478146e-07 3.609429061251178e-09 7.8425559618536855" Properties=species:S:1:pos:R:3:forces:R:3 energy=-33.083946228027344 free_energy=-33.083946228027344 stress="9.342837074655108e-06 -7.006206459436726e-08 1.240770508559308e-08 -7.006206459436726e-08 9.393768777954392e-06 -1.2559226547637081e-08 1.240770508559308e-08 -1.2559226547637081e-08 9.443358976568561e-06" pbc="T T T"
Cs       2.26395060       1.60085483       3.92127795       0.00000027      -0.00000058       0.00000001
Cs       6.79185202       4.80256437      11.76383402      -0.00000004       0.00000076      -0.00000020
Mo      -0.00000060       0.00000008       0.00000068       0.00000976      -0.00000023      -0.00000987
Br       2.10436665       1.48801167       7.84255610       0.00066406       0.00046921      -0.00000018
Br       6.95143650       4.91540802       7.84255599      -0.00067078      -0.00047399       0.00000015
Br       5.73966887       1.48801175       5.74371325      -0.00033259       0.00046985       0.00057639
Br       3.31613421       4.91540749       9.94139855       0.00032780      -0.00046320      -0.00056873
Br       3.31613418       4.91540750       5.74371357       0.00032970      -0.00046615       0.00057189
Br       5.73966832       1.48801222       9.94139820      -0.00032819       0.00046428      -0.00056955
