9
Lattice="7.28694850726069 1.9102231811278063e-06 4.207120221286604 2.4289842576092835 6.870201159925071 4.207120877941654 -4.1753543703346223e-07 5.089926787683039e-07 8.414241165765826" Properties=species:S:1:pos:R:3:forces:R:3 energy=-28.28510284423828 free_energy=-28.28510284423828 stress="1.9236065782024525e-05 -1.2181097908126048e-08 3.4611080668156546e-10 -1.2181097908126048e-08 1.922130468301475e-05 -3.948085858240802e-09 3.4611080668156546e-10 -3.948085858240802e-09 1.92282041098224e-05" pbc="T T T"
Cs       2.42898310       1.71755032       4.20712105       0.00000007       0.00000066      -0.00000087
Cs       7.28694935       5.15265273      12.62136186       0.00000030      -0.00000034       0.00000084
Mn      -0.00000052       0.00000039      -0.00000062       0.00000144      -0.00000158       0.00000284
I        2.32541828       1.64431921       8.41424091       0.00168746       0.00119334       0.00000008
I        7.39051377       5.22588516       8.41424141      -0.00168697      -0.00119418      -0.00000010
I        6.12423985       1.64431784       6.22098767      -0.00084326       0.00119440       0.00146253
I        3.59169263       5.22588578      10.60749407       0.00084298      -0.00119450      -0.00146185
I        3.59169210       5.22588618       6.22098867       0.00084065      -0.00119443       0.00145957
I        6.12424075       1.64431688      10.60749415      -0.00084269       0.00119663      -0.00146322
