9
Lattice="6.500601024988282 -4.929058575312934e-08 3.753123772952867 2.1668669546421495 6.128825410308091 3.7531237854506174 -7.582598113170788e-08 -3.8310377667133547e-08 7.506247677240219" Properties=species:S:1:pos:R:3:forces:R:3 energy=-34.80714797973633 free_energy=-34.80714797973633 stress="1.954789513547439e-05 1.2235772395285949e-08 -4.519817298209716e-10 1.2235772395285949e-08 1.9504379451973364e-05 3.109881463458919e-09 -4.519817298209716e-10 3.109881463458919e-09 1.9503981093293987e-05" pbc="T T T"
Cs       2.16686706       1.53220582       3.75312365       0.00000006       0.00000062       0.00000023
Cs       6.50060070       4.59661871      11.25937120       0.00000008       0.00000008       0.00000039
Mn      -0.00000016      -0.00000016      -0.00000061       0.00000201      -0.00000107       0.00001763
Cl       1.88244725       1.33109158       7.50624751       0.00000775       0.00000532       0.00000046
Cl       6.78501979       4.79773417       7.50624764      -0.00000510      -0.00000623      -0.00000012
Cl       5.55937732       1.33109089       5.38337090      -0.00000250       0.00000475       0.00000542
Cl       3.10809093       4.79773497       9.62912501       0.00000522      -0.00001064      -0.00001150
Cl       3.10809101       4.79773442       5.38337091       0.00000103      -0.00000425       0.00000343
Cl       5.55937769       1.33109071       9.62912517      -0.00000867       0.00001128      -0.00001583
