9
Lattice="6.524683450558188 -1.48663159941347e-07 3.7670280490832155 2.1748944319483465 6.151530355314159 3.7670278956410015 1.3970584939699685e-07 -8.914072609435712e-08 7.53405585618867" Properties=species:S:1:pos:R:3:forces:R:3 energy=-36.83452606201172 free_energy=-36.83452606201172 stress="2.352893898205366e-05 -4.4032940849092483e-08 1.2492580303558043e-08 -4.4032940849092483e-08 2.355077231186442e-05 -1.8042365823589535e-08 1.2492580303558043e-08 -1.8042365823589535e-08 2.3596991013619117e-05" pbc="T T T"
Cs       2.17489471       1.53788243       3.76702798      -0.00000019       0.00000086       0.00000020
Cs       6.52468316       4.61364738      11.30108306       0.00000049      -0.00000025       0.00000080
Mo       0.00000034       0.00000002       0.00000039      -0.00000528      -0.00000334      -0.00000439
Cl       1.96727249       1.39107103       7.53405584       0.00039795       0.00028248       0.00000029
Cl       6.73230483       4.76045854       7.53405629      -0.00039151      -0.00027776      -0.00000076
Cl       5.54104690       1.39107167       5.47073636      -0.00019574       0.00027771       0.00033894
Cl       3.15853137       4.76045845       9.59737528       0.00019343      -0.00027636      -0.00033668
Cl       3.15853124       4.76045862       5.47073678       0.00019412      -0.00027610       0.00033596
Cl       5.54104699       1.39107229       9.59737512      -0.00019339       0.00027272      -0.00033437
