9
Lattice="5.715635303322512 8.233599052613066e-08 3.2999235071077653 1.9052118075798616 5.388752718366666 3.2999235726161285 7.76415848730457e-08 1.3513197756138034e-07 6.599846879736252" Properties=species:S:1:pos:R:3:forces:R:3 energy=-45.07691955566406 free_energy=-45.07691955566406 stress="-0.0003787559107877314 1.6296477500787887e-09 -1.9711599463789753e-08 1.6296477500787887e-09 -0.0003787896712310612 3.731873476908731e-09 -1.9711599463789753e-08 3.731873476908731e-09 -0.0003788025351241231" pbc="T T T"
Cs       1.90521206       1.34718860       3.29992347       0.00000062       0.00000275      -0.00000084
Cs       5.71563554       4.04156454       9.89976954       0.00000199       0.00000056       0.00000056
Mo       0.00000001       0.00000010       0.00000021      -0.00000207      -0.00000129       0.00000054
F        1.64472202       1.16299414       6.59984715       0.00320870       0.00226808      -0.00000105
F        5.97612531       4.22575858       6.59984749      -0.00320846      -0.00226876      -0.00000082
F        4.89327423       1.16299410       4.72429415      -0.00160590       0.00226891       0.00278014
F        2.72757278       4.22575872       8.47539998       0.00160466      -0.00226861      -0.00277951
F        2.72757258       4.22575912       4.72429401       0.00160456      -0.00227046       0.00278088
F        4.89327430       1.16299402       8.47540013      -0.00160415       0.00226879      -0.00277972
