9
Lattice="5.664572604259106 -1.3087012846964276e-07 3.270442398633841 1.8881907729805543 5.340610185502931 3.2704423496518733 -1.0178131418985647e-07 -1.3196064416120687e-07 6.540884973558043" Properties=species:S:1:pos:R:3:forces:R:3 energy=-44.219085693359375 free_energy=-44.219085693359375 stress="-2.7308320568408817e-05 -1.091775203576617e-08 3.0606781109554504e-08 -1.091775203576617e-08 -2.7277077606413513e-05 -3.0958826613414203e-09 3.0606781109554504e-08 -3.0958826613414203e-09 -2.7352431061444804e-05" pbc="T T T"
Cs       1.88819091       1.33515311       3.27044235       0.00000027       0.00000022       0.00000038
Cs       5.66457222       4.00545783       9.81132760      -0.00000027      -0.00000054      -0.00000043
Mn      -0.00000029       0.00000002      -0.00000021       0.00001182      -0.00000548       0.00000633
F        1.51367194       1.07032771       6.54088485       0.00412390       0.00291485      -0.00000085
F        6.03909122       4.27028226       6.54088468      -0.00412694      -0.00291790       0.00000083
F        4.90773677       1.07032788       4.58132098      -0.00206432       0.00291744       0.00357684
F        2.64502677       4.27028175       8.50044952       0.00206126      -0.00291571      -0.00357628
F        2.64502686       4.27028153       4.58132010       0.00205956      -0.00291343       0.00357100
F        4.90773645       1.07032761       8.50044882      -0.00206517       0.00292051      -0.00357784
