9
Lattice="6.722199878282636 -3.17563245006698e-07 3.881063899079065 2.2407332506352415 6.337750409083491 3.8810634534640824 3.576137908644419e-07 -2.928935334244161e-07 7.7621271787527375" Properties=species:S:1:pos:R:3:forces:R:3 energy=-25.90056610107422 free_energy=-25.90056610107422 stress="4.13133011534228e-06 -3.4970653040033994e-09 -7.002450286286432e-10 -3.4970653040033994e-09 4.127812644583173e-06 -1.117919357085384e-08 -7.002450286286432e-10 -1.117919357085384e-08 4.103701030544471e-06" pbc="T T T"
Cs       2.24073350       1.58443809       3.88106377       0.00000020      -0.00000117      -0.00000025
Cs       6.72220052       4.75331200      11.64319105      -0.00000046       0.00000089      -0.00000007
Ni      -0.00000068      -0.00000019       0.00000039       0.00000894       0.00000342      -0.00000581
Br       2.01303459       1.42343009       7.76212702       0.00094628       0.00066832       0.00000020
Br       6.94989959       4.91432053       7.76212787      -0.00095534      -0.00067431      -0.00000073
Br       5.71568295       1.42342916       5.62440098      -0.00047608       0.00067437       0.00082648
Br       3.24725022       4.91432000       9.89985276       0.00047481      -0.00066969      -0.00082216
Br       3.24725010       4.91432023       5.62440125       0.00047691      -0.00067210       0.00082493
Br       5.71568329       1.42342941       9.89985286      -0.00047514       0.00067025      -0.00082231
