9
Lattice="6.598508128782866 -1.1359004034956597e-07 3.809650295414971 2.199502479153348 6.221133261138336 3.8096505090586894 -3.06225571210702e-07 4.5124985932360096e-08 7.619301121227755" Properties=species:S:1:pos:R:3:forces:R:3 energy=-37.852909088134766 free_energy=-37.852909088134766 stress="8.068625174928457e-05 -4.412375531614998e-08 -3.3612291616691437e-08 -4.412375531614998e-08 8.071667980402708e-05 2.1596688881686532e-08 -3.3612291616691437e-08 2.1596688881686532e-08 8.073332719504833e-05" pbc="T T T"
Cs       2.19950255       1.55528322       3.80964998      -0.00000068      -0.00000014       0.00000014
Cs       6.59850779       4.66584993      11.42895137       0.00000061       0.00000026       0.00000038
Nb      -0.00000120      -0.00000122      -0.00000152       0.00001947       0.00001872       0.00002720
Cl       1.99516132       1.41079237       7.61930088      -0.00154647      -0.00109336       0.00000069
Cl       6.80285057       4.81034224       7.61930069       0.00152306       0.00107658      -0.00000016
Cl       5.60092669       1.41079280       5.53751169       0.00077641      -0.00109625      -0.00134328
Cl       3.19708292       4.81034055       9.70109153      -0.00076665       0.00108448       0.00132698
Cl       3.19708334       4.81034087       5.53751116      -0.00077138       0.00109197      -0.00133684
Cl       5.60092716       1.41079195       9.70109177       0.00076572      -0.00108230       0.00132480
