9
Lattice="7.238971840283483 -8.127888809840862e-07 4.179422822632299 2.412991190907321 6.824967036435005 4.179420495130478 1.0084123576497448e-06 -2.1375411239593784e-06 8.358843898643418" Properties=species:S:1:pos:R:3:forces:R:3 energy=-23.21896743774414 free_energy=-23.21896743774414 stress="-7.010586705291644e-05 3.8853904982261156e-08 -2.1425956564513626e-09 3.8853904982261156e-08 -7.012627611402422e-05 -8.307337928670222e-09 -2.1425956564513626e-09 -8.307337928670222e-09 -7.015551818767563e-05" pbc="T T T"
Cs       2.41299184       1.70624061       4.17942157      -0.00000092       0.00000006      -0.00000086
Cs       7.23897243       5.11872379      12.53826584       0.00000061      -0.00000026       0.00000054
Ni       0.00000028       0.00000006       0.00000017      -0.00000152      -0.00000002       0.00000041
I        2.23277889       1.57881427       8.35884186       0.00665888       0.00470738       0.00000175
I        7.41918531       5.24614903       8.35884349      -0.00665748      -0.00470662      -0.00000149
I        6.12257760       1.57881023       6.11306378      -0.00332793       0.00470956       0.00576578
I        3.52938565       5.24615256      10.60462439       0.00332824      -0.00470991      -0.00576752
I        3.52938275       5.24615386       6.11306747       0.00332978      -0.00470649       0.00576448
I        6.12258149       1.57881179      10.60462018      -0.00332965       0.00470629      -0.00576301
