9
Lattice="7.355983738613405 3.774791919269404e-07 4.246978865915611 2.4519945867434663 6.935287847523993 4.246979469856082 -1.642665722424465e-07 6.23518990399883e-07 8.493958016349294" Properties=species:S:1:pos:R:3:forces:R:3 energy=-30.043373107910156 free_energy=-30.043373107910156 stress="2.873441417250433e-06 7.009185054585032e-08 -1.0895170099445295e-08 7.009185054585032e-08 2.80330641544424e-06 1.2697803697392374e-08 -1.0895170099445295e-08 1.2697803697392374e-08 2.7889075226994464e-06" pbc="T T T"
Cs       2.45199115       1.73382192       4.24697797       0.00000120       0.00000065      -0.00000004
Cs       7.35598646       5.20146690      12.74093789      -0.00000111      -0.00000023      -0.00000021
Nb      -0.00000007      -0.00000018       0.00000037      -0.00000067      -0.00000181      -0.00000454
I        2.31155378       1.63451499       8.49395822       0.00082756       0.00058579      -0.00000009
I        7.49642436       5.30077377       8.49395873      -0.00082475      -0.00058436      -0.00000051
I        6.20020752       1.63451392       6.24884195      -0.00041947       0.00059309       0.00072375
I        3.60777100       5.30077496      10.73907414       0.00041608      -0.00059066      -0.00072043
I        3.60777098       5.30077453       6.24884247       0.00041956      -0.00059450       0.00072481
I        6.20020752       1.63451470      10.73907360      -0.00041840       0.00059199      -0.00072272
