9
Lattice="5.660565487611494 -2.4336339305924424e-07 3.2681291703626707 1.8868552089553388 5.336832426100002 3.2681286925530033 2.0068015563724446e-07 -4.432925661075952e-07 6.536257993137201" Properties=species:S:1:pos:R:3:forces:R:3 energy=-34.89189529418945 free_energy=-34.89189529418945 stress="7.158717835409334e-06 -9.79322791749837e-08 4.829212585377718e-08 -9.79322791749837e-08 7.320515578612685e-06 -3.9274514307408026e-08 4.829212585377718e-08 -3.9274514307408026e-08 7.257039669639198e-06" pbc="T T T"
Cs       1.88685599       1.33420921       3.26812746      -0.00000036       0.00000055      -0.00000004
Cs       5.66056480       4.00262357       9.80438498       0.00000033      -0.00000023       0.00000035
Ni       0.00000012      -0.00000017       0.00000024       0.00000409       0.00000024      -0.00000072
F        1.47139102       1.04043057       6.53625901      -0.00112787      -0.00079939      -0.00000129
F        6.07603002       4.29640085       6.53625884       0.00112337       0.00079679       0.00000068
F        4.92486992       1.04043143       4.54239085       0.00056587      -0.00080185      -0.00097883
F        2.62255091       4.29640026       8.53012470      -0.00056732       0.00080468       0.00098243
F        2.62255095       4.29640031       4.54239117      -0.00056814       0.00080524      -0.00098523
F        4.92486905       1.04043092       8.53012513       0.00057004      -0.00080596       0.00098285
