9
Lattice="7.2713931283919715 1.706628510972741e-08 4.198139570912758 2.423797701891697 6.855534262334063 4.198139611897851 -2.2498587703350823e-07 -1.0889280998362858e-07 8.396279531512471" Properties=species:S:1:pos:R:3:forces:R:3 energy=-27.965774536132812 free_energy=-27.965774536132812 stress="1.8282935343449935e-05 6.19610247554192e-08 -1.1588226378478339e-08 6.19610247554192e-08 1.8283588360645808e-05 8.408036933360563e-09 -1.1588226378478339e-08 8.408036933360563e-09 1.826009975047782e-05" pbc="T T T"
Cs       2.42379789       1.71388341       4.19813982       0.00000050      -0.00000172      -0.00000025
Cs       7.27139290       5.14165062      12.59441924      -0.00000048       0.00000183      -0.00000066
Os      -0.00000026       0.00000020      -0.00000316       0.00000374      -0.00000203       0.00003260
I        2.22721114       1.57487906       8.39627910      -0.00047229      -0.00033807      -0.00000114
I        7.46797905       5.28065525       8.39627946       0.00047210       0.00033695       0.00000142
I        6.15778978       1.57487691       6.12696206       0.00023628      -0.00033648      -0.00041208
I        3.53740157       5.28065882      10.66559770      -0.00022940       0.00032513       0.00039836
I        3.53740118       5.28065725       6.12696272      -0.00023784       0.00033815      -0.00041517
I        6.15778908       1.57487507      10.66559788       0.00022737      -0.00032382       0.00039683
