9
Lattice="6.7734843424975235 2.6940487489601354e-07 3.9106726750108174 2.2578282593987993 6.386102086310097 3.9106728633961705 -8.731391529612623e-08 1.6898372194328442e-07 7.82134550125384" Properties=species:S:1:pos:R:3:forces:R:3 energy=-31.400157928466797 free_energy=-31.400157928466797 stress="-5.648656588164158e-05 5.381982148833231e-08 -3.6368781763940206e-08 5.381982148833231e-08 -5.652103936881758e-05 4.933217567781867e-08 -3.6368781763940206e-08 4.933217567781867e-08 -5.6591325119370595e-05" pbc="T T T"
Cs       2.25782844       1.59652579       3.91067272      -0.00000032       0.00000000       0.00000026
Cs       6.77348472       4.78957671      11.73201825      -0.00000030       0.00000036      -0.00000007
Os      -0.00000012       0.00000005       0.00000035       0.00000411      -0.00000807      -0.00000133
Br       2.05429852       1.45260868       7.82134548       0.00723621       0.00511611       0.00000042
Br       6.97701389       4.93349419       7.82134543      -0.00723471      -0.00511618       0.00000054
Br       5.74633491       1.45260831       5.68974617      -0.00362069       0.00512089       0.00627385
Br       3.28497737       4.93349382       9.95294353       0.00361805      -0.00511622      -0.00626680
Br       3.28497698       4.93349438       5.68974672       0.00362147      -0.00512195       0.00627352
Br       5.74633533       1.45260805       9.95294559      -0.00362379       0.00512509      -0.00628015
