9
Lattice="5.590022250219584 1.3170906532016419e-08 3.227401179197702 1.8633407400125785 5.270323606575414 3.2274012181313148 -5.6850220213956506e-08 7.484515839420449e-09 6.454802456862846" Properties=species:S:1:pos:R:3:forces:R:3 energy=-45.016510009765625 free_energy=-45.016510009765625 stress="-0.00019900381448678672 -2.875591986750692e-09 1.2813885064133501e-08 -2.875591986750692e-09 -0.00019896580488421023 -1.533536964082316e-09 1.2813885064133501e-08 -1.533536964082316e-09 -0.0001989357260754332" pbc="T T T"
Cs       1.86334013       1.31758074       3.22740151       0.00000140      -0.00000003      -0.00000095
Cs       5.59002245       3.95274318       9.68220304      -0.00000011      -0.00000007      -0.00000018
Os       0.00000004       0.00000001       0.00000015       0.00000010      -0.00000508      -0.00000062
F        1.62863892       1.15162169       6.45480251       0.00084351       0.00059543       0.00000014
F        5.82472380       4.11870173       6.45480260      -0.00084114      -0.00059470      -0.00000054
F        4.77570287       1.15162157       4.63784458      -0.00042211       0.00059635       0.00072867
F        2.67766051       4.11870212       8.27176039       0.00041908      -0.00059348      -0.00072540
F        2.67765992       4.11870211       4.63784444       0.00042069      -0.00059440       0.00072666
F        4.77570310       1.15162140       8.27176027      -0.00042138       0.00059597      -0.00072780
