9
Lattice="5.875723179160897 -1.8916721362083404e-07 3.3923502650078903 1.9585741931631513 5.5396849581317 3.3923503023196226 -9.988927452973645e-08 -2.4935061399596175e-08 6.7847007030290865" Properties=species:S:1:pos:R:3:forces:R:3 energy=-38.59471130371094 free_energy=-38.59471130371094 stress="3.540373654686846e-05 8.911070104034025e-09 -5.107003264726018e-09 8.911070104034025e-09 3.538396777003072e-05 6.339320179904462e-08 -5.107003264726018e-09 6.339320179904462e-08 3.5416836908552796e-05" pbc="T T T"
Cs       1.95857472       1.38492125       3.39235011      -0.00000035      -0.00000034      -0.00000051
Cs       5.87572286       4.15476323      10.17705091       0.00000006       0.00000026       0.00000036
Pb       0.00000000       0.00000009      -0.00000043      -0.00000690       0.00000139       0.00000616
F        1.72718450       1.22130379       6.78470066       0.00563720       0.00398622       0.00000158
F        6.10711260       4.31838087       6.78470053      -0.00563347      -0.00398465       0.00000022
F        5.01213046       1.22130384       4.88813602      -0.00281732       0.00398377       0.00487721
F        2.82216630       4.31838117       8.68126557       0.00281942      -0.00398824      -0.00488511
F        2.82216663       4.31838123       4.88813563       0.00281948      -0.00398585       0.00488378
F        5.01213108       1.22130343       8.68126591      -0.00281814       0.00398733      -0.00488351
