9
Lattice="6.453099247419703 -2.8564718251224605e-07 3.7256987942160853 2.1510330240797417 6.0840401828815205 3.7256984288967336 1.4348894866335355e-07 -3.459610368137303e-07 7.451397339901981" Properties=species:S:1:pos:R:3:forces:R:3 energy=-28.61842155456543 free_energy=-28.61842155456543 stress="8.08383720141137e-06 -6.016057430002775e-09 6.69149144982839e-08 -6.016057430002775e-09 8.095765224425122e-06 -9.41119324693318e-08 6.69149144982839e-08 -9.41119324693318e-08 8.106847417366225e-06" pbc="T T T"
Cs       2.15103270       1.52100972       3.72569868       0.00000073      -0.00000011      -0.00000001
Cs       6.45309905       4.56302955      11.17709561       0.00000014      -0.00000004       0.00000020
Pd      -0.00000007       0.00000001       0.00000017      -0.00000524       0.00001354       0.00000183
Cl       1.92096619       1.35832816       7.45139725       0.00112312       0.00079359      -0.00000011
Cl       6.68316595       4.72571097       7.45139712      -0.00112411      -0.00079362      -0.00000027
Cl       5.49261686       1.35832767       5.38930465      -0.00056347       0.00079468       0.00097236
Cl       3.11151608       4.72571211       9.51349151       0.00056666      -0.00080200      -0.00098377
Cl       3.11151651       4.72571147       5.38930436       0.00055944      -0.00079185       0.00097071
Cl       5.49261633       1.35832850       9.51348895      -0.00055721       0.00078575      -0.00096099
