9
Lattice="6.764763024098096 2.0723199088542197e-07 3.905638192391964 2.254921152811691 6.377879778888787 3.905638280035834 1.3153973027830003e-07 2.003540109536904e-07 7.811276156950423" Properties=species:S:1:pos:R:3:forces:R:3 energy=-28.581972122192383 free_energy=-28.581972122192383 stress="0.00013248341565486044 -3.5493136207875864e-10 -1.770535362766168e-08 -3.5493136207875864e-10 0.00013248328468762338 2.494573081435192e-08 -1.770535362766168e-08 2.494573081435192e-08 0.00013251224299892783" pbc="T T T"
Cs       2.25492087       1.59446990       3.90563827       0.00000004       0.00000012      -0.00000029
Cs       6.76476321       4.78341024      11.71691452       0.00000003      -0.00000025       0.00000031
Pb      -0.00000048       0.00000072      -0.00000027       0.00000677      -0.00001191       0.00000422
Cl       2.10649375       1.48951593       7.81127602       0.00324157       0.00229196      -0.00000012
Cl       6.91319018       4.88836391       7.81127662      -0.00323957      -0.00229086      -0.00000001
Cl       5.71151642       1.48951587       5.72991568      -0.00162098       0.00229385       0.00280689
Cl       3.30816831       4.88836425       9.89263660       0.00161787      -0.00229033      -0.00280179
Cl       3.30816820       4.88836435       5.72991585       0.00161915      -0.00229027       0.00280254
Cl       5.71151681       1.48951552       9.89263715      -0.00162491       0.00229766      -0.00281189
