9
Lattice="7.144308655127321 -7.144242650704284e-08 4.124768837024066 2.381436348474135 6.735718261913658 4.124768495022314 2.498106089305122e-07 -2.4222213323417503e-07 8.249537241363498" Properties=species:S:1:pos:R:3:forces:R:3 energy=-25.752113342285156 free_energy=-25.752113342285156 stress="1.807384796848055e-05 -1.6973206840020794e-08 2.112931829501008e-09 -1.6973206840020794e-08 1.809979585232213e-05 4.855317925489544e-09 2.112931829501008e-09 4.855317925489544e-09 1.8117689251084812e-05" pbc="T T T"
Cs       2.38143612       1.68392926       4.12476873       0.00000029      -0.00000079       0.00000091
Cs       7.14430904       5.05178829      12.37430600      -0.00000030       0.00000063      -0.00000083
Pb       0.00000211       0.00000077      -0.00000114      -0.00001106      -0.00000519       0.00000710
Br       2.34636820       1.65913478       8.24953725       0.00025357       0.00017725      -0.00000100
Br       7.17937478       5.07658256       8.24953701      -0.00024363      -0.00017028       0.00000145
Br       5.97112342       1.65913510       6.15678555      -0.00012218       0.00017121       0.00021070
Br       3.55462104       5.07658352      10.34228952       0.00012506      -0.00017519      -0.00021517
Br       3.55462296       5.07658412       6.15678631       0.00012173      -0.00017252       0.00021003
Br       5.97112325       1.65913331      10.34228906      -0.00012355       0.00017491      -0.00021321
