9
Lattice="6.836344395260337 2.7265898594357684e-07 3.946965132138251 2.2787819862795278 6.445366687322125 3.9469646746560594 2.8438406139746637e-07 -3.5920904485306813e-07 7.893929771709035" Properties=species:S:1:pos:R:3:forces:R:3 energy=-25.862497329711914 free_energy=-25.862497329711914 stress="5.090095510240644e-05 1.43102568017639e-07 1.4579387475066596e-08 1.43102568017639e-07 5.0793500122381374e-05 -1.5735095004743016e-08 1.4579387475066596e-08 -1.5735095004743016e-08 5.069166945759207e-05" pbc="T T T"
Cs       2.27878201       1.61134171       3.94696501      -0.00000006      -0.00000014      -0.00000013
Cs       6.83634439       4.83402476      11.84089436       0.00000031       0.00000004       0.00000023
Pd      -0.00000050      -0.00000011      -0.00000012       0.00001047       0.00000139       0.00000209
Br       2.05411509       1.45247751       7.89392993      -0.00034165      -0.00024092      -0.00000022
Br       7.06101152       4.99288918       7.89393003       0.00033508       0.00023689       0.00000005
Br       5.80928857       1.45247647       5.72587774       0.00015996      -0.00022568      -0.00027602
Br       3.30583825       4.99289029      10.06198218      -0.00016137       0.00022602       0.00027683
Br       3.30583815       4.99289031       5.72587719      -0.00016198       0.00022812      -0.00027916
Br       5.80928921       1.45247630      10.06198202       0.00015917      -0.00022582       0.00027633
