9
Lattice="6.671408215873277 9.332081915150014e-07 3.851739016747893 2.22380277166998 6.289865024595022 3.851740483433311 -7.852739975306571e-07 1.2410433720163908e-06 7.703479393629539" Properties=species:S:1:pos:R:3:forces:R:3 energy=-28.829238891601562 free_energy=-28.829238891601562 stress="5.3249968914315104e-06 6.607523062029941e-08 -6.614877179345058e-08 6.607523062029941e-08 5.1985525715281256e-06 1.389387875860848e-07 -6.614877179345058e-08 1.389387875860848e-07 5.135629635333316e-06" pbc="T T T"
Cs       2.22380292       1.57246653       3.85173994      -0.00000060      -0.00000031       0.00000011
Cs       6.67140769       4.71740078      11.55522119       0.00000043      -0.00000007      -0.00000119
P       -0.00000097      -0.00000151       0.00000033       0.00001148       0.00002088      -0.00000693
Cl       1.89109547       1.33720710       7.70347846       0.00573060       0.00405367       0.00000102
Cl       7.00411497       4.95266034       7.70347772      -0.00573313      -0.00405945       0.00000580
Cl       5.72586118       1.33720736       5.48947533      -0.00286996       0.00405323       0.00496867
Cl       3.16935023       4.95265873       9.91748317       0.00286390      -0.00405656      -0.00496708
Cl       3.16934937       4.95266203       5.48947462       0.00287325      -0.00407708       0.00498566
Cl       5.72586005       1.33720732       9.91748467      -0.00287600       0.00406580      -0.00498608
