9
Lattice="7.279523141098165 -3.064399656417958e-07 4.202834510463705 2.4265073100417185 6.8632009491278305 4.202834709204986 -2.0375436143119737e-07 9.933122775433458e-08 8.405669373840437" Properties=species:S:1:pos:R:3:forces:R:3 energy=-22.733055114746094 free_energy=-22.733055114746094 stress="3.371080674696714e-05 -1.5879376036309623e-08 1.6007563274911263e-08 -1.5879376036309623e-08 3.370276317582466e-05 -2.4842114143552863e-08 1.6007563274911263e-08 -2.4842114143552863e-08 3.369668411323801e-05" pbc="T T T"
Cs       2.42650776       1.71580058       4.20283493      -0.00000054      -0.00000074       0.00000010
Cs       7.27952280       5.14740006      12.60850332       0.00000071       0.00000051       0.00000030
P        0.00000024       0.00000023       0.00000044      -0.00000097      -0.00000070       0.00000002
I        2.28272895       1.61413099       8.40566881      -0.00063761      -0.00044745      -0.00000195
I        7.42330154       5.24906882       8.40566990       0.00063731       0.00044921       0.00000046
I        6.13815951       1.61413277       6.17973663       0.00031912      -0.00045010      -0.00055189
I        3.56787135       5.24906749      10.63160291      -0.00031958       0.00045144       0.00055005
I        3.56787254       5.24906715       6.17973482      -0.00032234       0.00045099      -0.00055044
I        6.13815620       1.61413498      10.63160256       0.00032393      -0.00045323       0.00055321
