9
Lattice="7.607454519369736 -4.1439133502879633e-08 4.392165665330636 2.5358183203595597 7.1723765246273645 4.392165342640221 1.8520631444673793e-07 -2.6425286819579307e-07 8.784331009874947" Properties=species:S:1:pos:R:3:forces:R:3 energy=-23.166400909423828 free_energy=-23.166400909423828 stress="3.6823457776336e-05 1.560469975459e-08 3.587420138728703e-09 1.560469975459e-08 3.681817906908691e-05 -1.4362731448613886e-08 3.587420138728703e-09 -1.4362731448613886e-08 3.681087400764227e-05" pbc="T T T"
Cs       2.53581817       1.79309425       4.39216553      -0.00000012      -0.00000058       0.00000004
Cs       7.60745505       5.37928217      13.17649659       0.00000010       0.00000015      -0.00000029
Pb       0.00000133       0.00000041       0.00000083      -0.00000441      -0.00000048      -0.00000164
I        2.60347068       1.84093129       8.78433054      -0.00031328      -0.00022228       0.00000048
I        7.53980171       5.33144434       8.78433069       0.00031596       0.00022379       0.00000017
I        6.30571941       1.84093154       6.64683625       0.00015659      -0.00022085      -0.00027010
I        3.83755289       5.33144509      10.92182605      -0.00015555       0.00022087       0.00027004
I        3.83755321       5.33144489       6.64683621      -0.00015629       0.00022201      -0.00027095
I        6.30571966       1.84093090      10.92182535       0.00015697      -0.00022255       0.00027220
