9
Lattice="5.576633636971923 4.3053884225653864e-08 3.2196710838285547 1.8588779062960028 5.257700404483008 3.2196711068409014 8.930561159856741e-08 9.133288754431566e-08 6.439342012975248" Properties=species:S:1:pos:R:3:forces:R:3 energy=-43.05227279663086 free_energy=-43.05227279663086 stress="-3.8038349885027856e-05 2.5965240624259422e-08 -2.3872795296142613e-08 2.5965240624259422e-08 -3.803228901233524e-05 -2.5700479966417333e-08 -2.3872795296142613e-08 -2.5700479966417333e-08 -3.794868098339066e-05" pbc="T T T"
Cs       1.85887864       1.31442500       3.21967136      -0.00000087       0.00000011      -0.00000008
Cs       5.57663346       3.94327535       9.65901374       0.00000054      -0.00000015      -0.00000062
P       -0.00000007      -0.00000002       0.00000003       0.00000461       0.00000182      -0.00000151
F        1.35741305       0.95983577       6.43934200       0.00177395       0.00125474       0.00000009
F        6.07809858       4.29786479       6.43934209      -0.00177920      -0.00125811      -0.00000201
F        4.89792708       0.95983577       4.39522506      -0.00088936       0.00125855       0.00153857
F        2.53758453       4.29786482       8.48345882       0.00088786      -0.00125760      -0.00153649
F        2.53758416       4.29786466       4.39522497       0.00089097      -0.00125653       0.00153825
F        4.89792718       0.95983607       8.48345879      -0.00088848       0.00125739      -0.00153637
