9
Lattice="5.736538408011282 4.075903263755828e-08 3.31199186651189 1.9121795287943002 5.40845995780562 3.311991830088172 -1.374050157586372e-07 -1.4176967054585315e-07 6.623983971016168" Properties=species:S:1:pos:R:3:forces:R:3 energy=-38.72529602050781 free_energy=-38.72529602050781 stress="-5.6270957429660484e-05 1.6799762647679017e-07 -1.4192645281241312e-08 1.6799762647679017e-07 -5.638091533910483e-05 2.641861662766587e-08 -1.4192645281241312e-08 2.641861662766587e-08 -5.6474753364454955e-05" pbc="T T T"
Cs       1.91217897       1.35211448       3.31199247       0.00000007       0.00000038      -0.00000054
Cs       5.73653801       4.05634483       9.93597550       0.00000025      -0.00000029       0.00000038
Pt      -0.00000038      -0.00000025       0.00000020       0.00000884      -0.00000133      -0.00001126
F        1.61756089       1.14378844       6.62398381       0.00166227       0.00117614      -0.00000027
F        6.03115575       4.26467085       6.62398379      -0.00165898      -0.00117347      -0.00000015
F        4.92775841       1.14378841       4.71284026      -0.00084107       0.00118503       0.00145568
F        2.72096005       4.26467288       8.53512713       0.00083425      -0.00118634      -0.00144745
F        2.72096062       4.26467233       4.71284021       0.00083563      -0.00118730       0.00145487
F        4.92775892       1.14378744       8.53512713      -0.00084120       0.00118709      -0.00145135
