9
Lattice="6.454900358856535 -7.031769097594294e-08 3.7267384552813585 2.1516333667543246 6.085738407715079 3.726738489752192 -3.4580581803417976e-08 1.7765944027386925e-08 7.45347697045788" Properties=species:S:1:pos:R:3:forces:R:3 energy=-30.191816329956055 free_energy=-30.191816329956055 stress="9.767160008777864e-06 -6.573844757440384e-08 -1.638402302717168e-09 -6.573844757440384e-08 9.871357178781182e-06 6.767854721090316e-09 -1.638402302717168e-09 6.767854721090316e-09 9.90586522675585e-06" pbc="T T T"
Cs       2.15163317       1.52143495       3.72673860       0.00000063      -0.00000042      -0.00000020
Cs       6.45490036       4.56430335      11.18021560      -0.00000040       0.00000063      -0.00000035
Pt       0.00000006       0.00000004       0.00000028       0.00000322       0.00000191      -0.00000483
Cl       1.92186433       1.35896448       7.45347698       0.00181383       0.00127932       0.00000045
Cl       6.68466962       4.72677376       7.45347699      -0.00181650      -0.00128068       0.00000074
Cl       5.49396807       1.35896455       5.39112262      -0.00090430       0.00127479       0.00156350
Cl       3.11256553       4.72677417       9.51583111       0.00090359      -0.00127555      -0.00156139
Cl       3.11256587       4.72677383       5.39112263       0.00090366      -0.00127515       0.00156328
Cl       5.49396792       1.35896422       9.51583086      -0.00090389       0.00127515      -0.00156113
