9
Lattice="7.331290981197596 -4.843233951314676e-07 4.232723329900839 2.4437633404280747 6.912007872105682 4.2327230932103985 1.4918675843265325e-07 -1.843942822839754e-07 8.465446401402538" Properties=species:S:1:pos:R:3:forces:R:3 energy=-24.19910430908203 free_energy=-24.19910430908203 stress="-1.1536171768966597e-05 5.349514964336777e-08 1.0784839687971726e-09 5.349514964336777e-08 -1.1549812370503787e-05 7.00898838967845e-10 1.0784839687971726e-09 7.00898838967845e-10 -1.1574916243262123e-05" pbc="T T T"
Cs       2.44376336       1.72800207       4.23272366       0.00000005       0.00000022       0.00000004
Cs       7.33129058       5.18400475      12.69816990       0.00000049       0.00000029       0.00000001
Pt      -0.00000026       0.00000104       0.00000113       0.00000197      -0.00001255      -0.00001236
I        2.21601477       1.56695823       8.46544625       0.00158636       0.00112039       0.00000035
I        7.55903908       5.34504789       8.46544634      -0.00158083      -0.00111559       0.00000038
I        6.22328644       1.56695789       6.15184709      -0.00079927       0.00112772       0.00138092
I        3.55176869       5.34504924      10.77904430       0.00079291      -0.00112031      -0.00137027
I        3.55176894       5.34504948       6.15184757       0.00079531      -0.00112438       0.00137617
I        6.22328639       1.56695814      10.77904504      -0.00079702       0.00112420      -0.00137527
