9
Lattice="6.714879980356086 1.73686862074589e-07 3.8768372054091613 2.238293460070345 6.330849210311704 3.8768372581821655 8.113904581221469e-08 1.2200759958478476e-07 7.753674270281427" Properties=species:S:1:pos:R:3:forces:R:3 energy=-26.9755859375 free_energy=-26.9755859375 stress="-9.605500963516533e-06 7.854139738583399e-08 -2.973379586990177e-08 7.854139738583399e-08 -9.673959539213683e-06 1.6188238305403502e-08 -2.973379586990177e-08 1.6188238305403502e-08 -9.769215466803871e-06" pbc="T T T"
Cs       2.23829389       1.58271209       3.87683780      -0.00000051       0.00000031      -0.00000041
Cs       6.71488001       4.74813719      11.63051091       0.00000030       0.00000016       0.00000036
Pt       0.00000053      -0.00000083      -0.00000097      -0.00000641       0.00001577       0.00001014
Br       2.04581627       1.44661119       7.75367406       0.00202414       0.00143054       0.00000009
Br       6.90735714       4.88423921       7.75367490      -0.00202636      -0.00143462      -0.00000140
Br       5.69197171       1.44660988       5.64856463      -0.00101325       0.00143429       0.00175778
Br       3.26120140       4.88423978       9.85878448       0.00101968      -0.00144329      -0.00176873
Br       3.26120092       4.88423932       5.64856407       0.00101959      -0.00144116       0.00176636
Br       5.69197219       1.44661019       9.85878487      -0.00101719       0.00143796      -0.00176419
