9
Lattice="7.411101491603349 -9.719330166567172e-07 4.278802246226835 2.4703661105129058 6.987254231773232 4.278802483531141 -1.4215845163202892e-07 1.9011586748136615e-07 8.557604738679274" Properties=species:S:1:pos:R:3:forces:R:3 energy=-23.281028747558594 free_energy=-23.281028747558594 stress="0.00012959798914380372 -3.5046387125703404e-08 -4.079569126957949e-09 -3.5046387125703404e-08 0.00012961809989064932 4.53592496896249e-09 -4.079569126957949e-09 4.53592496896249e-09 0.00012964698544237763" pbc="T T T"
Cs       2.47036792       1.74681373       4.27880234      -0.00000080      -0.00000018       0.00000004
Cs       7.41110064       5.24044029      12.83640820       0.00000057       0.00000019      -0.00000018
Pd      -0.00000038       0.00000022       0.00000169       0.00000461      -0.00000289      -0.00001801
I        2.23661986       1.58152577       8.55760457      -0.00438033      -0.00309644       0.00000045
I        7.64484793       5.40572754       8.55760484       0.00437844       0.00309447       0.00000016
I        6.29279093       1.58152949       6.21577053       0.00219091      -0.00309620      -0.00379084
I        3.58867655       5.40572332      10.89943726      -0.00219705       0.00310570       0.00380247
I        3.58867649       5.40572377       6.21577087      -0.00219142       0.00309804      -0.00379296
I        6.29279003       1.58152962      10.89943749       0.00219505      -0.00310275       0.00379885
