9
Lattice="6.821017192455996 -1.531757957301086e-07 3.9381158540360923 2.2736722673916043 6.430917113571999 3.938115829229953 2.0732625308941236e-08 -1.5721100603861793e-08 7.8762316721622145" Properties=species:S:1:pos:R:3:forces:R:3 energy=-25.64042091369629 free_energy=-25.64042091369629 stress="4.736696155305253e-06 -8.163716813669453e-09 -1.0036591557849306e-09 -8.163716813669453e-09 4.749695108330343e-06 -4.780007945015541e-09 -1.0036591557849306e-09 -4.780007945015541e-09 4.6925847527745645e-06" pbc="T T T"
Cs       2.27367271       1.60772967       3.93811588      -0.00000035      -0.00000042      -0.00000010
Cs       6.82101669       4.82318755      11.81434730       0.00000027       0.00000033       0.00000046
P        0.00000029      -0.00000018      -0.00000016      -0.00000055      -0.00000034       0.00000076
Br       2.09472397       1.48119360       7.87623133       0.00037858       0.00026724       0.00000022
Br       6.99996552       4.94972324       7.87623146      -0.00037885      -0.00026649       0.00000031
Br       5.77365512       1.48119357       5.75219915      -0.00018884       0.00026703       0.00033036
Br       3.32103416       4.94972320      10.00026478       0.00018953      -0.00026751      -0.00033239
Br       3.32103439       4.94972347       5.75219903       0.00018942      -0.00026639       0.00033063
Br       5.77365500       1.48119357      10.00026451      -0.00018923       0.00026654      -0.00033030
