9
Lattice="5.639053158574487 -5.069175698750669e-08 3.2557089780711914 1.87968431555795 5.3165509842751195 3.255709017632703 -6.22458750243663e-08 4.438288547064214e-09 6.511418063955311" Properties=species:S:1:pos:R:3:forces:R:3 energy=-37.017555236816406 free_energy=-37.017555236816406 stress="-0.00032148134778253734 -1.615350981865049e-07 4.012626675375941e-08 -1.615350981865049e-07 -0.00032139112590812147 -8.060640510620942e-08 4.012626675375941e-08 -8.060640510620942e-08 -0.0003212595183867961" pbc="T T T"
Cs       1.87968404       1.32913745       3.25570933       0.00000052       0.00000150      -0.00000178
Cs       5.63905328       3.98741353       9.76712708       0.00000028      -0.00000146       0.00000094
Pd       0.00000025       0.00000014      -0.00000115      -0.00001367       0.00000678       0.00003259
F        1.59859684       1.13037873       6.51141868       0.00432116       0.00305497      -0.00000306
F        5.92014125       4.18617227       6.51141868      -0.00431898      -0.00305405      -0.00000441
F        4.83975428       1.13037881       4.64013528      -0.00214988       0.00304174       0.00372336
F        2.67898306       4.18617145       8.38270099       0.00215965      -0.00305176      -0.00374036
F        2.67898291       4.18617146       4.64013554       0.00215166      -0.00304117       0.00372311
F        4.83975382       1.13037990       8.38269969      -0.00215066       0.00304350      -0.00373045
