9
Lattice="6.495003537598186 1.1034068007328734e-07 3.749891706266876 2.1650012242023666 6.123548445138277 3.749891808505053 -1.628885214593026e-07 1.0036108203611751e-08 7.499783694664958" Properties=species:S:1:pos:R:3:forces:R:3 energy=-33.588539123535156 free_energy=-33.588539123535156 stress="-3.8124198908917606e-05 3.9584389099900363e-08 -1.5304767231327787e-08 3.9584389099900363e-08 -3.812581053352915e-05 2.1942659245155482e-08 -1.5304767231327787e-08 2.1942659245155482e-08 -3.821202335529961e-05" pbc="T T T"
Cs       2.16500085       1.53088723       3.74989166       0.00000043      -0.00000006      -0.00000016
Cs       6.49500343       4.59266075      11.24967603       0.00000024       0.00000077      -0.00000047
Ru      -0.00000036       0.00000068      -0.00000163       0.00000692      -0.00001101       0.00002854
Cl       1.92414041       1.36057344       7.49978337       0.00730163       0.00516102       0.00000014
Cl       6.73586376       4.76297500       7.49978294      -0.00729814      -0.00515938       0.00000122
Cl       5.53293360       1.36057400       5.41624615      -0.00365023       0.00515798       0.00632271
Cl       3.12707125       4.76297546       9.58332150       0.00365357      -0.00516671      -0.00632918
Cl       3.12707140       4.76297510       5.41624622       0.00364502      -0.00515559       0.00631627
Cl       5.53293403       1.36057279       9.58332239      -0.00365931       0.00517297      -0.00633892
