9
Lattice="6.750865375530474 -2.814722096269883e-07 3.8976138810157344 2.2502881526377028 6.364776918162867 3.8976139511603027 -7.850316694616267e-08 3.0398914470504e-08 7.79522789800306" Properties=species:S:1:pos:R:3:forces:R:3 energy=-30.238487243652344 free_energy=-30.238487243652344 stress="-9.16975477593951e-06 -5.103795075456219e-08 -2.417179523206414e-08 -5.103795075456219e-08 -9.12549421627773e-06 2.786576480673375e-08 -2.417179523206414e-08 2.786576480673375e-08 -9.115323337027803e-06" pbc="T T T"
Cs       2.25028848       1.59119442       3.89761391      -0.00000037      -0.00000065      -0.00000009
Cs       6.75086504       4.77358224      11.69284219      -0.00000003       0.00000049      -0.00000065
Ru      -0.00000045       0.00000024      -0.00000266       0.00000776      -0.00000069       0.00003863
Br       2.04966602       1.44933337       7.79522762       0.00211352       0.00149386       0.00000161
Br       6.95148842       4.91544364       7.79522742      -0.00212015      -0.00149836       0.00000167
Br       5.72603088       1.44933366       5.67267780      -0.00104791       0.00148265       0.00181812
Br       3.27512112       4.91544378       9.91777918       0.00106086      -0.00149848      -0.00183593
Br       3.27512236       4.91544273       5.67267766       0.00104947      -0.00148286       0.00181909
Br       5.72603187       1.44933268       9.91777973      -0.00106320       0.00150406      -0.00184253
