9
Lattice="6.737652743343587 3.032282490605332e-07 3.889985511389223 2.245884469268486 6.352319733747367 3.8899856229313565 -5.129333018822576e-08 1.003410520708407e-07 7.77997111162116" Properties=species:S:1:pos:R:3:forces:R:3 energy=-33.53411102294922 free_energy=-33.53411102294922 stress="8.580989742767997e-06 5.348335108124047e-08 2.7658031420685347e-09 5.348335108124047e-08 8.534512744517997e-06 -7.905230248184125e-09 2.7658031420685347e-09 -7.905230248184125e-09 8.533344043826219e-06" pbc="T T T"
Cs       2.24588408       1.58807993       3.88998563       0.00000028       0.00000054       0.00000000
Cs       6.73765289       4.76424014      11.66995664      -0.00000042      -0.00000042       0.00000043
Re       0.00000057       0.00000002       0.00000022      -0.00000690      -0.00000247      -0.00000329
Br       2.07175024       1.46494903       7.77997158       0.00172856       0.00122188      -0.00000108
Br       6.91178667       4.88737137       7.77997154      -0.00172309      -0.00121934      -0.00000139
Br       5.70177802       1.46494803       5.68417363      -0.00086643       0.00122637       0.00149965
Br       3.28175906       4.88737159       9.87576817       0.00086581      -0.00122377      -0.00149700
Br       3.28175917       4.88737195       5.68417374       0.00086669      -0.00122567       0.00149871
Br       5.70177789       1.46494848       9.87576799      -0.00086445       0.00122290      -0.00149608
