9
Lattice="6.5387841471909365 6.55507369364541e-08 3.7751685643878097 2.179594854502788 6.164824170189025 3.775168431070582 -1.3870473792961222e-08 -1.7308760925401603e-07 7.550337152800343" Properties=species:S:1:pos:R:3:forces:R:3 energy=-31.692211151123047 free_energy=-31.692211151123047 stress="-1.3363211110117845e-05 6.251666206935624e-08 -7.150431802216417e-09 6.251666206935624e-08 -1.3434337233775295e-05 1.5709158418530933e-08 -7.150431802216417e-09 1.5709158418530933e-08 -1.3484997907653451e-05" pbc="T T T"
Cs       2.17959483       1.54120608       3.77516843      -0.00000035      -0.00000012      -0.00000001
Cs       6.53878419       4.62361790      11.32550630       0.00000034       0.00000005      -0.00000030
Rh       0.00000011      -0.00000018      -0.00000076      -0.00000030       0.00000242       0.00001508
Cl       1.92417354       1.36059545       7.55033677       0.00619522       0.00438175       0.00000056
Cl       6.79420563       4.80422851       7.55033630      -0.00619653      -0.00438194       0.00000013
Cl       5.57669787       1.36059571       5.44155079      -0.00309911       0.00438280       0.00536798
Cl       3.14168090       4.80422894       9.65912411       0.00310401      -0.00438978      -0.00537753
Cl       3.14168106       4.80422883       5.44155015       0.00310092      -0.00438657       0.00537191
Cl       5.57669790       1.36059474       9.65912403      -0.00310400       0.00439134      -0.00537762
