9
Lattice="7.317449163695427 -8.358871054044436e-07 4.224731760416105 2.439149280507883 6.898957326687471 4.224731158774497 2.1438849103445506e-07 -5.852620217564284e-07 8.449463149500614" Properties=species:S:1:pos:R:3:forces:R:3 energy=-25.947582244873047 free_energy=-25.947582244873047 stress="-4.254352825228125e-05 2.264956933117901e-08 8.348826519011254e-09 2.264956933117901e-08 -4.256702959537506e-05 -1.643499381032143e-08 8.348826519011254e-09 -1.643499381032143e-08 -4.2575178667902946e-05" pbc="T T T"
Cs       2.43915010       1.72473911       4.22473135      -0.00000129       0.00000088       0.00000064
Cs       7.31744856       5.17421684      12.67419498       0.00000119      -0.00000091      -0.00000115
Rh      -0.00000033       0.00000046      -0.00000270       0.00000548      -0.00000598       0.00003458
I        2.20701868       1.56059735       8.44946304       0.00524789       0.00371232       0.00000019
I        7.54958026       5.33835886       8.44946272      -0.00524887      -0.00371346       0.00000044
I        6.21393853       1.56059555       6.13606478      -0.00262285       0.00371069       0.00454333
I        3.54265891       5.33836119      10.76286223       0.00263142      -0.00372254      -0.00455620
I        3.54265944       5.33836173       6.13606760       0.00261886      -0.00370517       0.00453646
I        6.21394042       1.56059255      10.76286022      -0.00263184       0.00372413      -0.00455828
