9
Lattice="6.819870392970337 1.512537060752056e-07 3.937454146894891 2.273290007300022 6.429836110731106 3.93745460812856 -3.141951428053005e-07 3.427240095685672e-07 7.874908837991742" Properties=species:S:1:pos:R:3:forces:R:3 energy=-28.640804290771484 free_energy=-28.640804290771484 stress="4.493150299822446e-06 -3.709473700430621e-11 -7.855609851503687e-08 -3.709473700430621e-11 4.489800630835816e-06 9.720828586523567e-08 -7.855609851503687e-08 9.720828586523567e-08 4.5066699385643005e-06" pbc="T T T"
Cs       2.27329006       1.60745866       3.93745437      -0.00000009       0.00000027      -0.00000012
Cs       6.81986989       4.82237792      11.81236295       0.00000013      -0.00000036       0.00000055
Rh      -0.00000004      -0.00000008      -0.00000027       0.00000146      -0.00000015       0.00000510
Br       2.05219042       1.45111778       7.87490867       0.00190128       0.00134520       0.00000081
Br       7.04097034       4.97871856       7.87490907      -0.00190294      -0.00134614      -0.00000067
Br       5.79377470       1.45111780       5.71470444      -0.00094653       0.00133943       0.00163866
Br       3.29938505       4.97871890      10.03511324       0.00094819      -0.00134058      -0.00164094
Br       3.29938430       4.97871933       5.71470303       0.00095402      -0.00134890       0.00165077
Br       5.79377553       1.45111741      10.03511501      -0.00095556       0.00135113      -0.00165417
