9
Lattice="5.715613420762639 -1.2550989998536183e-08 3.2999109605007964 1.9052044625748257 5.388732164258682 3.2999109590798392 1.931812900648982e-07 1.348593845827082e-07 6.59982158640187" Properties=species:S:1:pos:R:3:forces:R:3 energy=-43.5504035949707 free_energy=-43.5504035949707 stress="-1.9035579725823482e-06 -1.994861698051409e-08 -1.2008014138586987e-08 -1.994861698051409e-08 -1.8893661035690457e-06 2.581055014161393e-08 -1.2008014138586987e-08 2.581055014161393e-08 -1.9015404859601404e-06" pbc="T T T"
Cs       1.90520377       1.34718273       3.29991048      -0.00000003       0.00000062      -0.00000007
Cs       5.71561331       4.04154962       9.89973241      -0.00000022      -0.00000028      -0.00000024
Ru       0.00000010       0.00000003      -0.00000018      -0.00000203       0.00000395      -0.00000441
F        1.60190226       1.13271600       6.59982213       0.00002754       0.00001907      -0.00000111
F        6.01891585       4.25601633       6.59982239      -0.00002667      -0.00001937      -0.00000084
F        4.91466292       1.13271607       4.68719933      -0.00001252       0.00001707       0.00002155
F        2.70615609       4.25601611       8.51244467       0.00001146      -0.00001729      -0.00002091
F        2.70615573       4.25601631       4.68719837       0.00001458      -0.00002098       0.00002684
F        4.91466235       1.13271589       8.51244440      -0.00001215       0.00001726      -0.00002087
