9
Lattice="5.695886115164577 -1.1906452835286024e-07 3.288521354306572 1.89862862717631 5.370132717926087 3.288521294764599 6.37236360822801e-09 -6.841772641298058e-08 6.577042697575789" Properties=species:S:1:pos:R:3:forces:R:3 energy=-40.55973434448242 free_energy=-40.55973434448242 stress="0.00017336150631308556 3.0085761437703695e-08 2.6631015614952958e-08 3.0085761437703695e-08 0.00017339357873424888 1.2294417039981909e-08 2.6631015614952958e-08 1.2294417039981909e-08 0.00017335359007120132" pbc="T T T"
Cs       1.89862888       1.34253294       3.28852119       0.00000031      -0.00000026       0.00000178
Cs       5.69588604       4.02759929       9.86556435      -0.00000046      -0.00000059      -0.00000088
Rh       0.00000006       0.00000005       0.00000015      -0.00000240      -0.00000367       0.00000875
F        1.59955119       1.13105331       6.57704206      -0.00517097      -0.00365621       0.00000112
F        5.99496340       4.23907936       6.57704194       0.00517502       0.00365923       0.00000019
F        4.89611039       1.13105384       4.67377324       0.00258847      -0.00365973      -0.00448087
F        2.69840401       4.23907976       8.48031271      -0.00258486       0.00365451       0.00447580
F        2.69840439       4.23907851       4.67377324      -0.00258963       0.00366144      -0.00448358
F        4.89611053       1.13105299       8.48031244       0.00258443      -0.00365509       0.00447765
