9
Lattice="7.25619172438144 -2.395276737520884e-07 4.189364634563622 2.41873035599671 6.841203250484347 4.189364622384141 8.544828752295807e-08 4.550432786540523e-08 8.378729121126499" Properties=species:S:1:pos:R:3:forces:R:3 energy=-26.524120330810547 free_energy=-26.524120330810547 stress="0.00015066734340507537 6.204162961154225e-09 -1.4351734023421159e-08 6.204162961154225e-09 0.00015066070773173124 9.914970178215299e-09 -1.4351734023421159e-08 9.914970178215299e-09 0.00015062255261000246" pbc="T T T"
Cs       2.41873088       1.71030078       4.18936464      -0.00000052      -0.00000030      -0.00000035
Cs       7.25619141       5.13090192      12.56809365       0.00000083       0.00000046       0.00000022
Ru       0.00000043      -0.00000112      -0.00000198      -0.00000474       0.00000954       0.00001538
I        2.23030555       1.57706381       8.37872887      -0.00717453      -0.00507453       0.00000039
I        7.44461630       5.26413957       8.37873022       0.00717273       0.00507451       0.00000148
I        6.14103697       1.57706557       6.12086636       0.00359427      -0.00508206      -0.00622545
I        3.53388416       5.26413892      10.63659360      -0.00358513       0.00506876       0.00620924
I        3.53388427       5.26413739       6.12086390      -0.00359227       0.00507764      -0.00621364
I        6.14103861       1.57706570      10.63659418       0.00358942      -0.00507397       0.00621247
