9
Lattice="5.737381786110275 8.94913157282429e-08 3.3124787847523924 1.9124605698345472 5.409256084464055 3.3124789751198707 -1.1188547035307704e-07 1.540366567247387e-07 6.6249577632959875" Properties=species:S:1:pos:R:3:forces:R:3 energy=-47.79887008666992 free_energy=-47.79887008666992 stress="-0.0001204552681883797 1.3355871075759751e-08 -6.577261757456654e-08 1.3355871075759751e-08 -0.00012048102507833391 9.16824234309388e-08 -6.577261757456654e-08 9.16824234309388e-08 -0.0001205143635161221" pbc="T T T"
Cs       1.91246159       1.35231419       3.31247874      -0.00000036      -0.00000033       0.00000012
Cs       5.73738194       4.05694172       9.93743765      -0.00000042       0.00000012      -0.00000051
Re       0.00000007      -0.00000041      -0.00000017      -0.00000406       0.00000953       0.00000787
F        1.62840175       1.15145514       6.62495778      -0.00025179      -0.00017921       0.00000053
F        6.02143968       4.25780148       6.62495738       0.00025285       0.00017685       0.00000029
F        4.92318006       1.15145509       4.72271650       0.00013005      -0.00018481      -0.00022298
F        2.72666185       4.25780181       8.52719835      -0.00012555       0.00017697       0.00021723
F        2.72666201       4.25780167       4.72271655      -0.00012291       0.00017389      -0.00021252
F        4.92318000       1.15145461       8.52719940       0.00012217      -0.00017302       0.00020995
