9
Lattice="6.634212634030359 1.6116575225803498e-07 3.8302643044238796 2.211404326882634 6.254795626068577 3.83026436748667 -6.5004037003498e-08 3.127108067616247e-08 7.66052872143809" Properties=species:S:1:pos:R:3:forces:R:3 energy=-30.48779296875 free_energy=-30.48779296875 stress="6.507509533548728e-05 7.111853506103216e-08 3.4186317665607646e-10 7.111853506103216e-08 6.502027827082202e-05 -3.6034384365279948e-09 3.4186317665607646e-10 -3.6034384365279948e-09 6.496381683973595e-05" pbc="T T T"
Cs       2.21140432       1.56369895       3.83026439      -0.00000019      -0.00000002      -0.00000030
Cs       6.63421271       4.69109700      11.49079372       0.00000020       0.00000022      -0.00000049
Sn      -0.00000012      -0.00000051      -0.00000106       0.00000296       0.00000717       0.00001513
Cl       2.02167254       1.42953819       7.66052822      -0.00034737      -0.00024534       0.00000148
Cl       6.82394487       4.82525833       7.66052843       0.00034044       0.00023992      -0.00000005
Cl       5.62337672       1.42953758       5.58108292       0.00017222      -0.00024156      -0.00029552
Cl       3.22223933       4.82525849       9.73997520      -0.00016479       0.00023338       0.00028615
Cl       3.22224000       4.82525810       5.58108267      -0.00016996       0.00024126      -0.00029452
Cl       5.62337716       1.42953725       9.73997520       0.00016648      -0.00023497       0.00028807
