9
Lattice="6.585884175373829 2.0335114914120977e-08 3.8023618271657034 2.195294688713797 6.209231256869106 3.802361923438442 -1.1420570350554155e-07 3.715383805911776e-08 7.6047238521416105" Properties=species:S:1:pos:R:3:forces:R:3 energy=-26.188119888305664 free_energy=-26.188119888305664 stress="1.587186852702871e-05 -4.783279883291414e-10 -1.6756533938178109e-09 -4.783279883291414e-10 1.588180566614028e-05 -8.056064704220489e-10 -1.6756533938178109e-09 -8.056064704220489e-10 1.5874498785706237e-05" pbc="T T T"
Cs       2.19529431       1.55230795       3.80236197       0.00000013       0.00000007      -0.00000017
Cs       6.58588374       4.65692357      11.40708505       0.00000038      -0.00000014       0.00000046
S        0.00000014       0.00000004       0.00000021       0.00000153      -0.00000042       0.00000100
Cl       1.94760925       1.37716784       7.60472393      -0.00019148      -0.00013521      -0.00000012
Cl       6.83356987       4.83206300       7.60472376       0.00018993       0.00013544      -0.00000058
Cl       5.61207979       1.37716763       5.48904108       0.00009505      -0.00013514      -0.00016566
Cl       3.16909925       4.83206380       9.72040691      -0.00009552       0.00013520       0.00016549
Cl       3.16909920       4.83206368       5.48904109      -0.00009517       0.00013548      -0.00016570
Cl       5.61207950       1.37716776       9.72040638       0.00009512      -0.00013531       0.00016527
