9
Lattice="5.805423572095346 3.37122122147614e-09 3.3517627467353805 1.9351412520959883 5.473405805081535 3.351762645896921 -6.802831708991532e-08 -1.7160477335985094e-07 6.703525611299296" Properties=species:S:1:pos:R:3:forces:R:3 energy=-41.87217712402344 free_energy=-41.87217712402344 stress="-0.000179940223461017 -2.4486928040801104e-08 1.1709696545736392e-09 -2.4486928040801104e-08 -0.00017991258937399834 2.018624023492066e-08 1.1709696545736392e-09 2.018624023492066e-08 -0.00017993043002206832" pbc="T T T"
Cs       1.93514091       1.36835125       3.35176252       0.00000009       0.00000048      -0.00000031
Cs       5.80542333       4.10505395      10.05528820      -0.00000018       0.00000060       0.00000018
Sn       0.00000001       0.00000008      -0.00000022       0.00000249       0.00000254       0.00000583
F        1.64080010       1.16022095       6.70352554       0.00147101       0.00104040      -0.00000004
F        6.09976475       4.31318488       6.70352509      -0.00147387      -0.00104159       0.00000107
F        4.98502340       1.16022132       4.77273804      -0.00073361       0.00103602       0.00127003
F        2.75554133       4.31318460       8.63431347       0.00073607      -0.00104028      -0.00127500
F        2.75554179       4.31318460       4.77273761       0.00073406      -0.00103891       0.00127274
F        4.98502330       1.16022105       8.63431329      -0.00073607       0.00104058      -0.00127426
