9
Lattice="5.56292420920952 -4.7170736910495655e-08 3.211755779280427 1.8543080509552134 5.244775278991472 3.2117557347810344 -2.4849496445978374e-08 -7.207159811540446e-08 6.423511601601435" Properties=species:S:1:pos:R:3:forces:R:3 energy=-46.92095947265625 free_energy=-46.92095947265625 stress="-1.935060936375521e-05 -2.1333883992724623e-08 1.5022690647015224e-08 -2.1333883992724623e-08 -1.936488479259424e-05 -5.04270687429198e-08 1.5022690647015224e-08 -5.04270687429198e-08 -1.9407516447245143e-05" pbc="T T T"
Cs       1.85430828       1.31119400       3.21175564      -0.00000048      -0.00000114      -0.00000024
Cs       5.56292438       3.93358122       9.63526709      -0.00000035       0.00000114      -0.00000003
Si      -0.00000021       0.00000022       0.00000020      -0.00000504      -0.00000630       0.00000421
F        1.40643542       0.99450034       6.42351119       0.00123870       0.00087735       0.00000187
F        6.01079647       4.25027488       6.42351134      -0.00123602      -0.00087294       0.00000055
F        4.85970653       0.99450020       4.42976480      -0.00061765       0.00087523       0.00107318
F        2.55752582       4.25027475       8.41725894       0.00061998      -0.00087646      -0.00108176
F        2.55752592       4.25027480       4.42976473       0.00061813      -0.00087175       0.00107610
F        4.85970615       0.99450017       8.41725834      -0.00061741       0.00087509      -0.00107354
