9
Lattice="6.579734505136089 -5.857807492501967e-08 3.7988114777979565 2.1932448570818743 6.203433292860998 3.798811343972121 3.033393992782596e-08 -1.4245319770061106e-07 7.597622903055999" Properties=species:S:1:pos:R:3:forces:R:3 energy=-26.874874114990234 free_energy=-26.874874114990234 stress="4.239582267473452e-05 -2.1931569449407107e-08 -6.634774951663758e-09 -2.1931569449407107e-08 4.243064904585481e-05 4.442524126346825e-09 -6.634774951663758e-09 4.442524126346825e-09 4.2443509300937876e-05" pbc="T T T"
Cs       2.19324480       1.55085847       3.79881161       0.00000026      -0.00000002      -0.00000012
Cs       6.57973459       4.65257452      11.39643435      -0.00000022      -0.00000006      -0.00000027
Se      -0.00000016       0.00000102       0.00000083       0.00000062      -0.00001582      -0.00001513
Cl       1.99114228       1.40795017       7.59762294      -0.00001352      -0.00000905       0.00000132
Cl       6.78183668       4.79548250       7.59762307       0.00001809       0.00001463       0.00000079
Cl       5.58416325       1.40795069       5.52319183       0.00000744      -0.00001015      -0.00001293
Cl       3.18881651       4.79548210       9.67205318      -0.00001209       0.00001817       0.00002258
Cl       3.18881622       4.79548238       5.52319158      -0.00000900       0.00001463      -0.00001488
Cl       5.58416344       1.40795051       9.67205350       0.00000841      -0.00001229       0.00001860
