9
Lattice="6.510960779287042 6.895137111966021e-08 3.7591050820260072 2.1703203459050853 6.138593659673074 3.7591050454194486 1.233601279369499e-08 -3.611077441443849e-08 7.518210142685134" Properties=species:S:1:pos:R:3:forces:R:3 energy=-31.76568031311035 free_energy=-31.76568031311035 stress="-2.053448770311661e-05 4.3678941352709444e-08 -3.5228926442698594e-09 4.3678941352709444e-08 -2.038486854871735e-05 -3.193979125626356e-08 -3.5228926442698594e-09 -3.193979125626356e-08 -2.047031739493832e-05" pbc="T T T"
Cs       2.17032011       1.53464858       3.75910492       0.00000022      -0.00000014      -0.00000020
Cs       6.51096126       4.60394569      11.27731518      -0.00000021      -0.00000007       0.00000056
Si      -0.00000098       0.00000058      -0.00000124       0.00001729      -0.00001880       0.00002605
Cl       1.83296491       1.29610290       7.51820978      -0.00435631      -0.00308879       0.00000223
Cl       6.84831553       4.84248997       7.51821017       0.00436192       0.00308999      -0.00000100
Cl       5.59447869       1.29610295       5.34649914       0.00217601      -0.00308624      -0.00377238
Cl       3.08680260       4.84249153       9.68992086      -0.00217772       0.00308081       0.00377789
Cl       3.08680267       4.84249027       5.34650075      -0.00218659       0.00309844      -0.00379398
Cl       5.59447960       1.29610265       9.68992138       0.00216548      -0.00307487       0.00376067
