9
Lattice="7.464962913913983 4.113890045355667e-07 4.309897859529986 2.48832114522528 7.038034290766786 4.309898230085704 -1.653821575126345e-07 3.368934514694895e-07 8.619796005510626" Properties=species:S:1:pos:R:3:forces:R:3 energy=-20.49492645263672 free_energy=-20.49492645263672 stress="-8.322894245793577e-06 3.832864692299154e-09 -1.0885889967227058e-09 3.832864692299154e-09 -8.336181053891778e-06 2.4965873812732298e-09 -1.0885889967227058e-09 2.4965873812732298e-09 -8.357407750736456e-06" pbc="T T T"
Cs       2.48832006       1.75950966       4.30989799      -0.00000009      -0.00000025       0.00000001
Cs       7.46496374       5.27852550      12.92969391       0.00000007       0.00000045      -0.00000002
Se      -0.00000053      -0.00000031       0.00000044       0.00000172       0.00000018      -0.00000019
I        2.33433787       1.65062745       8.61979608       0.00190274       0.00134568      -0.00000010
I        7.61894645       5.38740780       8.61979583      -0.00190422      -0.00134673       0.00000019
I        6.29779256       1.65062630       6.33149229      -0.00095260       0.00134718       0.00165170
I        3.65549100       5.38740822      10.90809974       0.00095233      -0.00134642      -0.00165166
I        3.65549084       5.38740897       6.33149250       0.00095246      -0.00134720       0.00165183
I        6.29779359       1.65062648      10.90809957      -0.00095241       0.00134708      -0.00165175
