9
Lattice="6.886854051432077 6.752566672664954e-08 3.976126828066856 2.2956180756027265 6.4929886285211875 3.9761268370823215 1.1701956630448276e-08 1.9316103173415096e-08 7.952253635865329" Properties=species:S:1:pos:R:3:forces:R:3 energy=-23.003841400146484 free_energy=-23.003841400146484 stress="5.197935024625622e-06 -2.9169579945920177e-11 -2.0321898330788457e-10 -2.9169579945920177e-11 5.205142315389821e-06 2.0306156756078053e-09 -2.0321898330788457e-10 2.0306156756078053e-09 5.178560968488455e-06" pbc="T T T"
Cs       2.29561806       1.62324776       3.97612674      -0.00000002      -0.00000003       0.00000029
Cs       6.88685412       4.86974155      11.92838157       0.00000025       0.00000011      -0.00000113
S        0.00000004       0.00000024      -0.00000079      -0.00000041      -0.00000068       0.00000172
Br       2.09983278       1.48480607       7.95225345       0.00018915       0.00013357       0.00000015
Br       7.08263946       5.00818260       7.95225324      -0.00018939      -0.00013387       0.00000143
Br       5.83693751       1.48480659       5.79463492      -0.00009414       0.00013253       0.00016399
Br       3.34553387       5.00818171      10.10987266       0.00009576      -0.00013348      -0.00016522
Br       3.34553463       5.00818236       5.79463472       0.00009383      -0.00013270       0.00016431
Br       5.83693813       1.48480602      10.10987276      -0.00009505       0.00013454      -0.00016553
