9
Lattice="6.726134750738899 1.4146808173122394e-07 3.8833359586764344 2.2420450026918837 6.341460913989833 3.8833360411194464 -6.10038896591511e-08 5.7835379373399506e-08 7.766672023014784" Properties=species:S:1:pos:R:3:forces:R:3 energy=-27.707321166992188 free_energy=-27.707321166992188 stress="1.2749469533446245e-05 6.088926252090232e-09 -4.330025671350768e-09 6.088926252090232e-09 1.2780929864675272e-05 1.018096940086366e-09 -4.330025671350768e-09 1.018096940086366e-09 1.2827459613617975e-05" pbc="T T T"
Cs       2.24204481       1.58536543       3.88333600       0.00000031      -0.00000019      -0.00000053
Cs       6.72613506       4.75609574      11.65000771      -0.00000082      -0.00000020       0.00000101
Si      -0.00000024       0.00000033       0.00000062       0.00000164      -0.00000058      -0.00000368
Br       2.01852837       1.42731556       7.76667209       0.00065503       0.00046202      -0.00000063
Br       6.94965166       4.91414554       7.76667238      -0.00065774      -0.00046320      -0.00000174
Br       5.71687046       1.42731537       5.63143351      -0.00032788       0.00046512       0.00056590
Br       3.25130897       4.91414551       9.90191008       0.00032760      -0.00046106      -0.00056282
Br       3.25130880       4.91414539       5.63143365       0.00032991      -0.00046355       0.00056563
Br       5.71687066       1.42731555       9.90190989      -0.00032799       0.00046171      -0.00056319
