9
Lattice="7.416361374554896 1.1716500951196464e-06 4.2818374469585745 2.4721215794870446 6.992213512425986 4.281837418103074 7.903956487364727e-08 2.054881091128241e-08 8.56367475701654" Properties=species:S:1:pos:R:3:forces:R:3 energy=-23.409631729125977 free_energy=-23.409631729125977 stress="4.1230137867387384e-05 1.0371587144675232e-08 -9.16032139031131e-09 1.0371587144675232e-08 4.1250870708609e-05 -6.69252431251266e-09 -9.16032139031131e-09 -6.69252431251266e-09 4.1268514905823395e-05" pbc="T T T"
Cs       2.47212029       1.74805600       4.28183788       0.00000031      -0.00000076       0.00000013
Cs       7.41636261       5.24415854      12.84551190      -0.00000074       0.00000050       0.00000019
Sn       0.00000020       0.00000037       0.00000002       0.00000039      -0.00000197      -0.00000043
I        2.46945197       1.74616345       8.56367492      -0.00079119      -0.00056113       0.00000032
I        7.41903129       5.24605097       8.56367467       0.00079113       0.00056171      -0.00000080
I        6.18163864       1.74616692       6.42044598       0.00039484      -0.00055887      -0.00068775
I        3.70684417       5.24604769      10.70690374      -0.00039495       0.00055997       0.00068852
I        3.70684420       5.24604817       6.42044579      -0.00039422       0.00056009      -0.00068793
I        6.18163884       1.74616675      10.70690361       0.00039449      -0.00055943       0.00068769
