9
Lattice="7.202563173393884 1.5622482587875215e-07 4.158401950248653 2.4008547100192876 6.790641418988763 4.158401653032012 3.028621021948123e-07 -1.4985853846746532e-07 8.316803375924374" Properties=species:S:1:pos:R:3:forces:R:3 energy=-23.82661247253418 free_energy=-23.82661247253418 stress="-3.3218043427041266e-06 1.555189044211147e-08 8.843655585621946e-09 1.555189044211147e-08 -3.342023092045565e-06 5.784802081798546e-10 8.843655585621946e-09 5.784802081798546e-10 -3.3710384741425514e-06" pbc="T T T"
Cs       2.40085457       1.69766007       4.15840163      -0.00000032      -0.00000018       0.00000018
Cs       7.20256383       5.09298164      12.47520506       0.00000024      -0.00000022      -0.00000020
Si      -0.00000088       0.00000008       0.00000046       0.00000236       0.00000006      -0.00000002
I        2.24070800       1.58441899       8.31680366       0.00161677       0.00114393       0.00000027
I        7.36271025       5.20622268       8.31680341      -0.00161859      -0.00114506      -0.00000255
I        6.08221010       1.58441812       6.09890939      -0.00081340       0.00114956       0.00140663
I        3.52120838       5.20622157      10.53469723       0.00081173      -0.00114621      -0.00140493
I        3.52120802       5.20622337       6.09891084       0.00081035      -0.00114714       0.00140450
I        6.08221060       1.58441919      10.53469600      -0.00080913       0.00114524      -0.00140396
