9
Lattice="6.950804705069659 2.699023580176244e-07 4.0130487238659684 2.3169350438448038 6.553281304098633 4.013048918394937 -1.7267083062652355e-07 1.1615187596594486e-07 8.026097746806732" Properties=species:S:1:pos:R:3:forces:R:3 energy=-23.533784866333008 free_energy=-23.533784866333008 stress="0.00014873192412778735 2.670022247741599e-08 -1.4369579970363588e-09 2.670022247741599e-08 0.0001487089175498113 1.2129595106102897e-08 -1.4369579970363588e-09 1.2129595106102897e-08 0.00014869813458062708" pbc="T T T"
Cs       2.31693486       1.63831994       4.01304897      -0.00000009      -0.00000015       0.00000000
Cs       6.95080482       4.91496122      12.03914711      -0.00000022      -0.00000005      -0.00000058
Se       0.00000032       0.00000094       0.00000302      -0.00000221      -0.00000626      -0.00001929
Br       2.13650562       1.51073790       8.02609799      -0.00558975      -0.00395282      -0.00000034
Br       7.13123339       5.04254393       8.02609753       0.00559373       0.00395507       0.00000104
Br       5.88255278       1.51073678       5.86331564       0.00279113      -0.00394748      -0.00483426
Br       3.38518795       5.04254360      10.18887692      -0.00279693       0.00395646       0.00484620
Br       3.38518689       5.04254529       5.86331610      -0.00279146       0.00394717      -0.00483502
Br       5.88255158       1.51073714      10.18887823       0.00279582      -0.00395195       0.00484228
