9
Lattice="5.928351510967659 3.794984995245546e-07 3.4227357544069026 1.9761172257007005 5.589305521275605 3.422736278207885 7.821918929166144e-08 6.968317158590448e-07 6.845471373334371" Properties=species:S:1:pos:R:3:forces:R:3 energy=-52.45466613769531 free_energy=-52.45466613769531 stress="-9.092892469197977e-06 -2.022261469392106e-08 4.963679245406638e-08 -2.022261469392106e-08 -9.059163858182728e-06 -7.779769362059596e-08 4.963679245406638e-08 -7.779769362059596e-08 -9.117360605159774e-06" pbc="T T T"
Cs       1.97611793       1.39732689       3.42273662      -0.00000030      -0.00000008      -0.00000208
Cs       5.92835094       4.19197950      10.26820660      -0.00000021      -0.00000015       0.00000171
Ta      -0.00000001      -0.00000009       0.00000003      -0.00000576       0.00000785      -0.00000328
F        1.58360247       1.11977668       6.84547107       0.00046384       0.00032675      -0.00000058
F        6.32086618       4.46953001       6.84547201      -0.00046420      -0.00032735       0.00000001
F        5.13655055       1.11977631       4.79417545      -0.00023115       0.00032926       0.00040245
F        2.76791841       4.46953050       8.89676759       0.00023371      -0.00032997      -0.00040305
F        2.76791787       4.46952935       4.79417595       0.00022978      -0.00032508       0.00039792
F        5.13655064       1.11977710       8.89676696      -0.00022578       0.00032008      -0.00039220
