9
Lattice="6.5245415883659215 2.3625594791045772e-08 3.766946110284105 2.1748472005813837 6.151397149375243 3.7669461411406835 1.0890333824521407e-07 1.1479746983255076e-07 7.533892031942261" Properties=species:S:1:pos:R:3:forces:R:3 energy=-37.167259216308594 free_energy=-37.167259216308594 stress="2.2741902284906246e-05 -3.166336881577081e-08 3.2367903912700058e-09 -3.166336881577081e-08 2.2788190108258277e-05 -6.262508289722746e-09 3.2367903912700058e-09 -6.262508289722746e-09 2.279931322846096e-05" pbc="T T T"
Cs       2.17484711       1.53784937       3.76694626      -0.00000027       0.00000007       0.00000036
Cs       6.52454152       4.61354821      11.30083796       0.00000056      -0.00000004      -0.00000009
Ti      -0.00000033      -0.00000021       0.00000021       0.00000490       0.00000002      -0.00000096
Cl       1.94425337       1.37479510       7.53389222       0.00049533       0.00034973       0.00000032
Cl       6.75513506       4.77660214       7.53389215      -0.00049591      -0.00034991      -0.00000042
Cl       5.55241471       1.37479563       5.45071943      -0.00024703       0.00034736       0.00042631
Cl       3.14697471       4.77660216       9.61706453       0.00024446      -0.00034711      -0.00042401
Cl       3.14697452       4.77660155       5.45071968       0.00024426      -0.00034586       0.00042322
Cl       5.55241488       1.37479563       9.61706462      -0.00024656       0.00034572      -0.00042459
