9
Lattice="7.32218570438662 2.7037391163203254e-07 4.227465725593578 2.440728726222385 6.9034229456164855 4.227465893286422 1.7207302167018926e-08 2.1754810302273864e-07 8.45493142138338" Properties=species:S:1:pos:R:3:forces:R:3 energy=-29.210838317871094 free_energy=-29.210838317871094 stress="-3.97662279283395e-06 -8.455351974134828e-09 -7.538721646938029e-09 -8.455351974134828e-09 -3.9684596231381875e-06 -3.955504812580557e-09 -7.538721646938029e-09 -3.955504812580557e-09 -3.971018031734275e-06" pbc="T T T"
Cs       2.44072956       1.72585469       4.22746482      -0.00000052       0.00000170      -0.00000079
Cs       7.32218481       5.17756884      12.68239796       0.00000057      -0.00000196       0.00000097
Ti       0.00000018       0.00000021       0.00000060      -0.00000147      -0.00000117      -0.00000548
I        2.27696066       1.61005487       8.45493143       0.00241883       0.00171036       0.00000076
I        7.48595349       5.29336831       8.45493176      -0.00241719      -0.00170919      -0.00000076
I        6.18370502       1.61005456       6.19937129      -0.00120869       0.00171084       0.00209494
I        3.57920943       5.29336880      10.71049146       0.00120731      -0.00170857      -0.00209215
I        3.57920948       5.29336852       6.19937147       0.00120940      -0.00171036       0.00209554
I        6.18370517       1.61005505      10.71049137      -0.00120821       0.00170843      -0.00209308
