9
Lattice="5.881844149153809 7.749939952726453e-08 3.3958841412824463 1.960614638136255 5.545456825822506 3.3958844033685054 -3.2847871627506367e-07 8.871911123679075e-08 6.7917688515067205" Properties=species:S:1:pos:R:3:forces:R:3 energy=-38.567169189453125 free_energy=-38.567169189453125 stress="-0.00012472747766878456 9.649642862541441e-09 -3.157776617968011e-08 9.649642862541441e-09 -0.00012472958769649267 3.512042212605593e-08 -3.157776617968011e-08 3.512042212605593e-08 -0.00012475682888180017" pbc="T T T"
Cs       1.96061446       1.38636388       3.39588450       0.00000022       0.00000008       0.00000038
Cs       5.88184429       4.15909296      10.18765448      -0.00000065      -0.00000042      -0.00000042
Te      -0.00000000       0.00000020      -0.00000007      -0.00000079      -0.00000371       0.00000587
F        1.71415746       1.21209272       6.79176832       0.00585148       0.00413796      -0.00000095
F        6.12830075       4.33336399       6.79176761      -0.00585040      -0.00413613      -0.00000063
F        5.02476496       1.21209325       4.88038868      -0.00292470       0.00413679       0.00506541
F        2.81769284       4.33336480       8.70314884       0.00292510      -0.00413607      -0.00506693
F        2.81769403       4.33336383       4.88038881       0.00292684      -0.00413886       0.00506833
F        5.02476521       1.21209239       8.70314859      -0.00292714       0.00414036      -0.00507101
