9
Lattice="6.851195961184821 -2.58937495565393e-07 3.955539828204266 2.2837315866855565 6.459369350834189 3.9555400988329326 -3.447908380242647e-07 8.764716963492215e-08 7.91108025360393" Properties=species:S:1:pos:R:3:forces:R:3 energy=-35.7845573425293 free_energy=-35.7845573425293 stress="-7.925007957965136e-05 -2.0762984220823455e-08 -1.5582392265400813e-08 -2.0762984220823455e-08 -7.925601676106453e-05 2.940408272422701e-08 -1.5582392265400813e-08 2.940408272422701e-08 -7.924096280476078e-05" pbc="T T T"
Cs       2.28373199       1.61484260       3.95553997      -0.00000028      -0.00000051      -0.00000064
Cs       6.85119515       4.84452628      11.86662011       0.00000010       0.00000034       0.00000067
Ta       0.00000065       0.00000025      -0.00000031      -0.00000792      -0.00000681       0.00000127
Br       2.10955250       1.49167916       7.91108045       0.00766897       0.00542328      -0.00000021
Br       7.02537403       4.96769020       7.91108003      -0.00765955      -0.00541753       0.00000016
Br       5.79641892       1.49167932       5.78246648      -0.00382976       0.00541598       0.00663373
Br       3.33850833       4.96769019      10.03969366       0.00382920      -0.00541633      -0.00663346
Br       3.33850859       4.96768999       5.78246649       0.00383091      -0.00541857       0.00663671
Br       5.79641867       1.49167873      10.03969363      -0.00383177       0.00541991      -0.00663817
