9
Lattice="6.576163793879588 -5.287200828797529e-08 3.7967498932385375 2.192054293412569 6.200067775965237 3.7967503343906883 3.2448251330396965e-07 7.697426878230741e-07 7.593499224457114" Properties=species:S:1:pos:R:3:forces:R:3 energy=-39.9171028137207 free_energy=-39.9171028137207 stress="-2.5103494408540428e-05 -1.0554281715258185e-07 3.061967390749487e-08 -1.0554281715258185e-07 -2.5054891011677682e-05 1.1539457389631025e-08 3.061967390749487e-08 1.1539457389631025e-08 -2.504646727174986e-05" pbc="T T T"
Cs       2.19205449       1.55001734       3.79674931      -0.00000039       0.00000027      -0.00000015
Cs       6.57616424       4.65005139      11.39024826       0.00000014      -0.00000043       0.00000094
Ta      -0.00000142      -0.00000071       0.00000168       0.00002141       0.00001005      -0.00001332
Cl       1.97268947       1.39490211       7.59349861       0.00266230       0.00188363       0.00000061
Cl       6.79552999       4.80516730       7.59349907      -0.00268126      -0.00189650       0.00000366
Cl       5.58981791       1.39490301       5.50514910      -0.00133094       0.00188226       0.00230914
Cl       3.17839870       4.80516557       9.68185174       0.00133029      -0.00187942      -0.00230402
Cl       3.17840130       4.80516579       5.50514945       0.00132790      -0.00188240       0.00230825
Cl       5.58981929       1.39490248       9.68185079      -0.00132945       0.00188249      -0.00230503
