9
Lattice="6.924551731372715 1.376911653055994e-07 3.997891288141821 2.3081839296101085 6.528530030326038 3.997891479817599 -1.5426148670180364e-07 1.2567463387740047e-07 7.995782843472382" Properties=species:S:1:pos:R:3:forces:R:3 energy=-24.64328384399414 free_energy=-24.64328384399414 stress="1.1102843927801587e-05 2.9168894855047256e-08 -2.0216239349224452e-08 2.9168894855047256e-08 1.1080644981120713e-05 2.5857575636223373e-08 -2.0216239349224452e-08 2.5857575636223373e-08 1.1043084668926895e-05" pbc="T T T"
Cs       2.30818343       1.63213242       3.99789171      -0.00000009       0.00000001      -0.00000044
Cs       6.92455172       4.89639748      11.99367524       0.00000067       0.00000022      -0.00000017
Te       0.00000260       0.00000232       0.00000139      -0.00002728      -0.00002223      -0.00001421
Br       2.23879139       1.58306480       7.99578238      -0.00143908      -0.00101744       0.00000077
Br       6.99394201       4.94546355       7.99578259       0.00146466       0.00103597       0.00000050
Br       5.80515584       1.58306504       5.93674154       0.00072337      -0.00102195      -0.00125096
Br       3.42757984       4.94546475      10.05482312      -0.00072630       0.00102858       0.00125881
Br       3.42757949       4.94546564       5.93674077      -0.00072017       0.00102033      -0.00124794
Br       5.80515576       1.58306522      10.05482361       0.00072426      -0.00102348       0.00125365
