9
Lattice="7.409058460394883 -5.78215560838129e-07 4.277622055183522 2.4696857728556187 6.98532671774141 4.277621770195973 1.3726360604115106e-07 -2.519769790902228e-07 8.55524387261942" Properties=species:S:1:pos:R:3:forces:R:3 energy=-21.485942840576172 free_energy=-21.485942840576172 stress="3.753416604013182e-05 -8.210980340095375e-09 1.5638068617818135e-08 -8.210980340095375e-09 3.753022974706255e-05 -2.832931755847312e-08 1.5638068617818135e-08 -2.832931755847312e-08 3.753917189897038e-05" pbc="T T T"
Cs       2.46968714       1.74633149       4.27762155      -0.00000065       0.00000006      -0.00000024
Cs       7.40905730       5.23899478      12.83286616       0.00000025      -0.00000035       0.00000005
Te      -0.00000157      -0.00000025      -0.00000122       0.00000945       0.00000036       0.00000985
I        2.42211896       1.71269543       8.55524367      -0.00064622      -0.00045692       0.00000043
I        7.45662634       5.27263110       8.55524361       0.00064103       0.00045245       0.00000002
I        6.19799963       1.71269533       6.37523814       0.00032233      -0.00045521      -0.00055704
I        3.68074450       5.27263086      10.73524966      -0.00032100       0.00045332       0.00055579
I        3.68074529       5.27262941       6.37523894      -0.00032623       0.00046039      -0.00056422
I        6.19799991       1.71269537      10.73525034       0.00032101      -0.00045402       0.00055539
