9
Lattice="6.802692932625694 -2.3032706818058669e-07 3.9275368214687862 2.2675641832444637 6.413640074091899 3.9275366664093583 7.114506114232659e-08 -1.3960118686855202e-07 7.855073519710807" Properties=species:S:1:pos:R:3:forces:R:3 energy=-33.26262283325195 free_energy=-33.26262283325195 stress="3.2690161333448486e-06 -2.4083485428150198e-08 1.3422232214566066e-08 -2.4083485428150198e-08 3.260684252381907e-06 -1.6363424393261994e-08 1.3422232214566066e-08 -1.6363424393261994e-08 3.338604983582627e-06" pbc="T T T"
Cs       2.26756431       1.60340974       3.92753660       0.00000025       0.00000008      -0.00000028
Cs       6.80269294       4.81022988      11.78261058       0.00000014      -0.00000012       0.00000028
Ti       0.00000052      -0.00000038       0.00000065      -0.00000522       0.00000310      -0.00000900
Br       2.09049725       1.47820402       7.85507387       0.00320743       0.00226948      -0.00000129
Br       6.97975964       4.93543553       7.85507394      -0.00320514      -0.00226746      -0.00000087
Br       5.75744416       1.47820442       5.73796144      -0.00160316       0.00226783       0.00277356
Br       3.31281369       4.93543528       9.97218508       0.00160014      -0.00226482      -0.00277174
Br       3.31281305       4.93543517       5.73796148       0.00160281      -0.00226871       0.00277466
Br       5.75744320       1.47820521       9.97218450      -0.00159730       0.00226059      -0.00276548
