9
Lattice="7.412638783997525 1.8478234964972934e-07 4.27968877147184 2.470879800064719 6.988703498121921 4.279688717458777 5.270285230538037e-08 -2.8885593015836777e-08 8.559377451659582" Properties=species:S:1:pos:R:3:forces:R:3 energy=-31.409236907958984 free_energy=-31.409236907958984 stress="2.1965383893984836e-06 -7.810815993991582e-09 -1.2400494853181954e-08 -7.810815993991582e-09 2.2220174287213013e-06 1.0289623375570045e-08 -1.2400494853181954e-08 1.0289623375570045e-08 2.194332864746684e-06" pbc="T T T"
Cs       2.47087915       1.74717584       4.27968666       0.00000011      -0.00000078       0.00000038
Cs       7.41263942       5.24152782      12.83906813       0.00000014       0.00000026      -0.00000026
Ta       0.00000017      -0.00000037      -0.00000162      -0.00000062       0.00000377       0.00001552
I        2.30630832       1.63080715       8.55937705       0.00118251       0.00083503       0.00000045
I        7.57721063       5.35789652       8.55937737      -0.00118341      -0.00083542       0.00000061
I        6.25948430       1.63080821       6.27701075      -0.00058763       0.00082903       0.00101793
I        3.62403463       5.35789679      10.84174520       0.00059314      -0.00083856      -0.00102837
I        3.62403400       5.35789589       6.27701047       0.00058921      -0.00083178       0.00102186
I        6.25948406       1.63080674      10.84174569      -0.00059346       0.00083844      -0.00102808
