9
Lattice="6.648711562099015 -2.516500533713924e-07 3.8386356907919494 2.216236983672515 6.268465024304994 3.8386356326574558 1.298881894762138e-07 2.064474139148989e-08 7.677271156610986" Properties=species:S:1:pos:R:3:forces:R:3 energy=-27.914461135864258 free_energy=-27.914461135864258 stress="4.702145452029072e-05 -1.0159194374637082e-07 9.062784300795101e-09 -1.0159194374637082e-07 4.708856067736633e-05 -1.2726659726070011e-08 9.062784300795101e-09 -1.2726659726070011e-08 4.717119736596942e-05" pbc="T T T"
Cs       2.21623698       1.56711626       3.83863546      -0.00000070       0.00000006       0.00000048
Cs       6.64871167       4.70134867      11.51590665       0.00000011      -0.00000025      -0.00000034
Te      -0.00000243       0.00000063      -0.00000110       0.00002971      -0.00000698       0.00001182
Cl       2.09946000       1.48454183       7.67727128      -0.00055212      -0.00038825      -0.00000063
Cl       6.76549002       4.78392324       7.67727150       0.00053766       0.00038146      -0.00000073
Cl       5.59898139       1.48454221       5.65682231       0.00027579      -0.00039143      -0.00048135
Cl       3.26596758       4.78392231       9.69772025      -0.00028046       0.00039478       0.00048308
Cl       3.26596781       4.78392193       5.65682276      -0.00028415       0.00039982      -0.00049036
Cl       5.59898168       1.48454210       9.69772076       0.00027419      -0.00038921       0.00047806
