9
Lattice="6.774070908810127 5.5849814535595325e-08 3.911011794269351 2.25802364643853 6.386655605648509 3.9110118678590546 -2.8828809202260832e-08 6.974372994703533e-08 7.8220236384714195" Properties=species:S:1:pos:R:3:forces:R:3 energy=-32.52383041381836 free_energy=-32.52383041381836 stress="1.3078311894787475e-05 -2.171519852822712e-09 -9.988458948839707e-09 -2.171519852822712e-09 1.3121212759870104e-05 1.857790898895928e-08 -9.988458948839707e-09 1.857790898895928e-08 1.3101754120725673e-05" pbc="T T T"
Cs       2.25802379       1.59666444       3.91101211      -0.00000019      -0.00000066      -0.00000018
Cs       6.77407062       4.78999165      11.73303566       0.00000004      -0.00000015      -0.00000039
V        0.00000043      -0.00000071       0.00000057      -0.00000637       0.00000628      -0.00000963
Br       2.04525890       1.44621705       7.82202369       0.00039813       0.00028062       0.00000006
Br       6.98683615       4.94043886       7.82202357      -0.00039917      -0.00028025      -0.00000025
Br       5.75144108       1.44621708       5.68225823      -0.00019796       0.00027953       0.00034292
Br       3.28065291       4.94043882       9.96178933       0.00019905      -0.00027873      -0.00034353
Br       3.28065263       4.94043869       5.68225716       0.00020336      -0.00028451       0.00035113
Br       5.75144148       1.44621700       9.96178873      -0.00019704       0.00027774      -0.00034016
