9
Lattice="5.668950782608518 2.1146626015129833e-07 3.2729701261590667 1.8896503715649742 5.344737561801565 3.2729702797517697 1.8033854572546957e-09 1.8938716176462498e-07 6.545940249194619" Properties=species:S:1:pos:R:3:forces:R:3 energy=-46.469852447509766 free_energy=-46.469852447509766 stress="-3.8364694887604855e-07 2.8432847187787047e-08 5.265555103051156e-09 2.8432847187787047e-08 -4.36905423839562e-07 9.062659067637924e-09 5.265555103051156e-09 9.062659067637924e-09 -4.447659875950194e-07" pbc="T T T"
Cs       1.88965052       1.33618451       3.27296997      -0.00000038      -0.00000071       0.00000018
Cs       5.66895076       4.00855405       9.81891190      -0.00000010       0.00000023      -0.00000044
V       -0.00000018       0.00000013      -0.00000046       0.00000460      -0.00000338       0.00000106
F        1.54390770       1.09170766       6.54594025       0.00258985       0.00183186      -0.00000110
F        6.01469327       4.25303044       6.54593977      -0.00259082      -0.00183223       0.00000032
F        4.89699734       1.09170746       4.61003266      -0.00129710       0.00183398       0.00224675
F        2.66160394       4.25303034       8.48184799       0.00129589      -0.00183253      -0.00224403
F        2.66160420       4.25303079       4.61003242       0.00129548      -0.00183332       0.00224520
F        4.89699702       1.09170688       8.48184781      -0.00129757       0.00183617      -0.00224826
