9
Lattice="6.495952033521526 -1.6581565501687863e-08 3.750439738809561 2.165317403520069 6.124442392852704 3.750439609518444 2.549515460291965e-08 -1.4032077749167485e-07 7.500879433460249" Properties=species:S:1:pos:R:3:forces:R:3 energy=-36.21411895751953 free_energy=-36.21411895751953 stress="2.494981890777126e-05 -1.3052601666174724e-08 9.175123771854032e-09 -1.3052601666174724e-08 2.4998023945954628e-05 -2.19837459347616e-09 9.175123771854032e-09 -2.19837459347616e-09 2.49757977144327e-05" pbc="T T T"
Cs       2.16531737       1.53111054       3.75043986       0.00000008      -0.00000024       0.00000016
Cs       6.49595207       4.59333123      11.25131899       0.00000025       0.00000043      -0.00000005
V        0.00000024      -0.00000015       0.00000015      -0.00000255       0.00000471      -0.00000137
Cl       1.90576583       1.34758002       7.50087956       0.00050625       0.00035691      -0.00000058
Cl       6.75550392       4.77686242       7.50087936      -0.00050873      -0.00035805       0.00000001
Cl       5.54306923       1.34757995       5.40088114      -0.00025281       0.00035670       0.00043696
Cl       3.11819989       4.77686229       9.60087732       0.00025488      -0.00035787      -0.00043991
Cl       3.11820016       4.77686257       5.40088113       0.00025383      -0.00035787       0.00043920
Cl       5.54306927       1.34757990       9.60087727      -0.00025100       0.00035504      -0.00043446
