9
Lattice="6.845870182815218 6.431959949893586e-08 3.9524649893190116 2.28195693437547 6.454347854232976 3.9524647362155556 1.9867999026857638e-07 -1.6949905280875884e-07 7.9049296345141045" Properties=species:S:1:pos:R:3:forces:R:3 energy=-34.51138687133789 free_energy=-34.51138687133789 stress="-1.3373989531828556e-05 2.9026375969465334e-08 3.2890529411133684e-08 2.9026375969465334e-08 -1.3395271707850043e-05 -3.756517230613099e-08 3.2890529411133684e-08 -3.756517230613099e-08 -1.3421877156361006e-05" pbc="T T T"
Cs       2.28195699       1.61358738       3.95246492       0.00000033      -0.00000087       0.00000002
Cs       6.84587031       4.84076100      11.85739430      -0.00000042       0.00000036       0.00000038
W        0.00000143       0.00000020       0.00000065      -0.00001985      -0.00000171      -0.00001018
Br       2.08691338       1.47566997       7.90492992       0.00410310       0.00290222      -0.00000086
Br       7.04091327       4.97867710       7.90492989      -0.00408951      -0.00289171      -0.00000037
Br       5.80241394       1.47566976       5.75978403      -0.00205156       0.00290110       0.00355303
Br       3.32541326       4.97867781      10.05007507       0.00205093      -0.00290068      -0.00355409
Br       3.32541324       4.97867729       5.75978423       0.00205076      -0.00290013       0.00355298
Br       5.80241347       1.47567044      10.05007432      -0.00204389       0.00289145      -0.00354100
