9
Lattice="7.318986002772117 2.9353401689685444e-07 4.225618382897529 2.439662208976185 6.9004060804883895 4.225618501879675 -2.0128842756080507e-07 3.390136153258593e-09 8.451237114436791" Properties=species:S:1:pos:R:3:forces:R:3 energy=-30.43527603149414 free_energy=-30.43527603149414 stress="1.832179918892507e-07 6.500809490717074e-08 -2.6938851149793663e-09 6.500809490717074e-08 1.5309987588807417e-07 -9.086440044825395e-09 -2.6938851149793663e-09 -9.086440044825395e-09 1.0058791843903236e-07" pbc="T T T"
Cs       2.43966199       1.72510129       4.22561828      -0.00000081       0.00000258       0.00000024
Cs       7.31898610       5.17530509      12.67685528       0.00000111      -0.00000187       0.00000081
W        0.00000017       0.00000038       0.00000096      -0.00000185      -0.00000555      -0.00001206
I        2.26191034       1.59941279       8.45123711       0.00138950       0.00098245      -0.00000008
I        7.49673697       5.30099332       8.45123728      -0.00138496      -0.00098026      -0.00000080
I        6.18803104       1.59941162       6.18448977      -0.00069955       0.00099038       0.00121208
I        3.57061714       5.30099404      10.71798397       0.00069390      -0.00098284      -0.00120442
I        3.57061708       5.30099444       6.18448990       0.00069857      -0.00098792       0.00120968
I        6.18803126       1.59941250      10.71798378      -0.00069594       0.00098294      -0.00120553
