9
Lattice="5.67892804903838 -2.5868131876934636e-08 3.2787304495498413 1.8929760331189358 5.354144510670339 3.278730378255985 6.585134455425113e-08 -4.075281552096353e-08 6.557460785041751" Properties=species:S:1:pos:R:3:forces:R:3 energy=-45.84788513183594 free_energy=-45.84788513183594 stress="-0.00041638637776486576 1.4433711115202641e-08 8.467234025033576e-09 1.4433711115202641e-08 -0.0004164485726505518 -1.1160649293628921e-08 8.467234025033576e-09 -1.1160649293628921e-08 -0.00041641853749752045" pbc="T T T"
Cs       1.89297645       1.33853636       3.27873056       0.00000178       0.00000164       0.00000036
Cs       5.67892821       4.01560850       9.83619155      -0.00000009      -0.00000049      -0.00000072
W        0.00000015      -0.00000009      -0.00000036      -0.00000288      -0.00000268       0.00000528
F        1.66071516       1.17430254       6.55746065       0.00452369       0.00319819      -0.00000048
F        5.91118878       4.17984195       6.55746072      -0.00451997      -0.00319803       0.00000044
F        4.84857038       1.17430230       4.71695108      -0.00226095       0.00319859       0.00391589
F        2.72333344       4.17984202       8.39797031       0.00226105      -0.00319918      -0.00391783
F        2.72333353       4.17984195       4.71695147       0.00225986      -0.00319712       0.00391619
F        4.84857053       1.17430226       8.39797052      -0.00226239       0.00319904      -0.00391904
