9
Lattice="6.5986732273804245 3.8616123485709833e-07 3.8097458502837442 2.1995581230445156 6.221289247391468 3.809745821690928 -6.42998314957177e-10 -3.5473652654513924e-08 7.619491701681186" Properties=species:S:1:pos:R:3:forces:R:3 energy=-38.49128341674805 free_energy=-38.49128341674805 stress="-3.2979271054500714e-05 3.73634989614402e-08 3.6765996913601384e-09 3.73634989614402e-08 -3.2989526516757905e-05 -1.6404557712235146e-08 3.6765996913601384e-09 -1.6404557712235146e-08 -3.2990014005918056e-05" pbc="T T T"
Cs       2.19955797       1.55532182       3.80974623       0.00000023       0.00000041      -0.00000077
Cs       6.59867349       4.66596650      11.42923749      -0.00000027       0.00000044       0.00000080
W        0.00000082       0.00000050       0.00000171      -0.00001033      -0.00000756      -0.00003648
Cl       1.96259251       1.38776330       7.61949212       0.00560588       0.00396305      -0.00000088
Cl       6.83563793       4.83352663       7.61949275      -0.00559551      -0.00395630      -0.00000179
Cl       5.61737729       1.38776178       5.50940028      -0.00280785       0.00397183       0.00486219
Cl       3.18085382       4.83352678       9.72958079       0.00279710      -0.00395484      -0.00484189
Cl       3.18085360       4.83352735       5.50940068       0.00280719      -0.00396975       0.00485943
Cl       5.61737786       1.38776373       9.72958115      -0.00279652       0.00395280      -0.00484060
