9
Lattice="6.890615975163687 4.0637376477696753e-08 3.9782988290257135 2.296871999056927 6.49653500568015 3.9782988826805705 -4.303164568499391e-08 3.5285343184854645e-08 7.956597732584532" Properties=species:S:1:pos:R:3:forces:R:3 energy=-35.243614196777344 free_energy=-35.243614196777344 stress="-1.2175624760857318e-05 8.97411978062479e-10 1.555154049981411e-08 8.97411978062479e-10 -1.2193841030239128e-05 -5.0232848991527135e-09 1.555154049981411e-08 -5.0232848991527135e-09 -1.2188432265247684e-05" pbc="T T T"
Cs       2.29687187       1.62413403       3.97829859      -0.00000007       0.00000137       0.00000071
Cs       6.89061601       4.87240120      11.93489712      -0.00000036      -0.00000116      -0.00000081
Zr       0.00000056      -0.00000007       0.00000003      -0.00000303       0.00000127       0.00000071
Br       2.17402909       1.53727044       7.95659760       0.00097567       0.00069071      -0.00000024
Br       7.01345848       4.95926414       7.95659739      -0.00097364      -0.00068898       0.00000094
Br       5.80360119       1.53727076       5.86106317      -0.00048756       0.00068950       0.00084493
Br       3.38388633       4.95926465      10.05213242       0.00048906      -0.00069164      -0.00084694
Br       3.38388671       4.95926465       5.86106296       0.00048762      -0.00069153       0.00084619
Br       5.80360148       1.53727049      10.05213241      -0.00048770       0.00069045      -0.00084562
