9
Lattice="5.826083829276571 9.942175752905152e-08 3.3636908332644366 1.9420280175694524 5.492884609986461 3.3636908666211656 -6.792910575490625e-08 -7.1796285387930794e-09 6.727381784185658" Properties=species:S:1:pos:R:3:forces:R:3 energy=-51.84330368041992 free_energy=-51.84330368041992 stress="-4.217025707475841e-05 2.4269020570955036e-08 9.497677311287589e-09 2.4269020570955036e-08 -4.2127776396228e-05 2.915866159636238e-11 9.497677311287589e-09 2.915866159636238e-11 -4.2196246795356274e-05" pbc="T T T"
Cs       1.94202865       1.37322149       3.36369071      -0.00000008       0.00000008      -0.00000005
Cs       5.82608334       4.11966286      10.09107167       0.00000052      -0.00000071       0.00000031
Zr      -0.00000011       0.00000006       0.00000033       0.00000378       0.00000026      -0.00000311
F        1.66982565       1.18074533       6.72738178       0.00487226       0.00344450       0.00000019
F        6.09828601       4.31213944       6.72738176      -0.00487397      -0.00344585       0.00000021
F        4.99117083       1.18074592       4.80980228      -0.00243852       0.00344706       0.00422464
F        2.77694136       4.31213914       8.64496130       0.00243674      -0.00344527      -0.00422189
F        2.77694081       4.31213887       4.80980260       0.00243647      -0.00344543       0.00422170
F        4.99117064       1.18074579       8.64496132      -0.00243687       0.00344522      -0.00422189
