9
Lattice="6.615121940585129 -1.3986696941596654e-08 3.8192421782479724 2.2050406732000547 6.236796392327416 3.8192421097884073 9.41209060862886e-08 -1.729215278119883e-08 7.638484193473918" Properties=species:S:1:pos:R:3:forces:R:3 energy=-39.233612060546875 free_energy=-39.233612060546875 stress="0.00010016293526859954 5.98580882638089e-08 5.329744645621304e-09 5.98580882638089e-08 0.00010008409299189225 -2.1939781547075654e-08 5.329744645621304e-09 -2.1939781547075654e-08 0.00010002921771956608" pbc="T T T"
Cs       2.20504047       1.55919895       3.81924210       0.00000036       0.00000038      -0.00000012
Cs       6.61512175       4.67759734      11.45772621      -0.00000021      -0.00000013       0.00000032
Zr      -0.00000054       0.00000239      -0.00000053       0.00000413      -0.00002823       0.00001023
Cl       2.03681695       1.44024667       7.63848424      -0.00375060      -0.00265106      -0.00000002
Cl       6.78334524       4.79654918       7.63848441       0.00376095       0.00265932      -0.00000036
Cl       5.59671403       1.44024598       5.58317602       0.00187067      -0.00264484      -0.00323919
Cl       3.22344946       4.79654968       9.69379213      -0.00187556       0.00265127       0.00324487
Cl       3.22344945       4.79654924       5.58317673      -0.00187947       0.00265708      -0.00325296
Cl       5.59671395       1.44024593       9.69379272       0.00186964      -0.00264380       0.00323727
