9
Lattice="7.393902041866316 2.8930191423621746e-07 4.268871067978236 2.464634205024659 6.971037347874523 4.268871209464675 -3.222075183988873e-08 1.505013853438687e-07 8.537742191764426" Properties=species:S:1:pos:R:3:forces:R:3 energy=-30.887977600097656 free_energy=-30.887977600097656 stress="-0.00015282255480997264 2.6221840698781307e-08 -1.529258852883686e-08 2.6221840698781307e-08 -0.00015287920541595668 1.5153238663856428e-08 -1.529258852883686e-08 1.5153238663856428e-08 -0.00015283148968592286" pbc="T T T"
Cs       2.46463579       1.74275808       4.26887136      -0.00000043       0.00000029      -0.00000030
Cs       7.39390020       5.22827953      12.80661380      -0.00000001      -0.00000044       0.00000005
Zr      -0.00000023       0.00000003      -0.00000132       0.00000150       0.00000243       0.00000478
I        2.36423659       1.67176719       8.53774213      -0.00505251      -0.00357056       0.00000096
I        7.49430042       5.29927059       8.53774227       0.00504905       0.00356880      -0.00000036
I        6.21178410       1.67176555       6.31635987       0.00252626      -0.00356891      -0.00437565
I        3.64675168       5.29927260      10.75912519      -0.00252319       0.00356622       0.00437173
I        3.64675169       5.29927246       6.31635945      -0.00252290       0.00356726      -0.00437209
I        6.21178456       1.67176516      10.75912504       0.00252220      -0.00356512       0.00437088
