9
Lattice="6.049627810051146 1.0479143552751564e-08 3.4927542413543846 2.0165426029946043 5.703643822196202 3.4927542590829748 -9.239999164818298e-09 1.5179337149279202e-08 6.985508498712903" Properties=species:S:1:pos:R:3:forces:R:3 energy=-17.644489288330078 free_energy=-17.644489288330078 stress="0.00033361330861225724 -3.136973125705822e-09 7.379052480160908e-09 -3.136973125705822e-09 0.0003335851361043751 1.290123563535417e-09 7.379052480160908e-09 1.290123563535417e-09 0.0003336014342494309" pbc="T T T"
Cu       2.01654263       1.42591098       3.49275424      -0.00000021       0.00000101       0.00000002
Cu       6.04962780       4.27773286      10.47826279       0.00000026      -0.00000037       0.00000010
Au      -0.00000006      -0.00000004      -0.00000002       0.00000047       0.00000080      -0.00000093
Br       2.09677642       1.48264487       6.98550848       0.00111908       0.00079060       0.00000045
Br       5.96939400       4.22099897       6.98550848      -0.00111967      -0.00079097      -0.00000008
Br       5.00123959       1.48264489       5.30861590      -0.00055993       0.00079146       0.00096941
Br       3.06493081       4.22099901       8.66240113       0.00056016      -0.00079207      -0.00096995
Br       3.06493080       4.22099905       5.30861588       0.00056052      -0.00079152       0.00097016
Br       5.00123960       1.48264481       8.66240114      -0.00056069       0.00079116      -0.00096944
