9
Lattice="6.55922873636575 -6.876071444348155e-08 3.786972527423759 2.186409500086535 6.184100076522677 3.786972551453981 4.5864958240989325e-09 3.2674010493082425e-08 7.57394504690348" Properties=species:S:1:pos:R:3:forces:R:3 energy=-15.68907356262207 free_energy=-15.68907356262207 stress="-6.38560377410613e-05 4.175959134045115e-09 -2.0291570645980528e-09 4.175959134045115e-09 -6.384895095834509e-05 3.1552318535688073e-09 -2.0291570645980528e-09 3.1552318535688073e-09 -6.385856249835342e-05" pbc="T T T"
Cu       2.18640955       1.54602561       3.78697244      -0.00000053       0.00000290       0.00000018
Cu       6.55922849       4.63807482      11.36091720      -0.00000073      -0.00000061      -0.00000083
Au      -0.00000016       0.00000005      -0.00000033       0.00000237      -0.00000051       0.00000105
I        2.31247811       1.63516912       7.57394505      -0.00324553      -0.00229476      -0.00000009
I        6.43316044       4.54893076       7.57394523       0.00324535       0.00229329       0.00000063
I        5.40298950       1.63516927       5.78963760       0.00162231      -0.00229445      -0.00281003
I        3.34264875       4.54893069       9.35825279      -0.00162229       0.00229354       0.00281081
I        3.34264864       4.54893065       5.78963764      -0.00162351       0.00229441      -0.00281116
I        5.40298964       1.63516915       9.35825284       0.00162261      -0.00229374       0.00280955
