9
Lattice="4.827901557262853 -9.643185267133035e-08 2.787390264293951 1.6093004735060514 4.551789131204045 2.7873901857710166 -4.0716366847201735e-08 -1.24961379279768e-07 5.574780599110764" Properties=species:S:1:pos:R:3:forces:R:3 energy=-28.276443481445312 free_energy=-28.276443481445312 stress="0.0007053458248265088 5.7179496693038345e-09 2.4802277565072472e-08 5.7179496693038345e-09 0.0007053606095723808 2.6749374271162196e-08 2.4802277565072472e-08 2.6749374271162196e-08 0.0007052781875245273" pbc="T T T"
Cu       1.60930034       1.13794727       2.78739081      -0.00000148       0.00000140       0.00000209
Cu       4.82790116       3.41384209       8.36217009      -0.00000092       0.00000105      -0.00000372
Ag       0.00000016      -0.00000012      -0.00000010      -0.00000020       0.00000128      -0.00000103
F        1.65529270       1.17046866       5.57478047      -0.00576830      -0.00407812      -0.00000018
F        4.78190923       3.38131987       5.57478071       0.00576937       0.00407806       0.00000088
F        4.00025503       1.17046809       4.22091579       0.00288245      -0.00407946      -0.00499398
F        2.43694725       3.38132080       6.92864566      -0.00288212       0.00407812       0.00499412
F        2.43694670       3.38132065       4.22091554      -0.00288245       0.00407568      -0.00499204
F        4.00025544       1.17046826       6.92864540       0.00288379      -0.00407806       0.00499406
