9
Lattice="6.0446582523144885 -2.1820765690090387e-08 3.48988507048252 2.014886073533647 5.698958423120862 3.4898850531591217 6.318606979067628e-09 -1.674876721489973e-08 6.9797701300207935" Properties=species:S:1:pos:R:3:forces:R:3 energy=-17.39677619934082 free_energy=-17.39677619934082 stress="-4.6730587200727314e-05 1.1275625988460547e-09 -2.5841897510758827e-09 1.1275625988460547e-09 -4.677075412473641e-05 -2.5032814932046676e-08 -2.5841897510758827e-09 -2.5032814932046676e-08 -4.675900345318951e-05" pbc="T T T"
Cu       2.01488607       1.42473943       3.48988508      -0.00000123      -0.00000064      -0.00000018
Cu       6.04465837       4.27421881      10.46965562       0.00000108       0.00000057       0.00000383
Ag       0.00000016       0.00000010       0.00000040      -0.00000174      -0.00000191      -0.00000513
Br       2.07838243       1.46963830       6.97977015      -0.00338994      -0.00239782       0.00000008
Br       5.98116180       4.22932010       6.97976990       0.00339225       0.00239904      -0.00000119
Br       5.00546711       1.46963833       5.28981707       0.00169453      -0.00239582      -0.00293501
Br       3.05407720       4.22932000       8.66972287      -0.00169615       0.00239912       0.00293696
Br       3.05407732       4.22932014       5.28981711      -0.00169515       0.00239711      -0.00293639
Br       5.00546691       1.46963834       8.66972280       0.00169629      -0.00239961       0.00293700
