9
Lattice="6.514501925953419 -1.730150481686391e-08 3.761149410313558 2.1715005889131147 6.141931424474576 3.761149473982632 -1.113140930295216e-07 -7.326179106870766e-10 7.522299013428844" Properties=species:S:1:pos:R:3:forces:R:3 energy=-15.178008079528809 free_energy=-15.178008079528809 stress="-0.00026718026492744684 1.4476946752495223e-08 1.7252000716894145e-08 1.4476946752495223e-08 -0.00026718960725702345 1.9169695164578116e-08 1.7252000716894145e-08 1.9169695164578116e-08 -0.00026717502623796463" pbc="T T T"
Cu       2.17150029       1.53548293       3.76114895      -0.00000091       0.00000044      -0.00000230
Cu       6.51450177       4.60644841      11.28344837      -0.00000075      -0.00000136       0.00000032
Ag      -0.00000041      -0.00000032      -0.00000007       0.00000272       0.00000260       0.00000099
I        2.27645144       1.60969420       7.52229913      -0.00674093      -0.00476563       0.00000209
I        6.40955137       4.53223728       7.52229840       0.00673833       0.00476386      -0.00000116
I        5.37627608       1.60969430       5.73261440       0.00337107      -0.00476651      -0.00583644
I        3.30972615       4.53223711       9.31198391      -0.00336903       0.00476456       0.00583646
I        3.30972640       4.53223717       5.73261444      -0.00337020       0.00476616      -0.00583606
I        5.37627652       1.60969451       9.31198409       0.00336966      -0.00476409       0.00583613
