9
Lattice="5.7116982448464295 -8.29838313561538e-09 3.2976505185330227 1.9038994073408682 5.385040717195243 3.2976505181592453 9.62280147912236e-10 2.2262906746736857e-10 6.5953010353993315" Properties=species:S:1:pos:R:3:forces:R:3 energy=-20.459108352661133 free_energy=-20.459108352661133 stress="0.00015102398174349219 -2.8593503120788455e-09 4.996975722093566e-09 -2.8593503120788455e-09 0.00015096331480890512 2.0252629795436405e-08 4.996975722093566e-09 2.0252629795436405e-08 0.00015099237498361617" pbc="T T T"
Cu       1.90389964       1.34626025       3.29765039       0.00000122       0.00000038      -0.00000078
Cu       5.71169828       4.03878064       9.89295196       0.00000023      -0.00000094       0.00000171
Au       0.00000003       0.00000004      -0.00000021       0.00000004      -0.00000253      -0.00000461
Cl       1.96279814       1.38790787       6.59530104      -0.00461566      -0.00326541      -0.00000003
Cl       5.65279939       3.99713259       6.59530087       0.00462016       0.00326335      -0.00000064
Cl       4.73029909       1.38790782       4.99748338       0.00230631      -0.00326374      -0.00399795
Cl       2.88529843       3.99713280       8.19311854      -0.00231119       0.00326705       0.00400025
Cl       2.88529855       3.99713305       4.99748374      -0.00230870       0.00326651      -0.00399801
Cl       4.73029898       1.38790775       8.19311863       0.00230770      -0.00326461       0.00399962
