9
Lattice="4.804573335874611 -9.361574462238026e-08 2.773921817181781 1.6015243688993277 4.529795220395147 2.7739217966231595 2.7124621836039377e-08 -5.999123859249268e-09 5.547843587382413" Properties=species:S:1:pos:R:3:forces:R:3 energy=-29.439109802246094 free_energy=-29.439109802246094 stress="0.0005464522982947528 -1.660665915892423e-08 -1.4640018974887425e-08 -1.660665915892423e-08 0.0005464997957460582 4.420571286800623e-08 -1.4640018974887425e-08 4.420571286800623e-08 0.0005465095164254308" pbc="T T T"
Cu       1.60152477       1.13244851       2.77392164       0.00000195      -0.00000130       0.00000000
Cu       4.80457362       3.39734628       8.32176528      -0.00000037      -0.00000014      -0.00000126
Au      -0.00000002      -0.00000007       0.00000004      -0.00000436       0.00000607       0.00001397
F        1.62977618       1.15242562       5.54784335      -0.00239606      -0.00169438      -0.00000048
F        4.77632129       3.37736968       5.54784370       0.00239530       0.00169478       0.00000054
F        3.98968504       1.15242585       4.18534980       0.00120255      -0.00170036      -0.00208282
F        2.41641233       3.37736928       6.91033762      -0.00119735       0.00169326       0.00207263
F        2.41641260       3.37736913       4.18534970      -0.00119878       0.00169525      -0.00207753
F        3.98968512       1.15242606       6.91033778       0.00119708      -0.00169311       0.00207494
