9
Lattice="4.312833150827738 -1.2508350247048872e-07 2.490015062866701 1.4376110090830982 4.066177412706756 2.4900149299542242 1.9389706405701027e-08 -1.4907326030786312e-07 4.980030092149417" Properties=species:S:1:pos:R:3:forces:R:3 energy=-36.479984283447266 free_energy=-36.479984283447266 stress="-4.590567186824046e-05 1.9860872058075074e-08 1.7817228581407107e-08 1.9860872058075074e-08 -4.598757004714571e-05 2.9096982601117816e-09 1.7817228581407107e-08 2.9096982601117816e-09 -4.624999201041646e-05" pbc="T T T"
Cu       1.43761073       1.01654442       2.49001506      -0.00000019      -0.00000021       0.00000018
Cu       4.31283348       3.04963272       7.47004469      -0.00000070       0.00000059      -0.00000163
Be       0.00000008      -0.00000012       0.00000042       0.00000006      -0.00000007      -0.00000258
F        1.38194997       0.97718615       4.98002999       0.00009000       0.00006700       0.00000123
F        4.36849421       3.08899095       4.98003017      -0.00008845      -0.00006825       0.00000162
F        3.62185783       0.97718551       3.68681828      -0.00004622       0.00006437       0.00008321
F        2.12858612       3.08899173       6.27324164       0.00004521      -0.00006455      -0.00008041
F        2.12858634       3.08899157       3.68681811       0.00004643      -0.00006634       0.00008172
F        3.62185807       0.97718559       6.27324205      -0.00004587       0.00006634      -0.00008237
