9
Lattice="6.425545156426229 6.913825085363352e-08 3.7097901159700872 2.141848437615619 6.058062139720934 3.7097901385628083 -1.647860096351859e-08 1.6018183306407747e-08 7.419580260481947" Properties=species:S:1:pos:R:3:forces:R:3 energy=-17.44757652282715 free_energy=-17.44757652282715 stress="-9.312661859439686e-06 1.022957363261412e-08 1.3595553502443458e-11 1.022957363261412e-08 -9.314972885476891e-06 -2.892002415322281e-09 1.3595553502443458e-11 -2.892002415322281e-09 -9.322732694272418e-06" pbc="T T T"
Cu       2.14184824       1.51451550       3.70978973       0.00000058      -0.00000085      -0.00000123
Cu       6.42554519       4.54354690      11.12937096      -0.00000104       0.00000047       0.00000073
Be       0.00000000      -0.00000004      -0.00000023       0.00000013       0.00000039      -0.00000001
I        2.10602923       1.48918736       7.41958031       0.00005161       0.00003651       0.00000057
I        6.46136451       4.56887476       7.41957982      -0.00005242      -0.00003690      -0.00000025
I        5.37253052       1.48918752       5.53366487      -0.00002557       0.00003653       0.00004528
I        3.19486281       4.56887460       9.30549592       0.00002661      -0.00003719      -0.00004569
I        3.19486328       4.56887498       5.53366484       0.00002670      -0.00003617       0.00004572
I        5.37253052       1.48918742       9.30549579      -0.00002657       0.00003723      -0.00004516
