9
Lattice="5.828303273873682 -4.0104478117057386e-08 3.3649725377308997 1.9427677628831748 5.494977006193246 3.364972463709704 1.1252065004024729e-07 -1.1092970093284026e-08 6.729944880570336" Properties=species:S:1:pos:R:3:forces:R:3 energy=-20.605621337890625 free_energy=-20.605621337890625 stress="4.545688170765061e-06 -4.975335254897573e-09 8.952884655855087e-09 -4.975335254897573e-09 4.5551423681899905e-06 9.344462981175639e-10 8.952884655855087e-09 9.344462981175639e-10 4.561209152598167e-06" pbc="T T T"
Cu       1.94276800       1.37374496       3.36497301      -0.00000064       0.00000250       0.00000064
Cu       5.82830352       4.12123209      10.09491635       0.00000185      -0.00000326      -0.00000493
Be      -0.00000008      -0.00000007       0.00000010      -0.00000114      -0.00000046      -0.00000101
Br       1.92233807       1.35929846       6.72994530       0.00783905       0.00554434      -0.00000218
Br       5.84873241       4.13567838       6.72994550      -0.00783592      -0.00554074       0.00000125
Br       4.86713435       1.35929806       5.02976632      -0.00392154       0.00554420       0.00678827
Br       2.90393702       4.13567846       8.43012311       0.00391635      -0.00554148      -0.00678518
Br       2.90393673       4.13567855       5.02976626       0.00391889      -0.00554675       0.00678889
Br       4.86713455       1.35929887       8.43012337      -0.00391689       0.00554189      -0.00678602
