9
Lattice="6.550051152327598 4.091429608841506e-08 3.7816737671056 2.1833504052231216 6.175447459014912 3.78167379734792 -4.8447093054798985e-08 2.7817842881259195e-09 7.563347618124063" Properties=species:S:1:pos:R:3:forces:R:3 energy=-23.99207305908203 free_energy=-23.99207305908203 stress="4.058787089888938e-05 9.039054837955973e-09 -1.9538919371342445e-09 9.039054837955973e-09 4.058161357534118e-05 1.759120316080498e-08 -1.9538919371342445e-09 1.759120316080498e-08 4.057104524690658e-05" pbc="T T T"
Cu       2.18335015       1.54386156       3.78167409      -0.00000037      -0.00000056       0.00000092
Cu       6.55005098       4.63158580      11.34502288      -0.00000091      -0.00000029       0.00000500
Cr       0.00000036      -0.00000049       0.00000008      -0.00000291       0.00000423      -0.00000019
I        2.16277398       1.52931217       7.56334750      -0.00698950      -0.00494160      -0.00000093
I        6.57062771       4.64613530       7.56334679       0.00698890       0.00494225      -0.00000138
I        5.46866432       1.52931268       5.65469080       0.00349614      -0.00494345      -0.00605671
I        3.26473701       4.64613536       9.47200445      -0.00349434       0.00494192       0.00605157
I        3.26473729       4.64613580       5.65469047      -0.00349285       0.00494130      -0.00605076
I        5.46866421       1.52931188       9.47200374       0.00349583      -0.00494384       0.00605268
