9
Lattice="4.436288173746891 6.196618640545461e-08 2.5612922009505685 1.478762766960002 4.182572558467134 2.5612922287405233 -2.2383748737570216e-09 3.245284022406996e-08 5.1225844057781025" Properties=species:S:1:pos:R:3:forces:R:3 energy=-35.70128631591797 free_energy=-35.70128631591797 stress="0.00010949670831905678 -3.622716704398954e-08 -3.7425056831352776e-08 -3.622716704398954e-08 0.00010960982035612687 4.609371373476279e-08 -3.7425056831352776e-08 4.609371373476279e-08 0.00010953715536743402" pbc="T T T"
Cu       1.47876256       1.04564293       2.56129247       0.00000042      -0.00000119       0.00000092
Cu       4.43628826       3.13692970       7.68387648      -0.00000067       0.00000092      -0.00000013
Co      -0.00000002       0.00000005       0.00000019      -0.00000383       0.00000292      -0.00000577
F        1.46406156       1.03524801       5.12258438      -0.00786832      -0.00556396       0.00000000
F        4.45098915       3.14732459       5.12258430       0.00787116       0.00556539      -0.00000055
F        3.70425734       1.03524816       3.82920664       0.00393601      -0.00556809      -0.00681465
F        2.21079394       3.14732450       6.41596196      -0.00393723       0.00556902       0.00681687
F        2.21079359       3.14732456       3.82920645      -0.00393351       0.00556274      -0.00681102
F        3.70425734       1.03524818       6.41596244       0.00393612      -0.00556774       0.00681420
