9
Lattice="5.62332131689104 1.6990022228653983e-07 3.246626474942105 1.8744405983238879 5.3017184628987755 3.2466264763681107 5.3518936906304134e-08 3.9590079879538016e-08 6.493252857186676" Properties=species:S:1:pos:R:3:forces:R:3 energy=-22.33469009399414 free_energy=-22.33469009399414 stress="0.0003464465553406626 -2.4885993710199728e-08 1.2400224846942365e-08 -2.4885993710199728e-08 0.00034636983764357865 3.040002383158935e-08 1.2400224846942365e-08 3.040002383158935e-08 0.0003463698085397482" pbc="T T T"
Cu       1.87444160       1.32542907       3.24662636       0.00000684      -0.00000470      -0.00000198
Cu       5.62332052       3.97628841       9.73987987      -0.00000449      -0.00000279       0.00000173
C       -0.00000425       0.00000647       0.00000546      -0.00005326       0.00008270       0.00007422
Cl       1.80006954       1.27284088       6.49325279      -0.00576837      -0.00408043      -0.00000238
Cl       5.69769230       4.02887767       6.49325248       0.00576704       0.00407520      -0.00000112
Cl       4.72328834       1.27283902       4.80552873       0.00290502      -0.00410677      -0.00503262
Cl       2.77447725       4.02887538       8.18097088      -0.00286121       0.00404705       0.00495835
Cl       2.77447592       4.02887712       4.80553243      -0.00288009       0.00407123      -0.00499314
Cl       4.72328665       1.27284070       8.18097429       0.00288865      -0.00408157       0.00499733
