9
Lattice="5.711806219913499 -5.154536029633518e-09 3.2977128443621706 1.9039353525672575 5.385142534746978 3.2977129295978957 -5.642398486011669e-08 6.449419420948498e-08 6.5954257864535055" Properties=species:S:1:pos:R:3:forces:R:3 energy=-19.42357635498047 free_energy=-19.42357635498047 stress="-2.894661702157464e-05 1.720459863463475e-08 -2.185248249020333e-08 1.720459863463475e-08 -2.8970503990422003e-05 2.7812586012032625e-08 -2.185248249020333e-08 2.7812586012032625e-08 -2.8975809982512146e-05" pbc="T T T"
Cu       1.90393505       1.34628546       3.29771291      -0.00000116      -0.00000171       0.00000021
Cu       5.71180588       4.03885746       9.89313851      -0.00000088       0.00000201      -0.00000055
Cd      -0.00000014       0.00000021       0.00000032       0.00000202      -0.00000326      -0.00000749
Cl       2.01013567       1.42138055       6.59542581      -0.00173751      -0.00123052       0.00000134
Cl       5.60560613       3.96376214       6.59542603       0.00174014       0.00122726      -0.00000258
Cl       4.70673829       1.42138019       5.03854118       0.00086725      -0.00122528      -0.00150147
Cl       2.90900382       3.96376184       8.15230973      -0.00087213       0.00123501       0.00151101
Cl       2.90900294       3.96376227       5.03854124      -0.00086653       0.00122711      -0.00150433
Cl       4.70673841       1.42138025       8.15231052       0.00086872      -0.00123052       0.00150371
