9
Lattice="6.36853509830285 2.0642840326965617e-08 3.6768756056217686 2.1228450588729038 6.004312538380598 3.6768755941156366 5.4035790530494625e-08 2.411704195136595e-08 7.353751117650814" Properties=species:S:1:pos:R:3:forces:R:3 energy=-17.40826416015625 free_energy=-17.40826416015625 stress="-3.950025711674243e-05 -6.374994976354742e-10 -1.93607778697924e-08 -6.374994976354742e-10 -3.9515201933681965e-05 1.6097747135290774e-08 -1.93607778697924e-08 1.6097747135290774e-08 -3.953425766667351e-05" pbc="T T T"
Cu       2.12284570       1.50107835       3.67687547       0.00000206       0.00000029       0.00000055
Cu       6.36853513       4.50323474      11.03062775       0.00000063       0.00000163       0.00000505
C        0.00000133      -0.00000051       0.00000139       0.00000194      -0.00000042       0.00000118
I        2.16249045       1.52911202       7.35375094      -0.00213748      -0.00151235      -0.00000005
I        6.32888930       4.47520022       7.35375031       0.00213557       0.00150916      -0.00000151
I        5.28728908       1.52911184       5.54964774       0.00106764      -0.00151154      -0.00185090
I        3.20409043       4.47520051       9.15785450      -0.00106817       0.00151056       0.00185007
I        3.20409070       4.47520100       5.54964710      -0.00106752       0.00151232      -0.00185198
I        5.28728873       1.52911211       9.15785411       0.00106522      -0.00150973       0.00184757
