9
Lattice="4.562803509653796 7.799731633340638e-08 2.6343358723004595 1.5209344889770073 4.301852564618942 2.6343360243355316 -1.2679864641627954e-07 9.65440299231985e-08 5.268671964222575" Properties=species:S:1:pos:R:3:forces:R:3 energy=-40.92050552368164 free_energy=-40.92050552368164 stress="8.99517981451936e-05 8.727119649165616e-08 -1.788578352091008e-08 8.727119649165616e-08 8.985825843410566e-05 -2.830258027941568e-09 -1.788578352091008e-08 -2.830258027941568e-09 8.982553117675707e-05" pbc="T T T"
Cu       1.52093472       1.07546240       2.63433615       0.00000137      -0.00000154       0.00000029
Cu       4.56280348       3.22638966       7.90300786       0.00000002       0.00000097      -0.00000072
Cr      -0.00000001       0.00000021      -0.00000029      -0.00000533      -0.00000420       0.00001047
F        1.52498715       1.07832885       5.26867203      -0.00043749      -0.00030884       0.00000009
F        4.55875081       3.22352405       5.26867197       0.00044009       0.00031339      -0.00000008
F        3.80030990       1.07832875       3.95501357       0.00021761      -0.00030816      -0.00037938
F        2.28342760       3.22352425       6.58233051      -0.00021513       0.00030459       0.00037213
F        2.28342782       3.22352410       3.95501352      -0.00021713       0.00030819      -0.00037650
F        3.80030988       1.07832871       6.58233023       0.00021562      -0.00030430       0.00037361
