9
Lattice="5.669006073773709 -4.532579739633148e-10 3.2730022124053795 1.8896686900294684 5.344790219101735 3.2730022137929047 -1.4277433546090999e-08 -8.396295041898871e-09 6.54600444953999" Properties=species:S:1:pos:R:3:forces:R:3 energy=-30.667131423950195 free_energy=-30.667131423950195 stress="-4.6000237489352e-05 1.448462860764721e-08 -8.682777163926403e-09 1.448462860764721e-08 -4.604231799021363e-05 7.072359142767937e-09 -8.682777163926403e-09 7.072359142767937e-09 -4.602329136105254e-05" pbc="T T T"
Cu       1.88966869       1.33619749       3.27300221      -0.00000041      -0.00000115      -0.00000116
Cu       5.66900607       4.00859267       9.81900667      -0.00000065       0.00000032       0.00000100
Cr       0.00000003       0.00000002      -0.00000001       0.00000068       0.00000119       0.00000213
Cl       1.86369380       1.31783051       6.54600443       0.00104168       0.00073674       0.00000049
Cl       5.69498093       4.02695963       6.54600441      -0.00104196      -0.00073613      -0.00000107
Cl       4.73715917       1.31783057       4.88700845      -0.00052033       0.00073574       0.00090225
Cl       2.82151559       4.02695969       8.20500049       0.00052235      -0.00073729      -0.00090423
Cl       2.82151559       4.02695970       4.88700839       0.00052183      -0.00073713       0.00090359
Cl       4.73715912       1.31783058       8.20500045      -0.00052298       0.00073779      -0.00090294
