9
Lattice="5.826487111947028 1.0401615056381419e-07 3.3639238882141425 1.9421624364527421 5.493264680882575 3.3639239440964217 -2.3077021190997e-08 5.2123577367452936e-08 6.727847816398949" Properties=species:S:1:pos:R:3:forces:R:3 energy=-23.780502319335938 free_energy=-23.780502319335938 stress="0.00011759912740672007 -1.811405425655721e-08 -6.536536201195986e-09 -1.811405425655721e-08 0.00011758018808905035 2.6077135117930084e-08 -6.536536201195986e-09 2.6077135117930084e-08 0.00011763066868297756" pbc="T T T"
Cu       1.94216220       1.37331564       3.36392363      -0.00000268      -0.00000187      -0.00000246
Cu       5.82648766       4.11994905      10.09177242       0.00000156       0.00000166       0.00000239
Ca       0.00000021       0.00000002       0.00000019      -0.00000355      -0.00000075      -0.00000476
Cl       2.06412014       1.45955326       6.72784847      -0.00154518      -0.00109394       0.00000080
Cl       5.70452868       4.03371164       6.72784767       0.00155143       0.00109866       0.00000137
Cl       4.79442718       1.45955372       5.15150428       0.00077552      -0.00109494      -0.00133997
Cl       2.97422241       4.03371150       8.30419082      -0.00077885       0.00109796       0.00134121
Cl       2.97422258       4.03371148       5.15150425      -0.00077369       0.00109297      -0.00134007
Cl       4.79442706       1.45955309       8.30419080       0.00077541      -0.00109977       0.00134145
