9
Lattice="5.948512350913114 -1.8259343719882688e-09 3.4343753551284637 1.9828374044938322 5.6083113514434295 3.434375431492773 -9.173693268732899e-08 2.8659061338937962e-08 6.8687508691498955" Properties=species:S:1:pos:R:3:forces:R:3 energy=-22.677906036376953 free_energy=-22.677906036376953 stress="-2.157033304683864e-05 -1.6516992218384985e-08 1.9461174005641624e-08 -1.6516992218384985e-08 -2.161076554330066e-05 5.6972999651350165e-09 1.9461174005641624e-08 5.6972999651350165e-09 -2.1569469026871957e-05" pbc="T T T"
Cu       1.98283761       1.40207827       3.43437572       0.00000125       0.00000027       0.00000151
Cu       5.94851213       4.20623316      10.30312673      -0.00000229      -0.00000107       0.00000315
Co       0.00000019       0.00000011       0.00000066      -0.00000110      -0.00000031      -0.00000401
Br       1.96717291       1.39100157       6.86875071      -0.00002724      -0.00001796      -0.00000219
Br       5.96417638       4.21730965       6.86875080       0.00003076       0.00002015      -0.00000061
Br       4.96492564       1.39100173       5.13799735       0.00001308      -0.00001963      -0.00002572
Br       2.96642419       4.21730931       8.59950363      -0.00001510       0.00002156       0.00002587
Br       2.96642419       4.21730975       5.13799718      -0.00001339       0.00001855      -0.00002502
Br       4.96492543       1.39100197       8.59950386       0.00001417      -0.00002143       0.00002700
