9
Lattice="6.391998756224757 1.007418175571386e-07 3.6904221869477563 2.1306663347153147 6.026434522401769 3.690422208321123 -5.85534965544951e-08 -1.5226684028199083e-08 7.380844475313256" Properties=species:S:1:pos:R:3:forces:R:3 energy=-19.886829376220703 free_energy=-19.886829376220703 stress="-0.00012008905468974262 3.0518636506826624e-09 -2.624923167715565e-09 3.0518636506826624e-09 -0.00012007947952952236 6.818153819310169e-10 -2.624923167715565e-09 6.818153819310169e-10 -0.00012008911289740354" pbc="T T T"
Cu       2.13066505       1.50660848       3.69042308      -0.00000392      -0.00000050       0.00000314
Cu       6.39200000       4.51982579      11.07126650       0.00000454      -0.00000033      -0.00000153
Co      -0.00000006      -0.00000017       0.00000028       0.00000051       0.00000021       0.00000047
I        2.13071158       1.50664098       7.38084433      -0.00097196      -0.00068651      -0.00000075
I        6.39195342       4.51979401       7.38084479       0.00097083       0.00068664       0.00000077
I        5.32664315       1.50664084       5.53567285       0.00048615      -0.00068750      -0.00084117
I        3.19602143       4.51979403       9.22601562      -0.00048655       0.00068733       0.00083989
I        3.19602150       4.51979363       5.53567244      -0.00048757       0.00068697      -0.00084083
I        5.32664403       1.50664084       9.22601557       0.00048792      -0.00068640       0.00083997
