9
Lattice="5.948123897261051 -1.0735659353022294e-07 3.4341508333937467 1.9827078295768525 5.607944998210688 3.434150893946352 -1.758567042059037e-08 6.172657980626934e-08 6.868301697246741" Properties=species:S:1:pos:R:3:forces:R:3 energy=-22.67789649963379 free_energy=-22.67789649963379 stress="-1.0563839168753475e-05 -3.2899476476444534e-09 2.9582741811751134e-10 -3.2899476476444534e-09 -1.0608116099319886e-05 4.102527206839568e-09 2.9582741811751134e-10 4.102527206839568e-09 -1.0570424819889013e-05" pbc="T T T"
Cu       1.98270770       1.40198644       3.43415110      -0.00000028       0.00000281       0.00000102
Cu       5.94812453       4.20595806      10.30245220       0.00000222      -0.00000363      -0.00000270
Co      -0.00000014      -0.00000006      -0.00000006      -0.00000041       0.00000100      -0.00000033
Br       1.96751978       1.39124704       6.86830175      -0.00401254      -0.00283469      -0.00000018
Br       5.96331200       4.21669817       6.86830196       0.00401010       0.00283418       0.00000067
Br       4.96436353       1.39124680       5.13807317       0.00200501      -0.00283582      -0.00347313
Br       2.96646792       4.21669842       8.59853004      -0.00200517       0.00283536       0.00347348
Br       2.96646764       4.21669804       5.13807289      -0.00200523       0.00283529      -0.00347249
Br       4.96436381       1.39124689       8.59853060       0.00200635      -0.00283445       0.00347352
