9
Lattice="5.974730633794881 1.7073750989969862e-07 3.449512287317703 1.9915769981102562 5.633029723925618 3.4495123579753564 9.830074236940287e-08 1.5604676748354466e-07 6.899024404373583" Properties=species:S:1:pos:R:3:forces:R:3 energy=-19.76772689819336 free_energy=-19.76772689819336 stress="-8.867739961715415e-05 -3.143074467359952e-09 1.737880950258841e-08 -3.143074467359952e-09 -8.874961349647492e-05 -1.415077166555534e-09 1.737880950258841e-08 -1.415077166555534e-09 -8.866556891007349e-05" pbc="T T T"
Cu       1.99157670       1.40825627       3.44951170      -0.00000139      -0.00000562      -0.00000188
Cu       5.97472945       4.22477492      10.34853705      -0.00000422       0.00000874       0.00000240
C        0.00000097      -0.00000096      -0.00000034       0.00000216      -0.00000323      -0.00000327
Br       1.91881510       1.35680684       6.89902457      -0.00393656      -0.00278710       0.00000142
Br       6.04749266       4.27622349       6.89902489       0.00394008       0.00278455      -0.00000127
Br       5.01532308       1.35680636       5.11125514       0.00196956      -0.00278406      -0.00340891
Br       2.95098464       4.27622355       8.68679416      -0.00196955       0.00278564       0.00341401
Br       2.95098509       4.27622324       5.11125501      -0.00196813       0.00278710      -0.00341386
Br       5.01532325       1.35680651       8.68679393       0.00196800      -0.00278628       0.00341153
