9
Lattice="4.8760109483857415 9.474865889002866e-08 2.8151662131010307 1.6253370430747058 4.597147383197025 2.8151662634179018 2.232028999190416e-08 7.740811584288403e-08 5.630332387542215" Properties=species:S:1:pos:R:3:forces:R:3 energy=-28.132526397705078 free_energy=-28.132526397705078 stress="0.00012899877037853003 2.949482791336777e-08 2.079486804973385e-08 2.949482791336777e-08 0.00012896909902337939 -2.7143807201923664e-08 2.079486804973385e-08 -2.7143807201923664e-08 0.00012899890134576708" pbc="T T T"
Cu       1.62533693       1.14928648       2.81516597      -0.00000087      -0.00000187       0.00000077
Cu       4.87601095       3.44786039       8.44549828      -0.00000024      -0.00000059      -0.00000202
Cd      -0.00000008       0.00000002      -0.00000003      -0.00000044      -0.00000033       0.00000537
F        1.72612368       1.22055379       5.63033211      -0.00054604      -0.00038710       0.00000003
F        4.77522430       3.37659409       5.63033233       0.00054508       0.00038782      -0.00000016
F        4.01294953       1.22055357       4.31003328       0.00027409      -0.00038520      -0.00047195
F        2.48839879       3.37659408       6.95063211      -0.00026989       0.00038254       0.00046837
F        2.48839864       3.37659383       4.31003320      -0.00027370       0.00038800      -0.00047237
F        4.01294932       1.22055411       6.95063219       0.00027213      -0.00038326       0.00047159
