9
Lattice="6.553590029774887 3.5948910356809225e-08 3.783716946777298 2.1845300525777818 6.178783918637072 3.7837169316047743 1.8745532056348014e-08 -5.3273759285530474e-09 7.567433861086372" Properties=species:S:1:pos:R:3:forces:R:3 energy=-23.992084503173828 free_energy=-23.992084503173828 stress="9.573999705025926e-05 3.3024727397190645e-09 2.5175548312716955e-09 3.3024727397190645e-09 9.574648720445111e-05 -2.430238676964791e-09 2.5175548312716955e-09 -2.430238676964791e-09 9.574640716891736e-05" pbc="T T T"
Cu       2.18452993       1.54469595       3.78371697      -0.00000051      -0.00000054       0.00000051
Cu       6.55359010       4.63408802      11.35115075       0.00000127       0.00000017      -0.00000043
Cr       0.00000025      -0.00000018      -0.00000013      -0.00000360       0.00000037       0.00000064
I        2.16169295       1.52854772       7.56743387       0.00223918       0.00158320       0.00000042
I        6.57642706       4.65023620       7.56743392      -0.00223642      -0.00158148       0.00000037
I        5.47274362       1.52854770       5.65579791      -0.00111908       0.00158196       0.00193786
I        3.26537642       4.65023640       9.47907004       0.00111970      -0.00158331      -0.00194019
I        3.26537645       4.65023630       5.65579779       0.00111875      -0.00158303       0.00193853
I        5.47274363       1.52854771       9.47906983      -0.00111924       0.00158262      -0.00193777
