9
Lattice="5.669991461219224 7.905525963533674e-08 3.2735712072294474 1.8899972319904095 5.345718988467201 3.273571200792074 3.6522003907145544e-08 1.7940755588273524e-08 6.547142351200914" Properties=species:S:1:pos:R:3:forces:R:3 energy=-30.66712188720703 free_energy=-30.66712188720703 stress="0.00015919067664071918 6.014288178590732e-09 1.6241953615381277e-10 6.014288178590732e-09 0.00015915711992420256 -7.555135184134087e-09 1.6241953615381277e-10 -7.555135184134087e-09 0.00015921839803922921" pbc="T T T"
Cu       1.88999696       1.33642975       3.27357078      -0.00000166      -0.00000278       0.00000000
Cu       5.66999150       4.00928916       9.82071391       0.00000158       0.00000088       0.00000240
Cr       0.00000011      -0.00000004      -0.00000033      -0.00000065       0.00000122       0.00000185
Cl       1.86419975       1.31818805       6.54714221      -0.00341935      -0.00241739       0.00000076
Cl       5.69578897       4.02753096       6.54714223       0.00342031       0.00241779      -0.00000052
Cl       4.73789169       1.31818830       4.88801575       0.00171173      -0.00241882      -0.00296463
Cl       2.82209713       4.02753126       8.20626931      -0.00171022       0.00241700       0.00296193
Cl       2.82209680       4.02753105       4.88801597      -0.00170978       0.00241801      -0.00296295
Cl       4.73789208       1.31818786       8.20626927       0.00170808      -0.00241615       0.00296129
