9
Lattice="6.030302655155115 1.0093063397693814e-07 3.481596691977354 2.0101009369503315 5.6854240335688235 3.4815967669053927 -4.0294752102014396e-08 6.327498957184726e-08 6.963193453747294" Properties=species:S:1:pos:R:3:forces:R:3 energy=-27.401952743530273 free_energy=-27.401952743530273 stress="0.00010784192272694781 3.750134069946398e-08 -7.665837742365511e-09 3.750134069946398e-08 0.00010780731827253476 4.4561860867986525e-09 -7.665837742365511e-09 4.4561860867986525e-09 0.00010778233991004527" pbc="T T T"
Cu       2.01010147       1.42135633       3.48159720       0.00000394       0.00000019       0.00000273
Cu       6.03030322       4.26406899      10.44479021       0.00000134       0.00000214      -0.00000015
Cr      -0.00000027      -0.00000023      -0.00000023       0.00000490      -0.00000114       0.00000495
Br       1.97783673       1.39854211       6.96319314      -0.00167756      -0.00118756      -0.00000013
Br       6.06256644       4.28688172       6.96319302       0.00167731       0.00118542       0.00000180
Br       5.04138399       1.39854208       5.19445332       0.00083565      -0.00118739      -0.00144870
Br       2.99901903       4.28688249       8.73193391      -0.00083727       0.00118357       0.00144894
Br       2.99901931       4.28688183       5.19445310      -0.00084015       0.00118594      -0.00145310
Br       5.04138422       1.39854141       8.73193408       0.00083188      -0.00118109       0.00144359
