9
Lattice="4.827641370578665 1.27393199046293e-08 2.787240015684821 1.6092137843729306 4.551543968715123 2.7872400465685416 -6.22733006739597e-08 -6.209235028656248e-09 5.574480139230167" Properties=species:S:1:pos:R:3:forces:R:3 energy=-33.86418914794922 free_energy=-33.86418914794922 stress="9.360507101519033e-05 -1.936995808193842e-08 6.549850661841106e-10 -1.936995808193842e-08 9.367572783958167e-05 -1.0277172002304269e-08 6.549850661841106e-10 -1.0277172002304269e-08 9.362566925119609e-05" pbc="T T T"
Cu       1.60921371       1.13788678       2.78724029      -0.00000052       0.00000309       0.00000124
Cu       4.82764149       3.41365859       8.36171970       0.00000122       0.00000259      -0.00000122
Ca      -0.00000018      -0.00000025      -0.00000003       0.00000259      -0.00000088      -0.00000099
F        1.71523337       1.21285246       5.57448050      -0.00094393      -0.00066990       0.00000123
F        4.72162209       3.33869104       5.57448060       0.00094610       0.00066729       0.00000066
F        3.97002436       1.21285323       4.27267560       0.00047219      -0.00066912      -0.00081899
F        2.46683052       3.33869073       6.87628429      -0.00047547       0.00066974       0.00082246
F        2.46683011       3.33869027       4.27267581      -0.00047676       0.00066832      -0.00082320
F        3.97002482       1.21285317       6.87628397       0.00047476      -0.00067121       0.00081886
