9
Lattice="4.250230179153353 3.115693673216197e-08 2.4538715446201995 1.4167434024229102 4.007155610484454 2.4538715792667944 -6.821339071720346e-08 -5.8008730005023445e-09 4.907743207389428" Properties=species:S:1:pos:R:3:forces:R:3 energy=-36.23738098144531 free_energy=-36.23738098144531 stress="-7.83426730777137e-05 1.3305148627296148e-07 7.348482711222459e-09 1.3305148627296148e-07 -7.830695540178567e-05 4.7919009205088514e-08 7.348482711222459e-09 4.7919009205088514e-08 -7.821713370503858e-05" pbc="T T T"
Cu       1.41674350       1.00178896       2.45387169       0.00000022       0.00000039       0.00000005
Cu       4.25022998       3.00536667       7.36161474      -0.00000010      -0.00000040       0.00000016
C       -0.00000006       0.00000013       0.00000009      -0.00000115       0.00000172       0.00000338
F        1.27334385       0.90039011       4.90774322       0.00055084       0.00038861      -0.00000153
F        4.39362971       3.10676563       4.90774325      -0.00054884      -0.00039069      -0.00000251
F        3.61355842       0.90039000       3.55661979      -0.00027918       0.00039478       0.00047613
F        2.05341516       3.10676565       6.25886623       0.00027613      -0.00039316      -0.00047404
F        2.05341508       3.10676560       3.55661980       0.00027828      -0.00039438       0.00047441
F        3.61355848       0.90038990       6.25886629      -0.00027710       0.00039233      -0.00047556
