9
Lattice="4.250196535012829 -1.0385477470514565e-07 2.4538520553477436 1.4167321210512234 4.007123387053292 2.453851984976537 1.6913956653615258e-08 -7.422678131595783e-08 4.907704081399632" Properties=species:S:1:pos:R:3:forces:R:3 energy=-36.23737716674805 free_energy=-36.23737716674805 stress="-0.0001332411338808015 3.1412628942462106e-08 -4.3399722926551476e-08 3.1412628942462106e-08 -0.00013299204874783754 -4.9851131223022094e-08 -4.3399722926551476e-08 -4.9851131223022094e-08 -0.00013299506099428982" pbc="T T T"
Cu       1.41673220       1.00178068       2.45385194      -0.00000002      -0.00000059      -0.00000003
Cu       4.25019640       3.00534243       7.36155608      -0.00000078      -0.00000005      -0.00000005
C       -0.00000017      -0.00000017       0.00000009       0.00000343       0.00000070      -0.00000031
F        1.27330887       0.90036548       4.90770395       0.00156991       0.00110444       0.00000628
F        4.39362004       3.10675787       4.90770409      -0.00157079      -0.00110421      -0.00000200
F        3.61354193       0.90036511       3.55657015      -0.00078244       0.00110490       0.00135244
F        2.05338646       3.10675806       6.25883821       0.00078413      -0.00110836      -0.00135475
F        2.05338641       3.10675783       3.55656983       0.00078654      -0.00110286       0.00135434
F        3.61354257       0.90036538       6.25883819      -0.00079007       0.00110635      -0.00135470
