9
Lattice="6.368830325861542 -1.0360313097108689e-07 3.6770458917290925 2.1229433673056564 6.0045910576087005 3.6770458518403357 -1.2675512591940403e-07 -1.3848296943697853e-07 7.35409200300451" Properties=species:S:1:pos:R:3:forces:R:3 energy=-17.408267974853516 free_energy=-17.408267974853516 stress="-1.8526430721976794e-05 -9.335672679355866e-09 1.4768477107907074e-08 -9.335672679355866e-09 -1.8557973817223683e-05 4.089596661316364e-09 1.4768477107907074e-08 4.089596661316364e-09 -1.8540660676080734e-05" pbc="T T T"
Cu       2.12294362       1.50114839       3.67704594       0.00000156       0.00000162       0.00000035
Cu       6.36883029       4.50344315      11.03113836       0.00000076       0.00000120       0.00000271
C        0.00000132      -0.00000059       0.00000236       0.00000397      -0.00000272       0.00000504
I        2.16238645       1.52903770       7.35409184      -0.00112015      -0.00079387      -0.00000040
I        6.32938761       4.47555271       7.35409127       0.00111943       0.00079122      -0.00000084
I        5.28763695       1.52903802       5.54972724       0.00055963      -0.00079361      -0.00097018
I        3.20413593       4.47555233       9.15845620      -0.00056025       0.00079063       0.00096923
I        3.20413587       4.47555336       5.54972626      -0.00056159       0.00079501      -0.00097382
I        5.28763624       1.52903810       9.15845549       0.00055647      -0.00078973       0.00096798
