9
Lattice="6.741602980862081 7.392806686289666e-08 3.8922662383589763 2.247200977307051 6.3560444554484565 3.8922663873390375 -1.0290275528257217e-07 1.0969936011830885e-07 7.784532654950743" Properties=species:S:1:pos:R:3:forces:R:3 energy=-14.388790130615234 free_energy=-14.388790130615234 stress="5.197804784984328e-05 -1.3124340725312322e-08 -8.721858790750048e-09 -1.3124340725312322e-08 5.198458893573843e-05 1.1792761434037402e-08 -8.721858790750048e-09 1.1792761434037402e-08 5.1991322834510356e-05" pbc="T T T"
Cu       2.24720074       1.58901155       3.89226664      -0.00000040       0.00000199       0.00000148
Cu       6.74160288       4.76703330      11.67679878      -0.00000062      -0.00000155      -0.00000007
Cd       0.00000003       0.00000014      -0.00000015       0.00000048      -0.00000035       0.00000184
I        2.39873469       1.69616192       7.78453243      -0.00214329      -0.00151613      -0.00000029
I        6.59006907       4.65988260       7.78453271       0.00214332       0.00151566       0.00000053
I        5.54223551       1.69616206       5.96963149       0.00107226      -0.00151731      -0.00185797
I        3.44656845       4.65988265       9.59943374      -0.00107113       0.00151558       0.00185606
I        3.44656832       4.65988265       5.96963158      -0.00107242       0.00151643      -0.00185698
I        5.54223576       1.69616167       9.59943391       0.00107177      -0.00151430       0.00185537
