9
Lattice="5.609857187143489 -6.44117068254605e-09 3.2388525937730717 1.8699523868359331 5.289024158447738 3.2388525986328074 -4.078002326759925e-09 3.0683528220316745e-09 6.477705194609442" Properties=species:S:1:pos:R:3:forces:R:3 energy=-25.658191680908203 free_energy=-25.658191680908203 stress="-0.00031263838172890246 -4.541651499323507e-09 -2.169455370903961e-08 -4.541651499323507e-09 -0.0003126474912278354 -2.294082968035127e-08 -2.169455370903961e-08 -2.294082968035127e-08 -0.0003126127412542701" pbc="T T T"
Cu       1.86995231       1.32225601       3.23885269      -0.00000096       0.00000025       0.00000021
Cu       5.60985722       3.96676813       9.71655760       0.00000028      -0.00000027      -0.00000109
Co      -0.00000002      -0.00000005      -0.00000006      -0.00000045      -0.00000121       0.00000129
Cl       1.83385106       1.29672857       6.47770522      -0.00241536      -0.00170918       0.00000030
Cl       5.64595854       3.99229557       6.47770533       0.00241676       0.00170866       0.00000123
Cl       4.69293163       1.29672854       4.82701419       0.00120853      -0.00170699      -0.00209215
Cl       2.78687797       3.99229573       8.12839619      -0.00120777       0.00170757       0.00209209
Cl       2.78687795       3.99229561       4.82701421      -0.00120929       0.00170992      -0.00209385
Cl       4.69293163       1.29672850       8.12839617       0.00120857      -0.00170851       0.00209177
