9
Lattice="6.141377823648909 -1.748269986198127e-08 3.545726185964667 2.0471259331843425 5.790146626206405 3.545726171327378 4.1222646026985005e-08 1.1221861395037808e-08 7.091452300529607" Properties=species:S:1:pos:R:3:forces:R:3 energy=-16.52134895324707 free_energy=-16.52134895324707 stress="7.169086893554777e-05 1.301504348738547e-09 2.033130774847791e-09 1.301504348738547e-09 7.169471064116806e-05 -1.9098754577839827e-08 2.033130774847791e-09 -1.9098754577839827e-08 7.168758747866377e-05" pbc="T T T"
Cu       2.04712586       1.44753697       3.54572612       0.00000052       0.00000216      -0.00000019
Cu       6.14137726       4.34261061      10.63717928      -0.00000136       0.00000377       0.00000529
Cd      -0.00000021      -0.00000023      -0.00000031       0.00000572       0.00000089       0.00001058
Br       2.16756334       1.53269812       7.09145171      -0.00302130      -0.00213757       0.00000138
Br       6.02094162       4.25744827       7.09145154       0.00301480       0.00213061      -0.00000032
Br       5.05759628       1.53269880       5.42289092       0.00151278      -0.00213867      -0.00261790
Br       3.13090677       4.25744875       8.76001441      -0.00150649       0.00212948       0.00261045
Br       3.13090813       4.25744760       5.42289095      -0.00151074       0.00214070      -0.00261942
Br       5.05759618       1.53269759       8.76001406       0.00150597      -0.00213142       0.00261039
