9
Lattice="6.320049675212125 -1.6929313156869512e-08 3.6488822764455646 2.1066831931062455 5.958599915464973 3.6488823041641587 -1.8419635577186652e-08 2.092355996526039e-08 7.297764584794849" Properties=species:S:1:pos:R:3:forces:R:3 energy=-20.721080780029297 free_energy=-20.721080780029297 stress="0.00014267058577388525 8.060661471631647e-09 -5.465807806359635e-10 8.060661471631647e-09 0.00014265398203860968 2.5786041746300725e-08 -5.465807806359635e-10 2.5786041746300725e-08 0.0001426503440598026" pbc="T T T"
Cu       2.10668323       1.48964989       3.64888303       0.00000053      -0.00000078       0.00000381
Cu       6.32005034       4.46894990      10.94664629       0.00000344      -0.00000071      -0.00000109
Ca       0.00000028      -0.00000047       0.00000001      -0.00000289       0.00000361      -0.00000471
Br       2.24753145       1.58924516       7.29776427      -0.00186558      -0.00131763      -0.00000072
Br       6.17920167       4.36935476       7.29776466       0.00186433       0.00131835       0.00000007
Br       5.19628333       1.58924474       5.59530184       0.00093197      -0.00131944      -0.00161643
Br       3.23044889       4.36935548       9.00022742      -0.00093216       0.00131948       0.00161467
Br       3.23044858       4.36935525       5.59530194      -0.00093269       0.00131724      -0.00161253
Br       5.19628367       1.58924498       9.00022719       0.00093306      -0.00132002       0.00161687
