9
Lattice="5.623217010625823 -1.3041662790735516e-07 3.2465656351594494 1.8744056119548285 5.301619356609366 3.2465655230884343 -9.55577404310883e-08 -2.0482791181945939e-07 6.4931314358297145" Properties=species:S:1:pos:R:3:forces:R:3 energy=-22.334701538085938 free_energy=-22.334701538085938 stress="0.0002739985066000372 2.5508686718467288e-08 2.8080062719482157e-09 2.5508686718467288e-08 0.00027398712700232863 -9.281745150246934e-09 2.8080062719482157e-09 -9.281745150246934e-09 0.00027406372828409076" pbc="T T T"
Cu       1.87440491       1.32540421       3.24656571      -0.00000275      -0.00000260       0.00000045
Cu       5.62321765       3.97621380       9.73969610       0.00000303      -0.00000294      -0.00000237
C        0.00000143      -0.00000002      -0.00000018       0.00001528       0.00000297       0.00000194
Cl       1.79978485       1.27264039       6.49313148      -0.00365308      -0.00258364      -0.00000075
Cl       5.69783637       4.02897881       6.49313158       0.00364256       0.00257621       0.00000006
Cl       4.72332446       1.27264036       4.80522594       0.00182309      -0.00257673      -0.00315701
Cl       2.77429779       4.02897897       8.18103723      -0.00182503       0.00258324       0.00316382
Cl       2.77429830       4.02897927       4.80522574      -0.00182630       0.00258057      -0.00316309
Cl       4.72332429       1.27264031       8.18103671       0.00182317      -0.00257718       0.00315739
