9
Lattice="6.027128942734073 1.1287114208471318e-08 3.4797645029411104 2.009042982063451 5.682431724972438 3.4797645193774245 -1.0306391327360862e-08 1.2842550911344688e-08 6.9595290237334275" Properties=species:S:1:pos:R:3:forces:R:3 energy=-27.40192413330078 free_energy=-27.40192413330078 stress="-0.0002653038827702403 8.524495775930063e-09 2.897829176617961e-08 8.524495775930063e-09 -0.0002653478877618909 2.383903918712349e-08 2.897829176617961e-08 2.383903918712349e-08 -0.00026529133901931345" pbc="T T T"
Cu       2.00904300       1.42060792       3.47976453       0.00000158      -0.00000104      -0.00000237
Cu       6.02712894       4.26182388      10.43929353       0.00000153       0.00000019       0.00000300
Cr      -0.00000008       0.00000004      -0.00000002       0.00000082       0.00000087       0.00000501
Br       1.97723040       1.39811307       6.95952903       0.00141244       0.00099998       0.00000115
Br       6.05894152       4.28431869       6.95952898      -0.00141448      -0.00099999       0.00000017
Br       5.03851372       1.39811309       5.19209620      -0.00070572       0.00099836       0.00122327
Br       2.99765819       4.28431865       8.72696183       0.00070720      -0.00100097      -0.00122649
Br       2.99765820       4.28431864       5.19209619       0.00070458      -0.00099896       0.00122361
Br       5.03851377       1.39811302       8.72696192      -0.00070781       0.00100172      -0.00122736
