9
Lattice="5.976227331570019 -8.028698933839393e-10 3.4503766374532474 1.9920758458347685 5.63444197504056 3.45037651724597 -1.995531962720597e-08 -1.613337829719528e-07 6.90075330947006" Properties=species:S:1:pos:R:3:forces:R:3 energy=-19.76776123046875 free_energy=-19.76776123046875 stress="-6.933080294402316e-05 -8.75138095324246e-09 -9.275226808824755e-09 -8.75138095324246e-09 -6.939953163964674e-05 2.785986907838378e-08 -9.275226808824755e-09 2.785986907838378e-08 -6.941340689081699e-05" pbc="T T T"
Cu       1.99207618       1.40860903       3.45037659       0.00000214      -0.00000494      -0.00000060
Cu       5.97622604       4.22583321      10.35113121      -0.00000707       0.00000710       0.00000555
C       -0.00000011       0.00000107       0.00000157      -0.00000060       0.00000426       0.00000610
Br       1.91814133       1.35632954       6.90075345      -0.00049257      -0.00035419      -0.00000062
Br       6.05016158       4.27811180       6.90075272       0.00049487       0.00035186      -0.00000267
Br       5.01715735       1.35633069       5.11153428       0.00024790      -0.00035205      -0.00043052
Br       2.95114723       4.27811041       8.68997055      -0.00024560       0.00034972       0.00042644
Br       2.95114612       4.27811153       5.11153483      -0.00024588       0.00034969      -0.00042775
Br       5.01715689       1.35632992       8.68997071       0.00024691      -0.00035149       0.00042441
