9
Lattice="4.650993402457606 -4.4900284225606587e-08 2.6852524667606175 1.550331055424348 4.384998706865502 2.6852525298000125 -3.600820104484054e-08 5.174550816885747e-08 5.370504995889219" Properties=species:S:1:pos:R:3:forces:R:3 energy=-37.692596435546875 free_energy=-37.692596435546875 stress="0.00018145031936001033 -1.250433427912867e-07 1.4337599552050051e-08 -1.250433427912867e-07 0.000181567927938886 -4.172404644009475e-08 1.4337599552050051e-08 -4.172404644009475e-08 0.00018166522204410285" pbc="T T T"
Cu       1.55033113       1.09624953       2.68525272       0.00000020       0.00000138       0.00000112
Cu       4.65099327       3.28874928       8.05575789       0.00000070       0.00000110       0.00000044
Fe       0.00000024       0.00000035       0.00000007      -0.00000895      -0.00000043       0.00000004
F        1.54185269       1.09025423       5.37050488      -0.00039418      -0.00027743       0.00000004
F        4.65947242       3.29474419       5.37050486       0.00039390       0.00027987      -0.00000065
F        3.88006648       1.09025481       4.02053664       0.00020275      -0.00028501      -0.00035179
F        2.32125726       3.29474403       6.72047364      -0.00019770       0.00028247       0.00034420
F        2.32125743       3.29474378       4.02053634      -0.00020119       0.00028569      -0.00034718
F        3.88006672       1.09025473       6.72047291       0.00020456      -0.00028788       0.00035375
