9
Lattice="6.5008502194790365 2.651941863060016e-07 3.7532672650745242 2.1669502447028908 6.129060418540228 3.753267401013471 -4.064725449364028e-08 1.377484004538311e-07 7.506534600552177" Properties=species:S:1:pos:R:3:forces:R:3 energy=-22.10486602783203 free_energy=-22.10486602783203 stress="-3.674906474770978e-05 1.1452204518036524e-07 -1.4768514411400702e-08 1.1452204518036524e-07 -3.682030364871025e-05 2.4586020330730207e-08 -1.4768514411400702e-08 2.4586020330730207e-08 -3.6910474591422826e-05" pbc="T T T"
Cu       2.16695011       1.53226517       3.75326763       0.00000037       0.00000005      -0.00000106
Cu       6.50085053       4.59679603      11.25980226       0.00000007      -0.00000026      -0.00000024
Fe      -0.00000080      -0.00000142      -0.00000372       0.00001045       0.00003303       0.00009472
I        1.98010431       1.40014551       7.50653438      -0.00173435      -0.00122625      -0.00000045
I        6.68769651       4.72891557       7.50653426       0.00171613       0.00121361      -0.00000036
I        5.51079793       1.40014583       5.46808811       0.00087103      -0.00123490      -0.00151121
I        3.15700104       4.72891696       9.54498342      -0.00084139       0.00118756       0.00145461
I        3.15700241       4.72891560       5.46808716      -0.00086567       0.00122209      -0.00149780
I        5.51079961       1.40014405       9.54498339       0.00084343      -0.00119505       0.00146192
