9
Lattice="5.613011453227892 1.3850960834237035e-09 3.2406739524921586 1.8710038479719215 5.291998066362115 3.240673902395345 -2.1491289243254505e-08 -7.6552429507316e-08 6.4813479422083065" Properties=species:S:1:pos:R:3:forces:R:3 energy=-27.778573989868164 free_energy=-27.778573989868164 stress="-8.807482117845211e-06 4.90221463422813e-09 -3.280340665767767e-09 4.90221463422813e-09 -8.854366569721606e-06 -1.7608099867061355e-08 -3.280340665767767e-09 -1.7608099867061355e-08 -8.816539775580168e-06" pbc="T T T"
Cu       1.87100305       1.32299918       3.24067388      -0.00000331      -0.00000155       0.00000114
Cu       5.61301183       3.96899880       9.72202209       0.00000053       0.00000247       0.00000040
Fe       0.00000024       0.00000016      -0.00000166      -0.00000646       0.00000112       0.00002658
Cl       1.82328304       1.28925572       6.48134778      -0.00126132      -0.00089169       0.00000044
Cl       5.66073210       4.00274225       6.48134817       0.00126383       0.00089386      -0.00000004
Cl       4.70136965       1.28925601       4.81968402       0.00063719      -0.00089791      -0.00110132
Cl       2.78264535       4.00274242       8.14301269      -0.00062656       0.00088590       0.00108364
Cl       2.78264557       4.00274191       4.81968392      -0.00063415       0.00089794      -0.00109810
Cl       4.70137028       1.28925556       8.14301243       0.00063011      -0.00088999       0.00108740
