9
Lattice="6.138031794834466 -7.476792634632384e-08 3.5437941925858643 2.0460105576266687 5.786991894974943 3.543794140900805 1.939188584514808e-07 7.382026846655699e-08 7.0875880492944505" Properties=species:S:1:pos:R:3:forces:R:3 energy=-25.484846115112305 free_energy=-25.484846115112305 stress="9.422764560440555e-05 -5.053611928929058e-08 5.0022265440929914e-08 -5.053611928929058e-08 9.429665806237608e-05 -2.6707616118670785e-09 5.0022265440929914e-08 -2.6707616118670785e-09 9.425149619346485e-05" pbc="T T T"
Cu       2.04601058       1.44674755       3.54379488       0.00000080      -0.00000038       0.00000099
Cu       6.13803221       4.34024392      10.63138196       0.00000013      -0.00000101       0.00000102
Fe      -0.00000008      -0.00000030       0.00000010       0.00000366       0.00000745      -0.00000168
Br       1.85227146       1.30975389       7.08758807      -0.00147027      -0.00103991      -0.00000212
Br       6.33177073       4.47723833       7.08758790       0.00146642       0.00103687      -0.00000053
Br       5.21189628       1.30975398       5.14790790       0.00073421      -0.00104089      -0.00127171
Br       2.97214692       4.47723786       9.02726827      -0.00073665       0.00104299       0.00127186
Br       2.97214637       4.47723769       5.14790830      -0.00073731       0.00103968      -0.00127307
Br       5.21189574       1.30975473       9.02726805       0.00073890      -0.00104491       0.00127503
