9
Lattice="4.650302250012237 5.69049747416288e-08 2.684853238971294 1.5501008025672094 4.384346860637065 2.6848532408546926 3.6805016842232775e-08 2.8331758673172666e-08 5.369706414194458" Properties=species:S:1:pos:R:3:forces:R:3 energy=-37.692596435546875 free_energy=-37.692596435546875 stress="4.8379689587818575e-08 1.9017397434595296e-08 -1.5587697799190892e-09 1.9017397434595296e-08 5.918505152635589e-08 1.813603311973111e-08 -1.5587697799190892e-09 1.813603311973111e-08 -6.982097744412386e-08" pbc="T T T"
Cu       1.55010098       1.09608685       2.68485328       0.00000237       0.00000139       0.00000050
Cu       4.65030209       3.28826004       8.05455974      -0.00000189      -0.00000152      -0.00000034
Fe       0.00000018       0.00000006       0.00000012      -0.00000099      -0.00000495      -0.00000540
F        1.54173402       1.09017066       5.36970646       0.00001349       0.00000791      -0.00000125
F        4.65866905       3.29417654       5.36970650      -0.00001042      -0.00000922      -0.00000026
F        3.87943523       1.09017067       4.02003350      -0.00000878       0.00001261       0.00001767
F        2.32096789       3.29417620       6.71937889       0.00000390      -0.00000621      -0.00000818
F        2.32096790       3.29417602       4.02003379       0.00000717      -0.00000973       0.00001138
F        3.87943508       1.09017082       6.71937928      -0.00000487       0.00000972      -0.00001392
