9
Lattice="6.138997920581242 -4.049149106967545e-08 3.5443522667387395 2.0463326802143103 5.787902450670342 3.5443521312986728 1.8514679542196077e-07 -3.4960880405286696e-08 7.088704212793687" Properties=species:S:1:pos:R:3:forces:R:3 energy=-25.48483657836914 free_energy=-25.48483657836914 stress="0.00016844288620632142 -1.5913396822497816e-08 1.5614574522260227e-08 -1.5913396822497816e-08 0.00016844728088472039 -2.4857943259348758e-08 1.5614574522260227e-08 -2.4857943259348758e-08 0.0001685348543105647" pbc="T T T"
Cu       2.04633309       1.44697544       3.54435162       0.00000063      -0.00000154      -0.00000227
Cu       6.13899883       4.34092688      10.63305574       0.00000329      -0.00000081      -0.00000104
Fe      -0.00000022      -0.00000026       0.00000029       0.00000306       0.00000769      -0.00000240
Br       1.85230279       1.30977599       7.08870469      -0.00251409      -0.00177684       0.00000086
Br       6.33302741       4.47812679       7.08870446       0.00251034       0.00177306       0.00000097
Br       5.21284665       1.30977599       5.14849407       0.00125623      -0.00177675      -0.00217710
Br       2.97248404       4.47812716       9.02891471      -0.00125673       0.00177489       0.00217950
Br       2.97248400       4.47812632       5.14849455      -0.00125957       0.00177854      -0.00217961
Br       5.21284665       1.30977546       9.02891449       0.00125691      -0.00177811       0.00218099
