9
Lattice="6.502493927609572 -3.686181062964696e-07 3.754216983429003 2.1674978538154464 6.130609749145642 3.7542165928826408 2.786184527896535e-07 -2.813067685297319e-07 7.508433484276673" Properties=species:S:1:pos:R:3:forces:R:3 energy=-22.104877471923828 free_energy=-22.104877471923828 stress="-2.8427104552974924e-05 -7.991248907046611e-08 6.790615714180603e-08 -7.991248907046611e-08 -2.8368531275191344e-05 -8.709992016520118e-08 6.790615714180603e-08 -8.709992016520118e-08 -2.831590609275736e-05" pbc="T T T"
Cu       2.16749824       1.53265247       3.75421707      -0.00000002       0.00000026      -0.00000052
Cu       6.50249422       4.59795668      11.26264965       0.00000039      -0.00000021      -0.00000088
Fe      -0.00000119      -0.00000074       0.00000103       0.00002729       0.00002730      -0.00002718
I        1.97987150       1.39997965       7.50843365       0.00171900       0.00121471      -0.00000202
I        6.69012191       4.73063018       7.50843374      -0.00175039      -0.00123703       0.00000030
I        5.51255921       1.39997905       5.46883540      -0.00086940       0.00122990       0.00150540
I        3.15743348       4.73062858       9.54803151       0.00086179      -0.00121826      -0.00149373
I        3.15743318       4.73062966       5.46883531       0.00086456      -0.00122427       0.00149802
I        5.51255757       1.39998067       9.54803100      -0.00085305       0.00120754      -0.00147934
