9
Lattice="6.09403368587368 -2.1913589020483382e-08 3.5183921578689232 2.031344564649687 5.745509955518366 3.518392117421805 1.147857923100858e-07 3.16284772921836e-08 7.036784116922971" Properties=species:S:1:pos:R:3:forces:R:3 energy=-21.32293128967285 free_energy=-21.32293128967285 stress="0.00022209003509487957 6.199723845412564e-09 9.765657171811881e-10 6.199723845412564e-09 0.00022209530288819224 -4.685094534551126e-09 9.765657171811881e-10 -4.685094534551126e-09 0.00022206488938536495" pbc="T T T"
Cu       2.03134554       1.43637698       3.51839228       0.00000334      -0.00000036       0.00000004
Cu       6.09403401       4.30913195      10.55517580       0.00000048      -0.00000263      -0.00000268
Ge      -0.00000039       0.00000026       0.00000028       0.00000315      -0.00000340       0.00000045
Br       1.98975622       1.40697044       7.03678442      -0.00133781      -0.00094555       0.00000008
Br       6.13562193       4.33854013       7.03678449       0.00133529       0.00094531       0.00000084
Br       5.09915534       1.40697032       5.24157137       0.00066578      -0.00094304      -0.00115587
Br       3.02622284       4.33853969       8.83199654      -0.00066849       0.00094709       0.00115922
Br       3.02622266       4.33853961       5.24157167      -0.00066920       0.00094611      -0.00115840
Br       5.09915530       1.40697049       8.83199674       0.00066737      -0.00094349       0.00115648
