9
Lattice="5.7253239927278194 -6.68180641737145e-10 3.3055170720662517 1.908441248408442 5.397887288442558 3.3055172138707287 -1.9245122824342233e-07 3.7590701372315426e-08 6.611034477467832" Properties=species:S:1:pos:R:3:forces:R:3 energy=-25.18536376953125 free_energy=-25.18536376953125 stress="0.0003138248575851321 1.566349183690363e-08 -1.695358342601594e-08 1.566349183690363e-08 0.0003137832973152399 2.2821247114279686e-08 -1.695358342601594e-08 2.2821247114279686e-08 0.0003137393214274198" pbc="T T T"
Cu       1.90844100       1.34947189       3.30551752      -0.00000039      -0.00000084      -0.00000007
Cu       5.72532362       4.04841518       9.91655165      -0.00000103      -0.00000138      -0.00000039
Ge       0.00000107       0.00000032      -0.00000056      -0.00001965      -0.00000664       0.00000816
Cl       1.85664131       1.31284351       6.61103422      -0.00461560      -0.00326218       0.00000028
Cl       5.77712309       4.08504280       6.61103426       0.00463669       0.00327873      -0.00000075
Cl       4.79700256       1.31284451       4.91341602       0.00231466      -0.00327471      -0.00401087
Cl       2.83676245       4.08504347       8.30865285      -0.00231269       0.00326733       0.00400336
Cl       2.83676181       4.08504373       4.91341588      -0.00231203       0.00326768      -0.00400172
Cl       4.79700317       1.31284388       8.30865312       0.00230986      -0.00326800       0.00400162
