9
Lattice="6.092885129288869 -1.6058597020470677e-07 3.51772873068396 2.0309615591490506 5.744427188035806 3.5177287293190416 8.124887322193496e-09 4.073514046348292e-09 7.03545744729521" Properties=species:S:1:pos:R:3:forces:R:3 energy=-21.322952270507812 free_energy=-21.322952270507812 stress="0.00011075742077082396 1.0211367751367106e-08 1.4273163984057646e-08 1.0211367751367106e-08 0.00011073640052927658 2.0760873020719828e-09 1.4273163984057646e-08 2.0760873020719828e-09 0.00011076490045525134" pbc="T T T"
Cu       2.03096072       1.43610546       3.51772807      -0.00000323      -0.00000433      -0.00000219
Cu       6.09288637       4.30832075      10.55318619       0.00000484       0.00000092       0.00000022
Ge       0.00000021       0.00000029      -0.00000007      -0.00000150      -0.00000260       0.00000035
Br       1.98963831       1.40688676       7.03545748      -0.00060444      -0.00042644       0.00000051
Br       6.13420776       4.33754032       7.03545753       0.00060779       0.00043137       0.00000043
Br       5.09806620       1.40688657       5.24080666       0.00030369      -0.00042906      -0.00052437
Br       3.02578038       4.33754058       8.83010856      -0.00030484       0.00042933       0.00052407
Br       3.02578076       4.33754086       5.24080671      -0.00030497       0.00043026      -0.00052419
Br       5.09806608       1.40688654       8.83010848       0.00030254      -0.00042936       0.00052524
