9
Lattice="6.644889757331384 -1.5979025697271234e-07 3.836428974291947 2.2149631957091094 6.264862163000546 3.836428811622899 5.53414512775871e-08 -1.6009581466165364e-07 7.672857852729742" Properties=species:S:1:pos:R:3:forces:R:3 energy=-17.84869384765625 free_energy=-17.84869384765625 stress="6.689051951980218e-05 -7.062813001113e-09 1.9212473834073762e-09 -7.062813001113e-09 6.689589645247906e-05 1.7497945314914887e-09 1.9212473834073762e-09 1.7497945314914887e-09 6.688473513349891e-05" pbc="T T T"
Cu       2.21496316       1.56621433       3.83642960      -0.00000077      -0.00000286       0.00000159
Cu       6.64489016       4.69864572      11.50928660       0.00000101      -0.00000233       0.00000011
Ge      -0.00000000       0.00000014      -0.00000030      -0.00000012       0.00000060       0.00000000
I        2.31352904       1.63591251       7.67285756      -0.00213161      -0.00150552      -0.00000107
I        6.54632361       4.62895015       7.67285790       0.00213036       0.00150761      -0.00000017
I        5.48812515       1.63591207       5.84000388       0.00106576      -0.00150634      -0.00184566
I        3.37172787       4.62895008       9.50571179      -0.00106579       0.00150859       0.00184444
I        3.37172779       4.62895005       5.84000407      -0.00106552       0.00150718      -0.00184444
I        5.48812524       1.63591229       9.50571142       0.00106676      -0.00150688       0.00184520
