9
Lattice="4.650397238961347 8.029577923722493e-08 2.6849081882854597 1.5501324594948325 4.384436757591586 2.684908238854327 -4.969416298633172e-08 2.6794817989297538e-08 5.369816462643835" Properties=species:S:1:pos:R:3:forces:R:3 energy=-38.14661407470703 free_energy=-38.14661407470703 stress="0.0004015014856122434 1.811070262647263e-07 1.3629249906443874e-07 1.811070262647263e-07 0.00040139982593245804 -9.23561813692686e-08 1.3629249906443874e-07 -9.23561813692686e-08 0.0004013434809166938" pbc="T T T"
Cu       1.55013252       1.09610906       2.68490846      -0.00000150      -0.00000135      -0.00000116
Cu       4.65039667       3.28832747       8.05472472      -0.00000006      -0.00000053       0.00000146
Ge       0.00000005      -0.00000002      -0.00000000      -0.00000443      -0.00000224      -0.00000910
F        1.48398662       1.04933733       5.36981687      -0.00556791      -0.00393948      -0.00000322
F        4.71654284       3.33509978       5.36981639       0.00557321       0.00394270       0.00000075
F        3.90840473       1.04933670       3.97007779       0.00277516      -0.00392607      -0.00481069
F        2.29212488       3.33509978       6.76955480      -0.00277841       0.00393233       0.00481680
F        2.29212601       3.33510026       3.97007814      -0.00278072       0.00393118      -0.00481769
F        3.90840433       1.04933707       6.76955433       0.00278461      -0.00393659       0.00482264
