9
Lattice="5.725468411630556 -7.590246755076628e-09 3.3056006028939042 1.9084894742632617 5.398023259870232 3.305600584056225 3.99577652983484e-08 5.183059913844078e-09 6.611201136578916" Properties=species:S:1:pos:R:3:forces:R:3 energy=-25.185367584228516 free_energy=-25.185367584228516 stress="0.000269690208369866 4.15199536973887e-08 3.029055051229079e-08 4.15199536973887e-08 0.00026963732670992613 -2.478036975617215e-08 3.029055051229079e-08 -2.478036975617215e-08 0.00026968392194248736" pbc="T T T"
Cu       1.90848924       1.34950568       3.30560093      -0.00000162      -0.00000146       0.00000211
Cu       5.72546865       4.04851769       9.91680227       0.00000053       0.00000198       0.00000229
Ge       0.00000013      -0.00000016       0.00000011      -0.00000263       0.00000384      -0.00000317
Cl       1.85645525       1.31271205       6.61120101      -0.00219712      -0.00155164      -0.00000216
Cl       5.77750243       4.08531145       6.61120087       0.00219487       0.00155237      -0.00000321
Cl       4.79724104       1.31271152       4.91333790       0.00109655      -0.00154807      -0.00189792
Cl       2.83671714       4.08531120       8.30906447      -0.00109567       0.00154899       0.00189708
Cl       2.83671682       4.08531142       4.91333770      -0.00109459       0.00154835      -0.00189747
Cl       4.79724096       1.31271212       8.30906401       0.00109969      -0.00155444       0.00190251
