9
Lattice="6.641849512309461 1.1633073179453332e-09 3.834673642535071 2.2139498203917696 6.2619958507134434 3.8346736739570795 -4.099198542635292e-08 9.498228790544502e-09 7.66934735607032" Properties=species:S:1:pos:R:3:forces:R:3 energy=-17.848630905151367 free_energy=-17.848630905151367 stress="-0.00014487325097434223 1.039783592560184e-09 5.496214594558069e-09 1.039783592560184e-09 -0.00014487674343399704 3.133955595036042e-10 5.496214594558069e-09 3.133955595036042e-10 -0.0001448805705877021" pbc="T T T"
Cu       2.21394981       1.56549864       3.83467371      -0.00000045      -0.00000111      -0.00000043
Cu       6.64184956       4.69649706      11.50402008       0.00000044       0.00000017      -0.00000258
Ge      -0.00000005       0.00000019       0.00000017      -0.00000050      -0.00000023       0.00000002
I        2.31358779       1.63595379       7.66934726      -0.00691327      -0.00488821      -0.00000021
I        6.54221132       4.62604201       7.66934785       0.00691304       0.00488865       0.00000119
I        5.48505544       1.63595339       5.83829977       0.00345623      -0.00488836      -0.00598687
I        3.37074405       4.62604223       9.50039495      -0.00345618       0.00488921       0.00598714
I        3.37074361       4.62604236       5.83829991      -0.00345628       0.00488807      -0.00598596
I        5.48505563       1.63595374       9.50039502       0.00345698      -0.00488818       0.00598778
