9
Lattice="6.344459613287751 -8.887904182242125e-08 3.6629756346155857 2.11481981986296 5.981613987526946 3.6629755782147995 2.842955736451242e-08 -4.897375637710094e-08 7.325951219989723" Properties=species:S:1:pos:R:3:forces:R:3 energy=-31.411855697631836 free_energy=-31.411855697631836 stress="0.0001488335255999118 -9.316579507867573e-09 8.4892004537096e-09 -9.316579507867573e-09 0.00014887719589751214 -1.1848455550023118e-08 8.4892004537096e-09 -1.1848455550023118e-08 0.0001488711277488619" pbc="T T T"
Cu       2.11481981       1.49540359       3.66297572      -0.00000077       0.00000000       0.00000063
Cu       6.34445922       4.48620988      10.98892681      -0.00000022      -0.00000096       0.00000000
Hf       0.00000061       0.00000029       0.00000025      -0.00000647      -0.00000518      -0.00000250
Br       2.12913434       1.50552539       7.32595101      -0.00210690      -0.00148970       0.00000066
Br       6.33014457       4.47608814       7.32595110       0.00211556       0.00149608      -0.00000037
Br       5.27989232       1.50552572       5.50686062       0.00105585      -0.00149320      -0.00183028
Br       3.17938735       4.47608829       9.14504186      -0.00105746       0.00149439       0.00183105
Br       3.17938738       4.47608827       5.50686056      -0.00105714       0.00149363      -0.00183121
Br       5.27989222       1.50552582       9.14504183       0.00105751      -0.00149505       0.00183202
