9
Lattice="5.787907455572451 -1.6355400141876958e-08 3.34164999397455 1.9293025347383932 5.45689113262552 3.341649881447385 1.2885231489183236e-07 -4.670472564900216e-08 6.683299764770376" Properties=species:S:1:pos:R:3:forces:R:3 energy=-17.3654727935791 free_energy=-17.3654727935791 stress="0.00018394012295175344 2.9189223482717352e-08 -2.6812467801562434e-09 2.9189223482717352e-08 0.0001838821335695684 -3.257309799664654e-08 -2.6812467801562434e-09 -3.257309799664654e-08 0.00018385532894171774" pbc="T T T"
Cu       1.92930205       1.36422257       3.34164964       0.00000004      -0.00000029      -0.00000231
Cu       5.78790773       4.09266842      10.02495013       0.00000056       0.00000078       0.00000135
Hg      -0.00000022      -0.00000012       0.00000039       0.00000130      -0.00000009      -0.00000575
Cl       2.05592817       1.45376034       6.68330006      -0.00798070      -0.00564471      -0.00000044
Cl       5.66128209       4.00313119       6.68329983       0.00797716       0.00564083      -0.00000329
Cl       4.75994435       1.45376039       5.12213532       0.00398801      -0.00563845      -0.00690433
Cl       2.95726613       4.00312998       8.24446394      -0.00398882       0.00564575       0.00691193
Cl       2.95726599       4.00313083       5.12213543      -0.00398687       0.00564072      -0.00690854
Cl       4.75994415       1.45376070       8.24446380       0.00398934      -0.00564450       0.00691104
