9
Lattice="6.180201629024859 5.031963653907407e-08 3.568141095320068 2.060067245603038 5.826749998936455 3.5681411152623657 -4.030028958156406e-08 -4.072390256139765e-09 7.136282260442328" Properties=species:S:1:pos:R:3:forces:R:3 energy=-14.968643188476562 free_energy=-14.968643188476562 stress="0.00014171304064802825 2.861564762923763e-09 -1.6474041686365126e-08 2.861564762923763e-09 0.00014171743532642722 -1.1100806496244786e-08 -1.6474041686365126e-08 -1.1100806496244786e-08 0.00014170518261380494" pbc="T T T"
Cu       2.06006726       1.45668795       3.56814131       0.00000037       0.00000245      -0.00000020
Cu       6.18020128       4.37006242      10.70442327      -0.00000324      -0.00000135      -0.00000036
Hg      -0.00000018      -0.00000027      -0.00000088       0.00000339       0.00000417       0.00000829
Br       2.19387689       1.55130504       7.13628225      -0.00577158      -0.00408161      -0.00000041
Br       6.04639222       4.27544495       7.13628220       0.00576770       0.00407737       0.00000156
Br       5.08326321       1.55130562       5.46809382       0.00288717      -0.00408193      -0.00499907
Br       3.15700546       4.27544497       8.80447095      -0.00288156       0.00407657       0.00499353
Br       3.15700578       4.27544431       5.46809404      -0.00288646       0.00408056      -0.00499806
Br       5.08326348       1.55130512       8.80447088       0.00288408      -0.00407624       0.00499487
