9
Lattice="4.914217131210623 -1.2266079853255767e-07 2.8372246333167768 1.638072298755768 4.633168024091702 2.837224568657104 -8.720390123498717e-08 -1.4085407931861525e-07 5.674449417675145" Properties=species:S:1:pos:R:3:forces:R:3 energy=-49.495479583740234 free_energy=-49.495479583740234 stress="0.0006039931904524565 -3.371430778997819e-08 -2.2408162436704515e-08 -3.371430778997819e-08 0.000604011642280966 2.1513542947104725e-08 -2.2408162436704515e-08 2.1513542947104725e-08 0.0006040680455043912" pbc="T T T"
Cu       1.63807201       1.15829196       2.83722447      -0.00000082      -0.00000039       0.00000010
Cu       4.91421692       3.47487527       8.51167426      -0.00000015      -0.00000110       0.00000006
Hf      -0.00000014      -0.00000011      -0.00000002       0.00000895      -0.00000535       0.00000101
F        1.62983817       1.15246969       5.67444909      -0.00318503      -0.00225150      -0.00000041
F        4.92245082       3.48069843       5.67444917       0.00318237       0.00224947      -0.00000036
F        4.09929790       1.15246932       4.24870620       0.00159230      -0.00225101      -0.00275767
F        2.45299170       3.48069815       7.10019236      -0.00159455       0.00225496       0.00276271
F        2.45299163       3.48069874       4.24870625      -0.00159366       0.00225358      -0.00276077
F        4.09929823       1.15246960       7.10019285       0.00159049      -0.00224864       0.00275528
