9
Lattice="5.8590092920847985 -7.584842942364625e-08 3.3827005785564457 1.9530031042752203 5.523926508603573 3.3827004427217613 -5.036099484472109e-08 -2.01973414807322e-07 6.765401244340722" Properties=species:S:1:pos:R:3:forces:R:3 energy=-35.402748107910156 free_energy=-35.402748107910156 stress="0.00013721130380872637 -6.5140870475488555e-09 2.946850097274023e-09 -6.5140870475488555e-09 0.00013719123671762645 -4.954154064762406e-08 2.946850097274023e-09 -4.954154064762406e-08 0.00013717651017941535" pbc="T T T"
Cu       1.95300314       1.38098266       3.38270112       0.00000089       0.00000280       0.00000249
Cu       5.85900929       4.14294489      10.14810114       0.00000003       0.00000002      -0.00000283
Hf      -0.00000007       0.00000006       0.00000019      -0.00000124      -0.00000269      -0.00000138
Cl       1.98572268       1.40411732       6.76540087      -0.00090995      -0.00064318      -0.00000080
Cl       5.82628987       4.11980813       6.76540100       0.00091353       0.00064526       0.00000017
Cl       4.86614754       1.40411693       5.10238680       0.00045438      -0.00064452      -0.00078714
Cl       2.94586428       4.11980881       8.42841559      -0.00045542       0.00064301       0.00079035
Cl       2.94586462       4.11980848       5.10238672      -0.00045808       0.00064335      -0.00079124
Cl       4.86614801       1.40411763       8.42841573       0.00045585      -0.00064395       0.00079049
