9
Lattice="4.840645988941973 -6.754958364090039e-08 2.794748192176597 1.613548572691148 4.563804754031892 2.794748238254605 -7.747029528812852e-08 1.6540491936487348e-09 5.589496518535692" Properties=species:S:1:pos:R:3:forces:R:3 energy=-25.594263076782227 free_energy=-25.594263076782227 stress="0.0006233585882000625 -3.394880465634742e-08 2.8296900822510906e-08 -3.394880465634742e-08 0.0006232893210835755 1.0537608119420838e-08 2.8296900822510906e-08 1.0537608119420838e-08 0.0006233748863451183" pbc="T T T"
Cu       1.61354889       1.14095171       2.79474778       0.00000026       0.00000275      -0.00000172
Cu       4.84064608       3.42285308       8.38424433       0.00000116      -0.00000235      -0.00000331
Hg      -0.00000012      -0.00000021      -0.00000025       0.00000298       0.00000586       0.00000787
F        1.70100471       1.20279269       5.58949642      -0.00231987      -0.00163651       0.00000008
F        4.75318950       3.36101217       5.58949673       0.00231457       0.00163412       0.00000199
F        3.99014337       1.20279232       4.26786227       0.00116062      -0.00164205      -0.00200897
F        2.46405132       3.36101237       6.91113129      -0.00115675       0.00163567       0.00200427
F        2.46405120       3.36101221       4.26786206      -0.00116074       0.00163856      -0.00200766
F        3.99014289       1.20279247       6.91113128       0.00115782      -0.00163612       0.00200737
