9
Lattice="6.713432238317704 4.552000738488849e-08 3.8760018820449518 2.2378107861461065 6.3294845983453065 3.876001887027141 1.1292571286763361e-08 1.4086962716157101e-08 7.752003744530588" Properties=species:S:1:pos:R:3:forces:R:3 energy=-12.894794464111328 free_energy=-12.894794464111328 stress="4.2947522160829976e-05 -2.7519964085342963e-09 2.3806947524462885e-09 -2.7519964085342963e-09 4.294289828976616e-05 -4.768297312551795e-09 2.3806947524462885e-09 -4.768297312551795e-09 4.294466634746641e-05" pbc="T T T"
Cu       2.23781069       1.58237113       3.87600184      -0.00000001      -0.00000039      -0.00000024
Cu       6.71343230       4.74711345      11.62800584      -0.00000004       0.00000013       0.00000028
Hg       0.00000011      -0.00000007       0.00000013      -0.00000014      -0.00000011      -0.00000014
I        2.40473818       1.70040670       7.75200376       0.00218487       0.00154451       0.00000011
I        6.54650488       4.62907792       7.75200368      -0.00218460      -0.00154430      -0.00000060
I        5.51106322       1.70040671       5.95856610      -0.00109288       0.00154442       0.00189131
I        3.44017986       4.62907796       9.54544136       0.00109266      -0.00154459      -0.00189143
I        3.44017981       4.62907815       5.95856603       0.00109230      -0.00154373       0.00189200
I        5.51106316       1.70040669       9.54544133      -0.00109227       0.00154400      -0.00189140
