9
Lattice="6.920006564945776 -1.369162705447979e-07 3.9952676577748534 2.306668708637825 6.5242448007069935 3.9952676876669724 1.0132366245274495e-08 4.3774837252338015e-08 7.990535297999922" Properties=species:S:1:pos:R:3:forces:R:3 energy=-27.691617965698242 free_energy=-27.691617965698242 stress="6.076996578485705e-05 -1.2194552034827666e-08 -1.6499246413559376e-08 -1.2194552034827666e-08 6.0788210248574615e-05 2.390911646443783e-08 -1.6499246413559376e-08 2.390911646443783e-08 6.078480510041118e-05" pbc="T T T"
Cu       2.30666882       1.63106100       3.99526768      -0.00000016      -0.00000043       0.00000032
Cu       6.92000665       4.89318354      11.98580273       0.00000028       0.00000016      -0.00000056
Hf      -0.00000032      -0.00000010       0.00000036       0.00000260      -0.00000088      -0.00000102
I        2.30766159       1.63176342       7.99053520      -0.00139287      -0.00098482       0.00000026
I        6.91901340       4.89248143       7.99053545       0.00139271       0.00098448      -0.00000019
I        5.76617542       1.63176352       5.99376176       0.00069761      -0.00098675      -0.00120731
I        3.46050012       4.89248121       9.98730859      -0.00069914       0.00098781       0.00120943
I        3.46049987       4.89248122       5.99376177      -0.00069734       0.00098577      -0.00120607
I        5.76617559       1.63176361       9.98730901       0.00069628      -0.00098532       0.00120501
