9
Lattice="4.826662137582704 -1.5095290710846375e-08 2.7866746843222514 1.6088873491277813 4.550620716515354 2.786674711748356 -4.600509101016631e-08 1.059484003392366e-09 5.573349448327683" Properties=species:S:1:pos:R:3:forces:R:3 energy=-33.96116256713867 free_energy=-33.96116256713867 stress="0.0002064760628854856 -1.123144244274954e-08 8.77803607579608e-09 -1.123144244274954e-08 0.0002064696600427851 4.076553850040909e-08 8.77803607579608e-09 4.076553850040909e-08 0.00020665333431679755" pbc="T T T"
Cu       1.60888769       1.13765495       2.78667457       0.00000094       0.00000019       0.00000049
Cu       4.82666197       3.41296567       8.36002324       0.00000006       0.00000087      -0.00000446
In      -0.00000004       0.00000013       0.00000032       0.00000062       0.00000051      -0.00001460
F        1.66778357       1.17930094       5.57334915      -0.00060517      -0.00043106      -0.00000054
F        4.76776573       3.37132009       5.57334973       0.00060499       0.00043067       0.00000080
F        3.99277043       1.17930100       4.23101817       0.00030389      -0.00042951      -0.00052431
F        2.44277920       3.37131909       6.91568131      -0.00030836       0.00043431       0.00053355
F        2.44277868       3.37131925       4.23101767      -0.00030303       0.00042751      -0.00052214
F        3.99277052       1.17930148       6.91568147       0.00030640      -0.00043362       0.00053117
