9
Lattice="4.801800503207359 4.619958381713638e-08 2.7723207455356254 1.6006001966429184 4.527180723702144 2.772320770910666 6.145315064939712e-08 7.45318378168579e-08 5.5446413846313325" Properties=species:S:1:pos:R:3:forces:R:3 energy=-37.137229919433594 free_energy=-37.137229919433594 stress="9.343228884972632e-05 1.712036379331039e-08 5.491745280750138e-09 1.712036379331039e-08 9.339296957477927e-05 -1.5477811032837963e-08 5.491745280750138e-09 -1.5477811032837963e-08 9.336577204521745e-05" pbc="T T T"
Cu       1.60059991       1.13179499       2.77232102      -0.00000066       0.00000032      -0.00000090
Cu       4.80180062       3.39538555       8.31696167      -0.00000005      -0.00000078      -0.00000171
Ir      -0.00000015       0.00000015      -0.00000005      -0.00000234      -0.00000481      -0.00000265
F        1.59151062       1.12536778       5.54464188      -0.00219685      -0.00155355      -0.00000203
F        4.81089033       3.40181319       5.54464174       0.00219914       0.00155601       0.00000112
F        4.00604583       1.12536832       4.15060875       0.00109754      -0.00155126      -0.00189980
F        2.39635519       3.40181256       6.93867396      -0.00109878       0.00155440       0.00190406
F        2.39635522       3.40181305       4.15060901      -0.00109883       0.00155307      -0.00190062
F        4.00604539       1.12536780       6.93867372       0.00110092      -0.00155337       0.00190261
