9
Lattice="6.106865569740253 -9.911897615958202e-08 3.5258005543334496 2.035621779850002 5.757608127847768 3.525800525373244 8.508705244806854e-09 -2.9452296586898577e-08 7.051601093929399" Properties=species:S:1:pos:R:3:forces:R:3 energy=-24.950498580932617 free_energy=-24.950498580932617 stress="0.00011511651973705739 -8.006200147292475e-09 2.2760733742188677e-08 -8.006200147292475e-09 0.00011512543278513476 -4.368425621237293e-08 2.2760733742188677e-08 -4.368425621237293e-08 0.00011513318167999387" pbc="T T T"
Cu       2.03562137       1.43940188       3.52580051      -0.00000197      -0.00000005       0.00000008
Cu       6.10686567       4.31820609      10.57740153       0.00000107       0.00000119      -0.00000194
Ir      -0.00000012      -0.00000011       0.00000018       0.00000279       0.00000079       0.00000465
Br       2.01706281       1.42627877       7.05160100      -0.00088465      -0.00062626       0.00000055
Br       6.12542480       4.33132936       7.05160121       0.00088325       0.00062519       0.00000029
Br       5.09833414       1.42627880       5.27262851       0.00044247      -0.00062520      -0.00076600
Br       3.04415333       4.33132923       8.83057359      -0.00044119       0.00062295       0.00076376
Br       3.04415329       4.33132906       5.27262861      -0.00044480       0.00062853      -0.00076921
Br       5.09833413       1.42627891       8.83057356       0.00044310      -0.00062706       0.00076779
