9
Lattice="5.799659251760836 -2.6014606923035592e-09 3.3484346448693447 1.9332197219989882 5.46797083790665 3.3484346901369433 -1.1302894523140007e-07 -2.448229157777514e-08 6.696869485510541" Properties=species:S:1:pos:R:3:forces:R:3 energy=-23.186782836914062 free_energy=-23.186782836914062 stress="0.00014473417832050472 -3.4328528908389444e-09 1.9151395136418614e-08 -3.4328528908389444e-09 0.00014473403280135244 -1.1774628383420804e-08 1.9151395136418614e-08 -1.1774628383420804e-08 0.00014473666669800878" pbc="T T T"
Cu       1.93321955       1.36699305       3.34843481      -0.00000200       0.00000116       0.00000165
Cu       5.79965983       4.10097802      10.04530463       0.00000396       0.00000000       0.00000188
In      -0.00000026       0.00000015      -0.00000055       0.00000467       0.00000156       0.00000746
Cl       2.01493543       1.42477436       6.69686913      -0.00230306      -0.00162765       0.00000008
Cl       5.71794364       4.04319623       6.69686871       0.00229758       0.00162408       0.00000092
Cl       4.79219114       1.42477436       5.09342003       0.00115316      -0.00162894      -0.00199416
Cl       2.94068679       4.04319600       8.30031880      -0.00114973       0.00162384       0.00198981
Cl       2.94068748       4.04319663       5.09342045      -0.00115277       0.00163084      -0.00199801
Cl       4.79219182       1.42477450       8.30031913       0.00114796      -0.00162482       0.00199008
