9
Lattice="6.765284305234134 3.176805717474272e-08 3.905938662281 2.255094761704073 6.37837114949112 3.905938725775365 -1.775271263559802e-08 6.52113758716954e-08 7.81187735531063" Properties=species:S:1:pos:R:3:forces:R:3 energy=-17.038482666015625 free_energy=-17.038482666015625 stress="0.0001001245400402695 9.90721837901276e-10 -6.550066711241698e-09 9.90721837901276e-10 0.00010012584243668243 4.9535664459199324e-09 -6.550066711241698e-09 4.9535664459199324e-09 0.00010010795813286677" pbc="T T T"
Cu       2.25509431       1.59459298       3.90593873      -0.00000072       0.00000064      -0.00000020
Cu       6.76528451       4.78377826      11.71781636       0.00000005      -0.00000037       0.00000060
In      -0.00000001       0.00000040      -0.00000005       0.00000100      -0.00000236       0.00000162
I        2.35985245       1.66866807       7.81187741      -0.00224149      -0.00158525       0.00000024
I        6.66052658       4.70970321       7.81187719       0.00224191       0.00158399      -0.00000025
I        5.58535807       1.66866811       5.94963097       0.00112164      -0.00158507      -0.00194055
I        3.43502106       4.70970317       9.67412355      -0.00112137       0.00158611       0.00194186
I        3.43502115       4.70970333       5.94963102      -0.00112119       0.00158679      -0.00194229
I        5.58535807       1.66866751       9.67412377       0.00112028      -0.00158456       0.00193897
