9
Lattice="6.478639953222828 -2.8796442161179567e-08 3.74044447170218 2.1595466185268712 6.108120453772288 3.7404444810515765 -1.1199486008307366e-08 3.53139375354808e-09 7.480888962802479" Properties=species:S:1:pos:R:3:forces:R:3 energy=-22.34580421447754 free_energy=-22.34580421447754 stress="-3.159504558425397e-05 -5.779830392071972e-09 9.32769506079012e-09 -5.779830392071972e-09 -3.158294566674158e-05 -4.792731211900048e-10 9.32769506079012e-09 -4.792731211900048e-10 -3.1581901566823944e-05" pbc="T T T"
Cu       2.15954659       1.52703015       3.74044442       0.00000004      -0.00000058       0.00000003
Cu       6.47864001       4.58109016      11.22133338       0.00000043      -0.00000023       0.00000035
Ir      -0.00000013       0.00000011      -0.00000017       0.00000135      -0.00000045      -0.00000084
I        2.17946143       1.54111188       7.48088887      -0.00035272      -0.00024901      -0.00000010
I        6.45872521       4.56700873       7.48088893       0.00035197       0.00024925      -0.00000001
I        5.38890926       1.54111196       5.62791344       0.00017617      -0.00024905      -0.00030528
I        3.24927719       4.56700845       9.33386468      -0.00017675       0.00024943       0.00030595
I        3.24927735       4.56700834       5.62791346      -0.00017688       0.00024977      -0.00030601
I        5.38890934       1.54111193       9.33386466       0.00017639      -0.00024916       0.00030590
