9
Lattice="5.753441268251495 -2.616401888519338e-08 3.3217508839458736 1.917813751347836 5.424396385979482 3.321750849423246 3.374777070197612e-08 -1.84181956588681e-08 6.64350170943893" Properties=species:S:1:pos:R:3:forces:R:3 energy=-28.03825569152832 free_energy=-28.03825569152832 stress="9.892260277410969e-05 2.581765468079311e-09 5.752263998459739e-09 2.581765468079311e-09 9.894457616610453e-05 -2.198339732473187e-09 5.752263998459739e-09 -2.198339732473187e-09 9.896414121612906e-05" pbc="T T T"
Cu       1.91781396       1.35609988       3.32175115       0.00000028       0.00000225       0.00000150
Cu       5.75344191       4.06829649       9.96525314       0.00000161      -0.00000251       0.00000168
Ir      -0.00000009       0.00000016      -0.00000035       0.00000047      -0.00000170       0.00000205
Cl       1.88205217       1.33081181       6.64350150      -0.00021955      -0.00015357      -0.00000010
Cl       5.78920273       4.09358457       6.64350130       0.00021848       0.00015473       0.00000003
Cl       4.81241505       1.33081191       4.95165596       0.00011045      -0.00015444      -0.00019199
Cl       2.85883955       4.09358457       8.33534753      -0.00011122       0.00015455       0.00018969
Cl       2.85883988       4.09358415       4.95165599      -0.00011155       0.00015566      -0.00019422
Cl       4.81241504       1.33081183       8.33534749       0.00011089      -0.00015506       0.00019166
