9
Lattice="6.197922557469585 2.0889513972250517e-08 3.5783723246672765 2.0659741938303378 5.843457498681287 3.578372344910907 -2.875858725466378e-08 4.457930884157033e-09 7.15674469914588" Properties=species:S:1:pos:R:3:forces:R:3 energy=-19.968461990356445 free_energy=-19.968461990356445 stress="1.966817035281565e-05 3.590890784721523e-08 1.3032273926683047e-08 3.590890784721523e-08 1.9640159734990448e-05 -1.1847038905443696e-08 1.3032273926683047e-08 -1.1847038905443696e-08 1.9646329747047275e-05" pbc="T T T"
Cu       2.06597387       1.46086385       3.57837228      -0.00000074      -0.00000166      -0.00000058
Cu       6.19792257       4.38259366      10.73511676      -0.00000080       0.00000087      -0.00000046
In      -0.00000031      -0.00000025       0.00000025       0.00000025       0.00000164      -0.00000338
Br       2.16463755       1.53062964       7.15674472      -0.00099871      -0.00070581       0.00000026
Br       6.09925949       4.31282792       7.15674488       0.00099471       0.00070512      -0.00000025
Br       5.11560396       1.53062956       5.45300334       0.00049935      -0.00070405      -0.00086126
Br       3.14829310       4.31282790       8.86048620      -0.00049858       0.00070551       0.00086147
Br       3.14829274       4.31282808       5.45300314      -0.00049618       0.00070357      -0.00086027
Br       5.11560388       1.53062963       8.86048607       0.00050057      -0.00070527       0.00086433
