9
Lattice="6.51763798218224 2.228225514116197e-08 3.7629600845909783 2.1725460136177035 6.144888024477061 3.762960087104143 2.1487202133179775e-08 1.8271737491870493e-08 7.5259201319650275" Properties=species:S:1:pos:R:3:forces:R:3 energy=-23.205127716064453 free_energy=-23.205127716064453 stress="0.0002833802136592567 -7.189201678414747e-09 3.2179274800370194e-09 -7.189201678414747e-09 0.0002833784674294293 6.263285445839983e-09 3.2179274800370194e-09 6.263285445839983e-09 0.0002833917096722871" pbc="T T T"
Cu       2.17254588       1.53622200       3.76296011       0.00000020       0.00000005      -0.00000061
Cu       6.51763801       4.60866595      11.28888045      -0.00000058      -0.00000054       0.00000087
Mn      -0.00000015      -0.00000015       0.00000036       0.00000181       0.00000186      -0.00000192
I        2.10365597       1.48750924       7.52592023       0.00422454       0.00298829       0.00000013
I        6.58652825       4.65737899       7.52592008      -0.00422788      -0.00299048      -0.00000085
I        5.46581008       1.48750929       5.58477937      -0.00211262       0.00298962       0.00366120
I        3.22437409       4.65737864       9.46706062       0.00211270      -0.00298767      -0.00366001
I        3.22437396       4.65737884       5.58477938       0.00211343      -0.00298917       0.00366096
I        5.46580997       1.48750946       9.46706062      -0.00211178       0.00298803      -0.00366002
