9
Lattice="6.213978002328564 -2.7617722446911163e-08 3.587641930739156 2.071325957813119 5.858594754707557 3.5876419600538396 9.222418647618883e-09 4.2424226039753224e-08 7.1752838455046115" Properties=species:S:1:pos:R:3:forces:R:3 energy=-27.819866180419922 free_energy=-27.819866180419922 stress="6.986287189647555e-05 -1.5260992469734447e-08 4.84893236674111e-10 -1.5260992469734447e-08 6.986445805523545e-05 -1.1297068835958157e-09 4.84893236674111e-10 -1.1297068835958157e-09 6.989082612562925e-05" pbc="T T T"
Cu       2.07132634       1.46464854       3.58764220       0.00000030      -0.00000114       0.00000084
Cu       6.21397807       4.39394580      10.76292535       0.00000126      -0.00000110      -0.00000147
Mo       0.00000004      -0.00000001       0.00000039      -0.00000202      -0.00000104      -0.00000580
Br       2.04897399       1.44884361       7.17528390      -0.00043610      -0.00030766      -0.00000068
Br       6.23632968       4.40975123       7.17528412       0.00043857       0.00031088       0.00000016
Br       5.18949072       1.44884378       5.36210561       0.00021750      -0.00030886      -0.00037925
Br       3.09581330       4.40975101       8.98846182      -0.00022105       0.00031222       0.00038210
Br       3.09581303       4.40975130       5.36210572      -0.00021904       0.00030836      -0.00037844
Br       5.18949071       1.44884384       8.98846186       0.00022072      -0.00031156       0.00038255
