9
Lattice="6.119071671590056 3.944116741847639e-08 3.5328477825859332 2.039690627515574 5.769115622180215 3.532847725197175 -1.8096051535251834e-09 -7.156615825565021e-08 7.06569556830623" Properties=species:S:1:pos:R:3:forces:R:3 energy=-26.991878509521484 free_energy=-26.991878509521484 stress="-3.1404561013914645e-05 4.401480513394063e-09 1.3545450983087903e-08 4.401480513394063e-09 -3.1327017495641485e-05 1.1826290169381082e-08 1.3545450983087903e-08 1.1826290169381082e-08 -3.1344490707851946e-05" pbc="T T T"
Cu       2.03969080       1.44227923       3.53284800      -0.00000165       0.00000297       0.00000005
Cu       6.11907125       4.32683646      10.59854393       0.00000023      -0.00000253       0.00000365
Mn      -0.00000049      -0.00000030      -0.00000027       0.00000976       0.00000432       0.00000178
Br       1.90611849       1.34782917       7.06569540       0.00634304       0.00448351      -0.00000115
Br       6.25264374       4.42128622       7.06569535      -0.00634677      -0.00448675      -0.00000092
Br       5.16601271       1.34782961       5.18359466      -0.00317388       0.00448483       0.00549331
Br       2.99275001       4.42128615       8.94779617       0.00317134      -0.00448594      -0.00549269
Br       2.99275008       4.42128621       5.18359470       0.00317123      -0.00448538       0.00549045
Br       5.16601256       1.34782965       8.94779634      -0.00317319       0.00448508      -0.00549445
