9
Lattice="5.715629008111957 1.2491481741419406e-07 3.299920046633856 1.9052097942713886 5.3887469225055415 3.2999200342844497 6.469009301359579e-08 3.061790905111289e-08 6.599839981221178" Properties=species:S:1:pos:R:3:forces:R:3 energy=-30.09076690673828 free_energy=-30.09076690673828 stress="-0.00035979977110400796 -5.012924741976121e-09 5.836319760810227e-10 -5.012924741976121e-09 -0.00035977119114249945 4.551975241184891e-09 5.836319760810227e-10 4.551975241184891e-09 -0.00035973056219518185" pbc="T T T"
Cu       1.90520947       1.34718698       3.29991992      -0.00000154       0.00000100      -0.00000055
Cu       5.71562840       4.04156075       9.89976091      -0.00000080       0.00000021       0.00000388
Mn      -0.00000043       0.00000101       0.00000178       0.00001269      -0.00002072      -0.00004042
Cl       1.84025441       1.30125684       6.59983992       0.00263216       0.00185777      -0.00000021
Cl       5.78058452       4.08749046       6.59983948      -0.00263010      -0.00186040      -0.00000089
Cl       4.79550271       1.30125636       4.89362671      -0.00132527       0.00187275       0.00229335
Cl       2.82533738       4.08748921       8.30605213       0.00130535      -0.00184494      -0.00225973
Cl       2.82533720       4.08749011       4.89362694       0.00131889      -0.00186093       0.00227882
Cl       4.79550190       1.30125660       8.30605246      -0.00131143       0.00185522      -0.00227405
