9
Lattice="5.84105059653935 1.6454801985964801e-09 3.372332103342351 1.9470168498311613 5.506995111239437 3.3723321331913616 -8.615044392646156e-08 -2.436013516394443e-08 6.744664355901673" Properties=species:S:1:pos:R:3:forces:R:3 energy=-31.488393783569336 free_energy=-31.488393783569336 stress="0.000224865842028521 -1.9175978138719074e-08 -4.547474397043061e-09 -1.9175978138719074e-08 0.00022489999537356198 -1.6511219058656934e-08 -4.547474397043061e-09 -1.6511219058656934e-08 0.00022493234428111464" pbc="T T T"
Cu       1.94701626       1.37674819       3.37233263      -0.00000299      -0.00000177       0.00000163
Cu       5.84105038       4.13024626      10.11699619      -0.00000079      -0.00000012      -0.00000320
Mo      -0.00000029      -0.00000048       0.00000020       0.00000661       0.00000868      -0.00000368
Cl       1.92918552       1.36414026       6.74466409      -0.00352350      -0.00249234      -0.00000193
Cl       5.85888251       4.14285571       6.74466463       0.00351337       0.00248635      -0.00000036
Cl       4.87645814       1.36413990       5.04305619       0.00176133      -0.00248918      -0.00304914
Cl       2.91160955       4.14285490       8.44627261      -0.00175938       0.00249183       0.00305006
Cl       2.91160944       4.14285494       5.04305578      -0.00175928       0.00248961      -0.00304703
Cl       4.87645800       1.36414063       8.44627202       0.00176482      -0.00249338       0.00305375
