9
Lattice="4.536163235718058 -1.615217834469593e-07 2.618955224804579 1.5120543006508547 4.2767356686721065 2.618955153740277 4.2717234466716093e-08 -5.6829960634302734e-08 5.237910375620728" Properties=species:S:1:pos:R:3:forces:R:3 energy=-40.19532012939453 free_energy=-40.19532012939453 stress="0.00020658432913478464 -1.6443964057089033e-07 3.564709061265603e-08 -1.6443964057089033e-07 0.00020663469331339002 -6.001403818345352e-08 3.564709061265603e-08 -6.001403818345352e-08 0.00020676928397733718" pbc="T T T"
Cu       1.51205490       1.06918442       2.61895514       0.00000136      -0.00000025       0.00000039
Cu       4.53616272       3.20755121       7.85686570      -0.00000107       0.00000050      -0.00000005
Mn      -0.00000031      -0.00000014       0.00000003       0.00000960       0.00000027       0.00000242
F        1.49871153       1.05974802       5.23791067      -0.00273070      -0.00193051       0.00000070
F        4.54950620       3.21698728       5.23791019       0.00272496       0.00192499      -0.00000282
F        3.78680709       1.05974851       3.91687750       0.00136869      -0.00193305      -0.00236869
F        2.26141013       3.21698668       6.55894301      -0.00137089       0.00193550       0.00237267
F        2.26141028       3.21698629       3.91687774      -0.00137233       0.00193632      -0.00237582
F        3.78680766       1.05974951       6.55894306       0.00137019      -0.00193382       0.00237116
