9
Lattice="5.719693231639927 1.2604199433905087e-08 3.302266404684362 1.9065644441586183 5.392578469251743 3.302266367049324 -1.6522008747069355e-08 -5.7776208128558373e-08 6.604532837985731" Properties=species:S:1:pos:R:3:forces:R:3 energy=-30.090805053710938 free_energy=-30.090805053710938 stress="0.00015758429071865976 4.266067676894636e-08 8.21235790482433e-09 4.266067676894636e-08 0.00015751109458506107 8.265327089418406e-09 8.21235790482433e-09 8.265327089418406e-09 0.00015756762877572328" pbc="T T T"
Cu       1.90656385       1.34814309       3.30226603      -0.00000304      -0.00000677      -0.00000207
Cu       5.71969360       4.04443461       9.90679987       0.00000185       0.00000363       0.00000429
Mn       0.00000025       0.00000026       0.00000042      -0.00000573      -0.00000455      -0.00000750
Cl       1.84062057       1.30151508       6.60453307      -0.00123651      -0.00087453       0.00000157
Cl       5.78563725       4.09106331       6.60453273       0.00124070       0.00087821      -0.00000033
Cl       4.79938293       1.30151502       4.89629038       0.00061826      -0.00087225      -0.00107071
Cl       2.82687442       4.09106389       8.31277468      -0.00062021       0.00087912       0.00107145
Cl       2.82687476       4.09106376       4.89629046      -0.00061632       0.00087614      -0.00106931
Cl       4.79938293       1.30151475       8.31277491       0.00062083      -0.00087889       0.00107263
