9
Lattice="4.5352732361813155 1.0997191745056972e-07 2.6184411217882895 1.5117577694752153 4.275896634035789 2.6184412596613837 -8.350629885541602e-08 1.098115164637181e-07 5.236882388213713" Properties=species:S:1:pos:R:3:forces:R:3 energy=-40.195316314697266 free_energy=-40.195316314697266 stress="0.00011485403956612572 1.4803097769799933e-07 -8.553361396934633e-08 1.4803097769799933e-07 0.00011484698188723996 9.873603090682082e-08 -8.553361396934633e-08 9.873603090682082e-08 0.000114666938316077" pbc="T T T"
Cu       1.51175778       1.06897410       2.61844123       0.00000103       0.00000059       0.00000121
Cu       4.53527314       3.20692272       7.85532327      -0.00000124      -0.00000175       0.00000029
Mn      -0.00000001       0.00000002       0.00000045       0.00000553      -0.00000852      -0.00000461
F        1.49870846       1.05974746       5.23688156      -0.00491776      -0.00348017       0.00000201
F        4.54832207       3.21614943       5.23688234       0.00492201       0.00348045       0.00000228
F        3.78591874       1.05974758       3.91635998       0.00245596      -0.00347644      -0.00425140
F        2.26111216       3.21614961       6.55740462      -0.00245805       0.00347658       0.00426020
F        2.26111194       3.21614970       3.91636086      -0.00245758       0.00347716      -0.00425231
F        3.78591955       1.05974677       6.55740501       0.00245027      -0.00346791       0.00424255
