9
Lattice="6.117509435731652 -1.1371962051937307e-07 3.5319453079125855 2.03916970155845 5.767643341130338 3.5319453133446967 -1.7981312567249247e-08 -6.061787070616459e-09 7.063890646969779" Properties=species:S:1:pos:R:3:forces:R:3 energy=-26.991912841796875 free_energy=-26.991912841796875 stress="4.1277507989434525e-05 6.895707826970465e-08 1.6453801876537e-08 6.895707826970465e-08 4.1385537770111114e-05 -1.4415680871238123e-09 1.6453801876537e-08 -1.4415680871238123e-09 4.134771734243259e-05" pbc="T T T"
Cu       2.03916949       1.44191049       3.53194511      -0.00000094      -0.00000005      -0.00000087
Cu       6.11751033       4.32573334      10.59583651       0.00000265       0.00000180       0.00000278
Mn       0.00000034      -0.00000035      -0.00000017      -0.00000476       0.00000560       0.00000133
Br       1.90680692       1.34831594       7.06389100      -0.00113331      -0.00080122       0.00000021
Br       6.24987181       4.41932715       7.06389048       0.00113684       0.00080217      -0.00000103
Br       5.16410574       1.34831602       5.18328775       0.00056775      -0.00080281      -0.00097815
Br       2.99257286       4.41932718       8.94449332      -0.00056688       0.00079765       0.00097582
Br       2.99257290       4.41932733       5.18328788      -0.00056815       0.00080000      -0.00097695
Br       5.16410611       1.34831578       8.94449316       0.00056661      -0.00080310       0.00097688
