9
Lattice="6.701654009510692 -1.801589650297845e-07 3.8692018883613417 2.233884520459906 6.318380223123298 3.8692018528914915 -1.2388088867148175e-08 -5.2201153536861656e-08 7.738403798179446" Properties=species:S:1:pos:R:3:forces:R:3 energy=-16.518386840820312 free_energy=-16.518386840820312 stress="8.671233081258833e-05 7.831765458377049e-09 3.652675717447096e-09 7.831765458377049e-09 8.669431554153562e-05 -1.1278963540917175e-08 3.652675717447096e-09 -1.1278963540917175e-08 8.668725786264986e-05" pbc="T T T"
Cu       2.23388425       1.57959507       3.86920189      -0.00000134       0.00000117      -0.00000013
Cu       6.70165385       4.73878498      11.60760607      -0.00000028      -0.00000125       0.00000075
Mg      -0.00000017       0.00000039      -0.00000002       0.00000093      -0.00000312      -0.00000066
I        2.34105116       1.65537314       7.73840389      -0.00422896      -0.00299092       0.00000008
I        6.59448728       4.66300640       7.73840387       0.00423102       0.00299180      -0.00000030
I        5.53112839       1.65537359       5.89661184       0.00211503      -0.00298993      -0.00366157
I        3.40441058       4.66300637       9.58019524      -0.00211575       0.00299147       0.00366329
I        3.40441058       4.66300637       5.89661212      -0.00211591       0.00299148      -0.00366330
I        5.53112818       1.65537363       9.58019524       0.00211541      -0.00299072       0.00366180
