9
Lattice="4.518223068495339 4.983117180504211e-08 2.6085973719459723 1.5060744144044456 4.259821504389861 2.6085973524464308 -6.108315248700142e-09 -2.8201147507782695e-08 5.217194754471821" Properties=species:S:1:pos:R:3:forces:R:3 energy=-34.52051544189453 free_energy=-34.52051544189453 stress="0.00021205905068200082 6.385270978626068e-08 -3.402016091058613e-08 6.385270978626068e-08 0.0002120106655638665 2.732437565100554e-08 -3.402016091058613e-08 2.732437565100554e-08 0.00021194999862927943" pbc="T T T"
Cu       1.50607413       1.06495567       2.60859750      -0.00000101       0.00000079       0.00000146
Cu       4.51822323       3.19486591       7.82579231       0.00000042       0.00000021       0.00000223
Mg      -0.00000003      -0.00000001      -0.00000005      -0.00000542       0.00000034       0.00000536
F        1.53023181       1.08203727       5.21719477      -0.00273243      -0.00193007      -0.00000045
F        4.49406559       3.17778383       5.21719453       0.00273761       0.00193495      -0.00000015
F        3.75310742       1.08203724       3.93381669       0.00136508      -0.00193124      -0.00236722
F        2.27119004       3.17778457       6.50057273      -0.00136317       0.00192539       0.00235941
F        2.27119017       3.17778463       3.93381679      -0.00136422       0.00192848      -0.00236231
F        3.75310760       1.08203689       6.50057278       0.00136289      -0.00192865       0.00236182
