9
Lattice="6.666915193285755 7.493151320067798e-08 3.849145186498283 2.2223051629631607 6.285627801250665 3.849145138194124 3.616309845695982e-08 -3.3589030302632504e-08 7.698290310360121" Properties=species:S:1:pos:R:3:forces:R:3 energy=-24.404069900512695 free_energy=-24.404069900512695 stress="0.00018381506379228085 1.2999703535854223e-08 1.5712597889461222e-09 1.2999703535854223e-08 0.00018380768597126007 -4.133697828478944e-09 1.5712597889461222e-09 -4.133697828478944e-09 0.00018380096298642457" pbc="T T T"
Cu       2.22230504       1.57140707       3.84914504      -0.00000062       0.00000068      -0.00000062
Cu       6.66691509       4.71422102      11.54743521      -0.00000076       0.00000043      -0.00000157
Mo       0.00000004       0.00000037       0.00000001       0.00000167      -0.00000292      -0.00000030
I        2.24672179       1.58867218       7.69829032      -0.00544849      -0.00385331       0.00000084
I        6.64249829       4.69695582       7.69829051       0.00544992       0.00385271       0.00000058
I        5.54355460       1.58867156       5.79486303       0.00272354      -0.00385161      -0.00471695
I        3.34566609       4.69695585       9.60171759      -0.00272410       0.00385247       0.00471988
I        3.34566601       4.69695579       5.79486318      -0.00272496       0.00385328      -0.00471979
I        5.54355463       1.58867176       9.60171766       0.00272384      -0.00385176       0.00471787
