9
Lattice="4.876301612494173 -9.571308034040345e-08 2.8153340222946652 1.6254338015811682 4.597420984378742 2.8153339859407938 -1.8053873341665734e-08 -5.729027177372396e-08 5.630668075859581" Properties=species:S:1:pos:R:3:forces:R:3 energy=-40.25876235961914 free_energy=-40.25876235961914 stress="8.095016528386623e-05 -1.1385107079320278e-08 1.397788906842834e-08 -1.1385107079320278e-08 8.094049553619698e-05 -1.110052672004258e-08 1.397788906842834e-08 -1.110052672004258e-08 8.101946150418371e-05" pbc="T T T"
Cu       1.62543360       1.14935480       2.81533381      -0.00000069      -0.00000108      -0.00000004
Cu       4.87630172       3.44806487       8.44600239      -0.00000001      -0.00000148      -0.00000029
Mo       0.00000002       0.00000013      -0.00000012      -0.00000556      -0.00000655       0.00000438
F        1.61792695       1.14404718       5.63066785      -0.00018720      -0.00013071       0.00000021
F        4.88380835       3.45337400       5.63066798       0.00019398       0.00013652       0.00000049
F        4.06733785       1.14404721       4.21650018       0.00009672      -0.00013468      -0.00016621
F        2.43439755       3.45337385       7.04483592      -0.00009529       0.00013396       0.00016424
F        2.43439765       3.45337391       4.21650020      -0.00009698       0.00013739      -0.00016789
F        4.06733776       1.14404743       7.04483620       0.00009495      -0.00013341       0.00016482
