9
Lattice="6.384566993091583 1.8360590038302274e-08 3.6861314646216328 2.128189013679186 6.019427556720338 3.686131466922762 -1.8275458590712471e-09 1.5260526420828934e-09 7.372262932408702" Properties=species:S:1:pos:R:3:forces:R:3 energy=-18.787517547607422 free_energy=-18.787517547607422 stress="-0.000204242707695812 -6.52515153021227e-09 3.5702103495793835e-09 -6.52515153021227e-09 -0.00020426791161298752 4.3380294911798956e-09 3.5702103495793835e-09 4.3380294911798956e-09 -0.00020423633395694196" pbc="T T T"
Cu       2.12818924       1.50485692       3.68613125       0.00000112       0.00000026      -0.00000088
Cu       6.38456702       4.51457077      11.05839487      -0.00000029      -0.00000010       0.00000088
Ni      -0.00000012       0.00000012       0.00000010      -0.00000009      -0.00000095      -0.00000046
I        2.16428991       1.53038418       7.37226287      -0.00458160      -0.00324021      -0.00000016
I        6.34846598       4.48904355       7.37226250       0.00458208       0.00323923       0.00000017
I        5.30242196       1.53038388       5.56046156       0.00229032      -0.00323956      -0.00396749
I        3.21033411       4.48904341       9.18406430      -0.00229122       0.00324069       0.00396879
I        3.21033419       4.48904358       5.56046154      -0.00229060       0.00323984      -0.00396881
I        5.30242173       1.53038386       9.18406441       0.00229020      -0.00323920       0.00396779
