9
Lattice="5.58020735706827 -6.915678004937159e-08 3.221734301297573 1.860069068061769 5.261069805783106 3.2217342766320827 -9.612411282075405e-09 -3.700594279183855e-08 6.443468619244403" Properties=species:S:1:pos:R:3:forces:R:3 energy=-24.192562103271484 free_energy=-24.192562103271484 stress="1.727592825773172e-05 1.028211560338832e-08 7.918433020392968e-09 1.028211560338832e-08 1.725499350868631e-05 4.079187210237478e-09 7.918433020392968e-09 4.079187210237478e-09 1.7287251466768794e-05" pbc="T T T"
Cu       1.86006971       1.31526775       3.22173404       0.00000315       0.00000153      -0.00000058
Cu       5.58020766       3.94580164       9.66520382       0.00000120      -0.00000153       0.00000584
Ni      -0.00000015      -0.00000101      -0.00000038       0.00000036       0.00001264       0.00000343
Cl       1.85207974       1.30961831       6.44346841      -0.00688371      -0.00486463       0.00000135
Cl       5.58819685       3.95145228       6.44346827       0.00687432       0.00486058      -0.00000162
Cl       4.65416700       1.30961856       4.82568266       0.00344265      -0.00486743      -0.00596327
Cl       2.78610878       3.95145217       8.06125556      -0.00343804       0.00485948       0.00594977
Cl       2.78610881       3.95145137       4.82568183      -0.00343914       0.00486287      -0.00595459
Cl       4.65416726       1.30961766       8.06125463       0.00343925      -0.00486383       0.00595945
