9
Lattice="6.320244259725768 1.565054607452474e-08 3.6489946545320517 2.106748098365751 5.958783504718361 3.6489946596675695 1.3831031008704086e-08 1.606967773315312e-08 7.297989285108086" Properties=species:S:1:pos:R:3:forces:R:3 energy=-29.288789749145508 free_energy=-29.288789749145508 stress="9.814547229325399e-05 1.9682943275256548e-08 6.930452656206398e-09 1.9682943275256548e-08 9.813163342187181e-05 -8.79729178393518e-09 6.930452656206398e-09 -8.79729178393518e-09 9.810334449866787e-05" pbc="T T T"
Cu       2.10674779       1.48969517       3.64899480       0.00000028      -0.00000200      -0.00000004
Cu       6.32024404       4.46908780      10.94698396      -0.00000144      -0.00000084       0.00000055
Nb       0.00000013       0.00000005      -0.00000038      -0.00000018      -0.00000234       0.00000417
Br       2.07121679       1.46457141       7.29798930      -0.00121869      -0.00086213       0.00000029
Br       6.35577541       4.49421225       7.29798937       0.00122138       0.00086372       0.00000045
Br       5.28463589       1.46457140       5.44272062       0.00060929      -0.00086153      -0.00105453
Br       3.14235651       4.49421256       9.15325799      -0.00060784       0.00086038       0.00105301
Br       3.14235672       4.49421237       5.44272078      -0.00061028       0.00086419      -0.00105667
Br       5.28463625       1.46457116       9.15325798       0.00060761      -0.00085952       0.00105288
