9
Lattice="6.823368492215366 -1.414513869445449e-07 3.9394737588312863 2.2744560075588867 6.4331336700405295 3.9394737989304636 -9.922863348675065e-08 -2.1053995260263366e-08 7.8789476895316914" Properties=species:S:1:pos:R:3:forces:R:3 energy=-25.430957794189453 free_energy=-25.430957794189453 stress="8.919740503188223e-05 -1.8144982405488008e-08 -1.949631123210338e-09 -1.8144982405488008e-08 8.920521941035986e-05 3.2400488958472806e-09 -1.949631123210338e-09 3.2400488958472806e-09 8.92331445356831e-05" pbc="T T T"
Cu       2.27445588       1.60828275       3.93947401      -0.00000027      -0.00000101       0.00000081
Cu       6.82336836       4.82485052      11.81842205      -0.00000011       0.00000002       0.00000178
Nb      -0.00000020       0.00000001       0.00000027       0.00000010       0.00000031      -0.00000347
I        2.25440747       1.59410712       7.87894745      -0.00120817      -0.00085445      -0.00000036
I        6.84341634       4.83902649       7.87894738       0.00120909       0.00085504      -0.00000101
I        5.69616457       1.59410725       5.89184880       0.00060468      -0.00085530      -0.00104787
I        3.40166020       4.83902635       9.86604615      -0.00060656       0.00085702       0.00104931
I        3.40166051       4.83902628       5.89184863      -0.00060450       0.00085562      -0.00104829
I        5.69616446       1.59410728       9.86604617       0.00060579      -0.00085726       0.00104904
