9
Lattice="5.89832565765121 -8.109088311885206e-08 3.405399819636199 1.9661084975291174 5.560994438918025 3.405399782514997 -1.0075485808755701e-07 -1.1670844695400943e-07 6.810799813784968" Properties=species:S:1:pos:R:3:forces:R:3 energy=-33.15272521972656 free_energy=-33.15272521972656 stress="0.00015073345275595784 -1.564512785989791e-08 1.0967014851814838e-08 -1.564512785989791e-08 0.00015077299030963331 -2.537272969505011e-08 1.0967014851814838e-08 -2.537272969505011e-08 0.00015078413707669824" pbc="T T T"
Cu       1.96610885       1.39024949       3.40540045       0.00000132       0.00000221       0.00000221
Cu       5.89832568       4.17074455      10.21620006       0.00000003      -0.00000391       0.00000195
Nb      -0.00000020      -0.00000036      -0.00000031       0.00000363       0.00000378      -0.00000079
Cl       1.94355274       1.37429886       6.81079956      -0.00183326      -0.00129589      -0.00000080
Cl       5.92088121       4.18669540       6.81079969       0.00182900       0.00129360      -0.00000018
Cl       4.92654938       1.37429945       5.08856547       0.00091612      -0.00129419      -0.00158790
Cl       2.93788457       4.18669515       8.53303367      -0.00091667       0.00129470       0.00158650
Cl       2.93788455       4.18669532       5.08856559      -0.00091819       0.00129566      -0.00158940
Cl       4.92654941       1.37429910       8.53303340       0.00091812      -0.00129585       0.00158840
