9
Lattice="6.823630660754525 -5.201163469780816e-08 3.939625161193257 2.2745434999600294 6.433380846856177 3.9396251691395663 -2.4987866465103636e-08 -7.93691212063241e-09 7.8792503656667625" Properties=species:S:1:pos:R:3:forces:R:3 energy=-25.430950164794922 free_energy=-25.430950164794922 stress="0.00010336175910197198 -2.0129499844756538e-08 4.7633812449987545e-09 -2.0129499844756538e-08 0.00010336750710848719 -6.065311364267245e-09 4.7633812449987545e-09 -6.065311364267245e-09 0.00010340300650568679" pbc="T T T"
Cu       2.27454407       1.60834561       3.93962515       0.00000088       0.00000074      -0.00000004
Cu       6.82363072       4.82503567      11.81887487       0.00000045       0.00000029      -0.00000108
Nb       0.00000030      -0.00000060       0.00000004      -0.00000349       0.00000522      -0.00000063
I        2.25444931       1.59413627       7.87925029      -0.00150003      -0.00106045      -0.00000009
I        6.84372477       4.83924462       7.87925049       0.00149830       0.00105990       0.00000022
I        5.69640566       1.59413636       5.89203627       0.00075190      -0.00106306      -0.00130239
I        3.40176804       4.83924405       9.86646519      -0.00075009       0.00106057       0.00129950
I        3.40176794       4.83924447       5.89203592      -0.00075058       0.00106036      -0.00129928
I        5.69640567       1.59413671       9.86646461       0.00075267      -0.00106355       0.00130365
