9
Lattice="5.9203904917626335 -1.0026517590732642e-07 3.4181389474863533 1.9734634348534061 5.581797622668086 3.4181388918353184 -5.2247058045416884e-08 -1.0510254172818775e-07 6.836277985467193" Properties=species:S:1:pos:R:3:forces:R:3 energy=-21.620296478271484 free_energy=-21.620296478271484 stress="-3.0357854484464042e-05 2.5562862049355317e-08 -6.93332191659124e-09 2.5562862049355317e-08 -3.0346845960593782e-05 2.975807822380716e-09 -6.93332191659124e-09 2.975807822380716e-09 -3.02997104881797e-05" pbc="T T T"
Cu       1.97346305       1.39544930       3.41813941      -0.00000162      -0.00000064       0.00000346
Cu       5.92039100       4.18634815      10.25441653       0.00000282       0.00000022      -0.00000301
Ni       0.00000005      -0.00000011      -0.00000064      -0.00000167      -0.00000006       0.00000466
Br       1.94960998       1.37858223       6.83627761      -0.00079513      -0.00056222      -0.00000174
Br       5.94424384       4.20321516       6.83627835       0.00079516       0.00056124       0.00000181
Br       4.94558542       1.37858227       5.10655109       0.00039899      -0.00056094      -0.00069100
Br       2.94826823       4.20321522       8.56600510      -0.00039759       0.00056088       0.00068709
Br       2.94826819       4.20321525       5.10655096      -0.00039847       0.00056258      -0.00068942
Br       4.94558570       1.37858209       8.56600491       0.00039755      -0.00056103       0.00068730
