9
Lattice="4.484566802903956 -2.1075184063895026e-07 2.5891659416846426 1.4948554919999903 4.228090002745339 2.5891657862663666 5.538946243839831e-08 -1.5118146395511353e-07 5.178331787431897" Properties=species:S:1:pos:R:3:forces:R:3 energy=-32.403968811035156 free_energy=-32.403968811035156 stress="0.0001841928024077788 -1.9673257156682666e-07 3.247421886953816e-08 -1.9673257156682666e-07 0.00018436215759720653 2.357528572360934e-08 3.247421886953816e-08 2.357528572360934e-08 0.00018458695558365434" pbc="T T T"
Cu       1.49485599       1.05702232       2.58916612      -0.00000139       0.00000002       0.00000168
Cu       4.48456676       3.17106755       7.76749756       0.00000288       0.00000098       0.00000118
Ni      -0.00000087      -0.00000067       0.00000048       0.00003101       0.00002627      -0.00001894
F        1.47936252       1.04606752       5.17833205      -0.00584948      -0.00413769      -0.00000159
F        4.50006077       3.18202274       5.17833132       0.00581592       0.00411427       0.00000077
F        3.74488531       1.04606723       3.87033234       0.00291848      -0.00413312      -0.00506386
F        2.23453660       3.18202191       6.48633101      -0.00292222       0.00413762       0.00507034
F        2.23453691       3.18202251       3.87033204      -0.00292028       0.00412974      -0.00506143
F        3.74488537       1.04606727       6.48633103       0.00292509      -0.00413804       0.00507157
