9
Lattice="5.081005270958145 -2.8516230929486224e-08 2.9335200766130622 1.6936682798065534 4.790418045550863 2.9335202791950854 -9.22663797340834e-08 1.8286918347700263e-07 5.867040313036219" Properties=species:S:1:pos:R:3:forces:R:3 energy=-46.08198928833008 free_energy=-46.08198928833008 stress="2.3604494344908744e-05 1.0796201621587898e-07 -1.4842931328473696e-08 1.0796201621587898e-07 2.3526516088168137e-05 2.3688889072559505e-08 -1.4842931328473696e-08 2.3688889072559505e-08 2.345287794014439e-05" pbc="T T T"
Cu       1.69366813       1.19760454       2.93352104      -0.00000010      -0.00000040       0.00000102
Cu       5.08100441       3.59281438       8.80056171      -0.00000079       0.00000117       0.00000216
Nb      -0.00000003      -0.00000025       0.00000025      -0.00000126      -0.00000111      -0.00000366
F        1.60832539       1.13725817       5.86704034      -0.00005567      -0.00003922       0.00000003
F        5.16634808       3.65315962       5.86704044       0.00005791       0.00004014      -0.00000013
F        4.27684224       1.13725799       4.32637004       0.00002453      -0.00003472      -0.00004238
F        2.49783083       3.65316143       7.40770883      -0.00002494       0.00003481       0.00004360
F        2.49783180       3.65316001       4.32637041      -0.00002335       0.00003344      -0.00004169
F        4.27684259       1.13725665       7.40770901       0.00002362      -0.00003409       0.00004101
