9
Lattice="5.580671863596572 5.7052077805273086e-08 3.2220023543353125 1.8602239391876896 5.261507741850597 3.222002474078332 -1.2723215463843092e-08 1.3765800982551686e-07 6.44400473070783" Properties=species:S:1:pos:R:3:forces:R:3 energy=-24.19258689880371 free_energy=-24.19258689880371 stress="-5.938191861787345e-06 -6.5310405972240915e-09 1.9325957723026477e-08 -6.5310405972240915e-09 -5.993398190184962e-06 1.871649324414193e-08 1.9325957723026477e-08 1.871649324414193e-08 -5.9558410612226e-06" pbc="T T T"
Cu       1.86022387       1.31537684       3.22200215       0.00000077      -0.00000006      -0.00000293
Cu       5.58067240       3.94613052       9.66600760       0.00000162      -0.00000212       0.00000464
Ni      -0.00000022      -0.00000016      -0.00000027       0.00000245       0.00000364       0.00000349
Cl       1.85147401       1.30919029       6.44400543      -0.00000447      -0.00000218      -0.00000112
Cl       5.58942184       3.95231815       6.44400416       0.00000039      -0.00000158      -0.00000007
Cl       4.65493490       1.30919017       4.82542578       0.00000058      -0.00000215      -0.00000238
Cl       2.78596088       3.95231817       8.06258355      -0.00000152       0.00000072       0.00000042
Cl       2.78596084       3.95231787       4.82542605      -0.00000210       0.00000340      -0.00000218
Cl       4.65493461       1.30918995       8.06258371       0.00000252       0.00000051      -0.00000036
