9
Lattice="5.917877582816812 4.7189654755908266e-08 3.416688189232252 1.972625940644234 5.579428475281599 3.4166881282390325 3.7217075528067175e-08 -4.838467220026675e-08 6.833376314002677" Properties=species:S:1:pos:R:3:forces:R:3 energy=-21.6202335357666 free_energy=-21.6202335357666 stress="-0.0003184550441801548 -4.2905843322671444e-09 1.759798529121781e-08 -4.2905843322671444e-09 -0.00031848426442593336 1.3027331213777416e-08 1.759798529121781e-08 1.3027331213777416e-08 -0.00031842454336583614" pbc="T T T"
Cu       1.97262622       1.39485721       3.41668833       0.00000301       0.00000104       0.00000078
Cu       5.91787791       4.18457077      10.25006511      -0.00000065      -0.00000295       0.00000261
Ni      -0.00000002       0.00000030      -0.00000101      -0.00000244      -0.00000579       0.00001235
Br       1.94950407       1.37850759       6.83337615      -0.00311741      -0.00220361       0.00000022
Br       5.94099894       4.20092104       6.83337592       0.00312108       0.00220710       0.00000092
Br       4.94312537       1.37850820       5.10500831       0.00156114      -0.00220731      -0.00270495
Br       2.94737751       4.20092104       8.56174457      -0.00155860       0.00220266       0.00269780
Br       2.94737837       4.20092041       5.10500837      -0.00156312       0.00220954      -0.00270569
Br       4.94312586       1.37850737       8.56174483       0.00155716      -0.00220072       0.00269616
