9
Lattice="6.3869036216972095 -3.638911274077594e-08 3.687480429759306 2.128967847402034 6.021630491157635 3.6874804162302843 -2.7636215705716342e-08 -3.611125806710284e-08 7.374960907385784" Properties=species:S:1:pos:R:3:forces:R:3 energy=-18.787567138671875 free_energy=-18.787567138671875 stress="-1.302325472352095e-05 -6.019342357888036e-09 -3.075784293926631e-09 -6.019342357888036e-09 -1.3015563126828056e-05 -5.566430871795092e-09 -3.075784293926631e-09 -5.566430871795092e-09 -1.3015625881962478e-05" pbc="T T T"
Cu       2.12896848       1.50540765       3.68748035       0.00000266       0.00000092      -0.00000028
Cu       6.38690336       4.51622245      11.06244174      -0.00000177      -0.00000090       0.00000165
Ni       0.00000000       0.00000007      -0.00000003       0.00000014      -0.00000048       0.00000013
I        2.16447091       1.53051209       7.37496077      -0.00080758      -0.00057147       0.00000004
I        6.35140049       4.49111840       7.37496065       0.00080857       0.00057140      -0.00000052
I        5.30466802       1.53051231       5.56196701       0.00040337      -0.00057085      -0.00070041
I        3.21120324       4.49111809       9.18795469      -0.00040397       0.00057073       0.00070032
I        3.21120350       4.49111858       5.56196720      -0.00040441       0.00057171      -0.00070094
I        5.30466777       1.53051208       9.18795459       0.00040308      -0.00057104       0.00069998
