9
Lattice="4.484780590089687 5.2605635963355076e-08 2.5892892276207196 1.494926906117182 4.2282916848485 2.5892892394733633 7.320462938871101e-09 1.969280311555023e-08 5.178578442561987" Properties=species:S:1:pos:R:3:forces:R:3 energy=-32.40397644042969 free_energy=-32.40397644042969 stress="0.00013335223775357008 1.3861850334251358e-07 -5.8898335097978816e-09 1.3861850334251358e-07 0.00013328911154530942 1.1334283733788197e-08 -5.8898335097978816e-09 1.1334283733788197e-08 0.00013317893899511546" pbc="T T T"
Cu       1.49492641       1.05707340       2.58928907      -0.00000146       0.00000211      -0.00000045
Cu       4.48478069       3.17121921       7.76786800       0.00000017       0.00000192       0.00000191
Ni       0.00000014      -0.00000011      -0.00000013      -0.00000656       0.00000392       0.00000409
F        1.47913397       1.04590581       5.17857862      -0.00075562      -0.00053360      -0.00000005
F        4.50057369       3.18238568       5.17857844       0.00075753       0.00053355      -0.00000043
F        3.74521404       1.04590529       3.87025628       0.00037272      -0.00052907      -0.00064956
F        2.23449364       3.18238638       6.48690062      -0.00037064       0.00052579       0.00064293
F        2.23449355       3.18238637       3.87025611      -0.00037160       0.00052518      -0.00064451
F        3.74521391       1.04590503       6.48690051       0.00037564      -0.00052977       0.00064610
