9
Lattice="5.8983005289930075 -3.080866170365928e-07 3.4053854936499763 1.96610002417066 5.5609711801411805 3.40538525409614 1.540532694409891e-07 -1.8446026343664133e-07 6.810770720471845" Properties=species:S:1:pos:R:3:forces:R:3 energy=-33.15272521972656 free_energy=-33.15272521972656 stress="0.00014660308079328388 -1.601611399060232e-09 4.020324695375166e-08 -1.601611399060232e-09 0.00014662605826742947 -2.0903220487866747e-08 4.020324695375166e-08 -2.0903220487866747e-08 0.00014654890401288867" pbc="T T T"
Cu       1.96609965       1.39024175       3.40538603      -0.00000056      -0.00000223       0.00000149
Cu       5.89830101       4.17072877      10.21615630       0.00000051       0.00000084       0.00000034
Nb       0.00000021       0.00000000       0.00000076      -0.00000222      -0.00000182      -0.00001615
Cl       1.94354385       1.37429342       6.81077093      -0.00171702      -0.00121350      -0.00000271
Cl       5.92085655       4.18667763       6.81077111       0.00171942       0.00121692      -0.00000078
Cl       4.92652854       1.37429265       5.08854352       0.00085397      -0.00121009      -0.00148176
Cl       2.93787224       4.18667759       8.53299761      -0.00086176       0.00122064       0.00148991
Cl       2.93787246       4.18667783       5.08854338      -0.00085688       0.00121256      -0.00148398
Cl       4.92652829       1.37429307       8.53299623       0.00086451      -0.00122328       0.00149360
