9
Lattice="5.789810287178241 -8.768884540415434e-08 3.3427486204949814 1.9299367086979407 5.458685476320007 3.3427485703017954 9.128816378470646e-08 3.076617637055324e-09 6.685497082874282" Properties=species:S:1:pos:R:3:forces:R:3 energy=-29.97779655456543 free_energy=-29.97779655456543 stress="0.00012746246648021042 6.580779920994928e-09 1.2881514521723147e-08 6.580779920994928e-09 0.0001275206741411239 -2.653673725205863e-08 1.2881514521723147e-08 -2.653673725205863e-08 0.00012752982729580253" pbc="T T T"
Cu       1.92993602       1.36467228       3.34274890      -0.00000292       0.00000256       0.00000064
Cu       5.78981110       4.09401365      10.02824691       0.00000355      -0.00000114       0.00000373
Os       0.00000016      -0.00000021      -0.00000024      -0.00000114       0.00000133      -0.00000098
Cl       1.89090224       1.33706981       6.68549707      -0.00083268      -0.00058794      -0.00000094
Cl       5.82884446       4.12161565       6.68549699       0.00083250       0.00058699      -0.00000157
Cl       4.84435941       1.33706966       4.98031770       0.00041702      -0.00058681      -0.00072104
Cl       2.87538777       4.12161541       8.39067619      -0.00041759       0.00058731       0.00072047
Cl       2.87538802       4.12161564       4.98031803      -0.00041750       0.00058860      -0.00072232
Cl       4.84435923       1.33706968       8.39067562       0.00041905      -0.00059077       0.00072208
