9
Lattice="6.170659238644535 -2.9852962310940326e-08 3.562631848539504 2.0568863763436096 5.817753325168931 3.5626318630752984 -1.1473954867661097e-08 9.689367120693268e-09 7.125263716952447" Properties=species:S:1:pos:R:3:forces:R:3 energy=-26.470766067504883 free_energy=-26.470766067504883 stress="0.00020003312965855002 -2.9641847310024616e-10 -3.7372727135220885e-09 -2.9641847310024616e-10 0.00020003666577395052 6.6002288079403115e-09 -3.7372727135220885e-09 6.6002288079403115e-09 0.0002000184904318303" pbc="T T T"
Cu       2.05688655       1.45443874       3.56263193       0.00000102       0.00000178      -0.00000036
Cu       6.17065907       4.36331464      10.68789506      -0.00000052      -0.00000211      -0.00000236
Os      -0.00000021      -0.00000016      -0.00000000       0.00000146       0.00000014       0.00000135
Br       2.02034497       1.42859967       7.12526366      -0.00162518      -0.00114895      -0.00000001
Br       6.20720059       4.38915374       7.12526382       0.00162381       0.00114837       0.00000109
Br       5.16048669       1.42859983       5.31230213       0.00081225      -0.00114909      -0.00140744
Br       3.06705913       4.38915350       8.93822546      -0.00081182       0.00114822       0.00140819
Br       3.06705884       4.38915335       5.31230223      -0.00081293       0.00114852      -0.00140736
Br       5.16048679       1.42859987       8.93822544       0.00081186      -0.00114700       0.00140691
