9
Lattice="6.532351370173662 -1.1703230641681588e-08 3.771454830999554 2.177450460808941 6.158759923795731 3.7714548048139283 2.628486747866573e-08 -1.3484538111808683e-08 7.542909616472343" Properties=species:S:1:pos:R:3:forces:R:3 energy=-23.383543014526367 free_energy=-23.383543014526367 stress="-2.582725210231729e-05 -1.866454368837367e-08 6.380667105787552e-09 -1.866454368837367e-08 -2.5823244868661277e-05 -9.564454117594323e-09 6.380667105787552e-09 -9.564454117594323e-09 -2.581348417152185e-05" pbc="T T T"
Cu       2.17745034       1.53969004       3.77145479       0.00000046      -0.00000014      -0.00000011
Cu       6.53235125       4.61906983      11.31436431      -0.00000130       0.00000028      -0.00000003
Os      -0.00000013       0.00000014      -0.00000013       0.00000089      -0.00000121       0.00000086
I        2.19454731       1.55177934       7.54290964      -0.00362310      -0.00256230       0.00000007
I        6.51525456       4.60698067       7.54290979       0.00362280       0.00256141       0.00000036
I        5.43507768       1.55177932       5.67198858       0.00181196      -0.00256261      -0.00313765
I        3.27472423       4.60698046       9.41383061      -0.00181114       0.00256231       0.00313938
I        3.27472441       4.60698033       5.67198878      -0.00181214       0.00256406      -0.00314026
I        5.43507779       1.55177943       9.41383069       0.00181159      -0.00256187       0.00313739
