9
Lattice="4.812058984030494 3.5843590425338636e-09 2.7782434419476187 1.604019731473931 4.536852229852285 2.7782433263313853 9.219293713717294e-08 -7.641013731276997e-08 5.5564867242123555" Properties=species:S:1:pos:R:3:forces:R:3 energy=-40.3140983581543 free_energy=-40.3140983581543 stress="-2.560199391155038e-05 3.1420302804008315e-08 -1.8948242086480604e-08 3.1420302804008315e-08 -2.561893779784441e-05 5.975268280167256e-09 -1.8948242086480604e-08 5.975268280167256e-09 -2.566250077506993e-05" pbc="T T T"
Cu       1.60401936       1.13421302       2.77824321      -0.00000098      -0.00000016      -0.00000043
Cu       4.81205905       3.40263900       8.33473007      -0.00000060      -0.00000138       0.00000010
Os       0.00000007      -0.00000000      -0.00000030       0.00000183      -0.00000458       0.00001084
F        1.58719502       1.12231634       5.55648703       0.00106722       0.00075463      -0.00000009
F        4.82888386       3.41453579       5.55648681      -0.00106472      -0.00075329      -0.00000099
F        4.01846151       1.12231610       4.15279453      -0.00053418       0.00075517       0.00092473
F        2.39761757       3.41453591       6.96017892       0.00053460      -0.00075526      -0.00092616
F        2.39761738       3.41453611       4.15279428       0.00053293      -0.00075375       0.00092221
F        4.01846151       1.12231624       6.96017918      -0.00053607       0.00075860      -0.00093014
