9
Lattice="6.5591534515064085 3.620843293823607e-08 3.786928984531371 2.1863844890139754 6.184029236342023 3.786929034690072 -1.1793319548164146e-08 5.309247958186673e-08 7.573857989489246" Properties=species:S:1:pos:R:3:forces:R:3 energy=-17.91026496887207 free_energy=-17.91026496887207 stress="6.299607048276812e-05 -6.743435809752896e-10 -7.80495668095682e-09 -6.743435809752896e-10 6.298371590673923e-05 3.8479028852123065e-09 -7.80495668095682e-09 3.8479028852123065e-09 6.298711377894506e-05" pbc="T T T"
Cu       2.18638478       1.54600700       3.78692943       0.00000115      -0.00000094       0.00000083
Cu       6.55915344       4.63802262      11.36078721      -0.00000017       0.00000122       0.00000061
P        0.00000001      -0.00000004      -0.00000006      -0.00000015      -0.00000021      -0.00000031
I        2.24478862       1.58730497       7.57385798      -0.00120351      -0.00085150      -0.00000019
I        6.50074927       4.59672431       7.57385807       0.00120389       0.00085169      -0.00000007
I        5.43675890       1.58730515       5.73097270       0.00060195      -0.00085129      -0.00104219
I        3.30877863       4.59672431       9.41674312      -0.00060274       0.00085093       0.00104223
I        3.30877877       4.59672400       5.73097268      -0.00060184       0.00085153      -0.00104247
I        5.43675929       1.58730496       9.41674290       0.00060134      -0.00085147       0.00104159
