9
Lattice="6.470694534704137 2.53956311443233e-08 3.7358572338461777 2.1568981989401608 6.10062927302926 3.735857239454171 2.2873407050980488e-08 2.304230338530491e-08 7.471714428074435" Properties=species:S:1:pos:R:3:forces:R:3 energy=-18.915443420410156 free_energy=-18.915443420410156 stress="-0.00016856592264957726 3.309099660953052e-09 2.396522702508008e-10 3.309099660953052e-09 -0.00016857680748216808 7.299147952721796e-09 2.396522702508008e-10 7.299147952721796e-09 -0.00016857705486472696" pbc="T T T"
Cu       2.15689811       1.52515697       3.73585704      -0.00000083      -0.00000105      -0.00000088
Cu       6.47069489       4.57547169      11.20757156       0.00000144      -0.00000060       0.00000053
Pd      -0.00000028      -0.00000052      -0.00000003       0.00000332       0.00000465      -0.00000179
I        2.20759405       1.56100509       7.47171443      -0.00120658      -0.00085212       0.00000001
I        6.41999886       4.53962486       7.47171438       0.00120094       0.00084976      -0.00000026
I        5.36689774       1.56100470       5.64768988       0.00060217      -0.00085033      -0.00104243
I        3.26069510       4.53962478       9.29573925      -0.00060226       0.00085121       0.00104220
I        3.26069496       4.53962497       5.64768971      -0.00060080       0.00085012      -0.00104052
I        5.36689764       1.56100476       9.29573939       0.00060251      -0.00085163       0.00104317
