9
Lattice="4.77590715474398 1.8190233667922723e-07 2.757370992331904 1.5919692380063748 4.502768088270726 2.7573709664793804 3.604190374447743e-08 -6.177250727859999e-09 5.514741922237431" Properties=species:S:1:pos:R:3:forces:R:3 energy=-33.87096405029297 free_energy=-33.87096405029297 stress="6.33940871921368e-05 1.2993685061246651e-07 1.0256463234270541e-08 1.2993685061246651e-07 6.33257077424787e-05 -2.009181976347918e-08 1.0256463234270541e-08 -2.009181976347918e-08 6.321736873360351e-05" pbc="T T T"
Cu       1.59197003       1.12569208       2.75737065       0.00000349      -0.00000051      -0.00000029
Cu       4.77590761       3.37707646       8.27211376       0.00000170      -0.00000030       0.00000312
Pt      -0.00000009       0.00000005       0.00000025       0.00001311      -0.00000758      -0.00001702
F        1.59795692       1.12992635       5.51474156      -0.00021687      -0.00015432       0.00000239
F        4.76991870       3.37284243       5.51474121       0.00021169       0.00015110      -0.00000046
F        3.97692865       1.12992590       4.14124222       0.00009966      -0.00014061      -0.00017224
F        2.39094724       3.37284176       6.88824162      -0.00010869       0.00015084       0.00018647
F        2.39094764       3.37284176       4.14124241      -0.00010495       0.00014831      -0.00018172
F        3.97692879       1.12992619       6.88824233       0.00010073      -0.00014688       0.00017971
