9
Lattice="6.066482361356297 -1.436094143279978e-08 3.5024852274910736 2.022160771666438 5.719534468860365 3.502485230803958 7.239255978800448e-10 4.569329410915161e-09 7.004970453728271" Properties=species:S:1:pos:R:3:forces:R:3 energy=-21.40377426147461 free_energy=-21.40377426147461 stress="0.0001274512178497389 -6.780483285950822e-09 -6.816807562870508e-09 -6.780483285950822e-09 0.00012747044092975557 4.183164925564142e-09 -6.816807562870508e-09 4.183164925564142e-09 0.00012745965796057135" pbc="T T T"
Cu       2.02216105       1.42988389       3.50248511       0.00000029       0.00000036      -0.00000052
Cu       6.06648209       4.28965066      10.50745568      -0.00000132      -0.00000119      -0.00000041
Pd       0.00000008      -0.00000020      -0.00000038      -0.00000068       0.00000120       0.00000753
Br       2.03352322       1.43791801       7.00497053      -0.00761834      -0.00538711       0.00000013
Br       6.05511974       4.28161639       7.00497046       0.00761926       0.00538715      -0.00000020
Br       5.04972066       1.43791829       5.26356833       0.00381082      -0.00538896      -0.00660108
Br       3.03892245       4.28161632       8.74637280      -0.00380833       0.00538585       0.00659770
Br       3.03892264       4.28161639       5.26356826      -0.00381023       0.00538829      -0.00660045
Br       5.04972059       1.43791810       8.74637283       0.00380863      -0.00538561       0.00659728
