9
Lattice="6.076310258633114 2.5360506372472818e-08 3.508159524411442 2.02543694006306 5.728800093443666 3.508159241610494 3.7813223990911684e-07 -7.897921312323298e-08 7.016318393878561" Properties=species:S:1:pos:R:3:forces:R:3 energy=-20.817174911499023 free_energy=-20.817174911499023 stress="0.0002505617158021778 -1.5982728029939608e-08 8.891021252566134e-09 -1.5982728029939608e-08 0.0002505372976884246 8.456964906145004e-09 8.891021252566134e-09 8.456964906145004e-09 0.00025051942793652415" pbc="T T T"
Cu       2.02543888       1.43219985       3.50815818       0.00000644      -0.00000057      -0.00000461
Cu       6.07630995       4.29660044      10.52447653      -0.00000226       0.00000058      -0.00000266
P        0.00000030       0.00000018       0.00000012      -0.00000040       0.00000099       0.00000193
Br       1.98229230       1.40169198       7.01631910      -0.00181520      -0.00128540       0.00000089
Br       6.11945387       4.32710773       7.01631880       0.00181726       0.00128609       0.00000151
Br       5.08516433       1.40169188       5.22487427       0.00090604      -0.00128552      -0.00157151
Br       3.01658326       4.32710800       8.80776327      -0.00090817       0.00128414       0.00157435
Br       3.01658343       4.32710759       5.22487509      -0.00091031       0.00128464      -0.00157395
Br       5.08516402       1.40169252       8.80776324       0.00090650      -0.00128493       0.00157425
