9
Lattice="4.732412807698015 -8.100000616874317e-08 2.732259905485214 1.5774708958846717 4.46176153831347 2.732259842520172 3.551495762799885e-08 -5.200321094685319e-08 5.464519749456676" Properties=species:S:1:pos:R:3:forces:R:3 energy=-32.92390060424805 free_energy=-32.92390060424805 stress="0.0002517563116271049 -8.562184206084567e-08 1.2561974926939e-07 -8.562184206084567e-08 0.0002518069522920996 -1.4377440038515488e-07 1.2561974926939e-07 -1.4377440038515488e-07 0.00025188279687426984" pbc="T T T"
Cu       1.57747104       1.11543971       2.73226020       0.00000096      -0.00000170       0.00000097
Cu       4.73241295       3.34632117       8.19677948      -0.00000026      -0.00000073      -0.00000074
Pd      -0.00000023       0.00000034      -0.00000003       0.00000461      -0.00000082       0.00000032
F        1.59169519       1.12549855       5.46451991      -0.00316721      -0.00223847      -0.00000032
F        4.71818865       3.33626285       5.46451950       0.00316232       0.00223789       0.00000085
F        3.93656497       1.12549864       4.11070843       0.00158142      -0.00223820      -0.00274150
F        2.37331877       3.33626311       6.81833108      -0.00158092       0.00223894       0.00274040
F        2.37331862       3.33626261       4.11070854      -0.00158899       0.00224722      -0.00274953
F        3.93656493       1.12549876       6.81833087       0.00158817      -0.00224430       0.00274960
