9
Lattice="5.77484980708215 -1.6473533308892934e-07 3.3341109488245566 1.9249497882674123 5.444580631132732 3.334110935163256 2.302780446930728e-08 -4.4849419054600974e-10 6.66822185776381" Properties=species:S:1:pos:R:3:forces:R:3 energy=-25.272193908691406 free_energy=-25.272193908691406 stress="0.0002541865105740726 -2.4301037626628386e-08 -6.39238550981247e-10 -2.4301037626628386e-08 0.0002542082220315933 -5.826644944306736e-09 -6.39238550981247e-10 -5.826644944306736e-09 0.00025426014326512814" pbc="T T T"
Cu       1.92494974       1.36114522       3.33411092      -0.00000061       0.00000017       0.00000008
Cu       5.77484982       4.08343538      10.00233301       0.00000097       0.00000154       0.00000001
Pt       0.00000016       0.00000008      -0.00000006      -0.00000206      -0.00000281       0.00000107
Cl       1.89371006       1.33905552       6.66822171      -0.00426531      -0.00301501      -0.00000016
Cl       5.80608938       4.10552495       6.66822151       0.00426701       0.00301601       0.00000074
Cl       4.82799451       1.33905523       4.97411252       0.00213385      -0.00301905      -0.00369622
Cl       2.87180545       4.10552501       8.36233147      -0.00213333       0.00301866       0.00369668
Cl       2.87180519       4.10552525       4.97411236      -0.00213517       0.00301921      -0.00369844
Cl       4.82799418       1.33905517       8.36233148       0.00213451      -0.00301850       0.00369635
