9
Lattice="6.073258958633956 1.4931518964226357e-08 3.506397659534635 2.0244196590641574 5.72592351962128 3.5063976732029554 1.2883483395847752e-08 2.5850198068581247e-08 7.012795296754378" Properties=species:S:1:pos:R:3:forces:R:3 energy=-22.550813674926758 free_energy=-22.550813674926758 stress="0.00019789331417996436 -3.217179855852237e-09 -9.763246211491605e-09 -3.217179855852237e-09 0.00019787716155406088 -6.645509031955044e-09 -9.763246211491605e-09 -6.645509031955044e-09 0.00019789356156252325" pbc="T T T"
Cu       2.02441943       1.43148054       3.50639788      -0.00000064      -0.00000217       0.00000084
Cu       6.07325881       4.29444293      10.51919196      -0.00000015       0.00000092      -0.00000460
Pt      -0.00000007      -0.00000000      -0.00000022       0.00000523       0.00000117      -0.00000616
Br       2.01377353       1.42395296       7.01279538      -0.00340423      -0.00240793      -0.00000027
Br       6.08390540       4.30197080       7.01279571       0.00340046       0.00240524       0.00000111
Br       5.06637220       1.42395262       5.25037634       0.00169973      -0.00240508      -0.00294413
Br       3.03130666       4.30197075       8.77521438      -0.00170192       0.00240946       0.00295069
Br       3.03130611       4.30197078       5.25037658      -0.00170119       0.00240603      -0.00294581
Br       5.06637243       1.42395285       8.77521452       0.00170274      -0.00240765       0.00294836
