9
Lattice="5.753381192462828 -9.239613730936033e-08 3.321716376918198 1.9177936681558143 5.424339805993346 3.3217163345751093 -2.5615140631129046e-08 -6.997208769126037e-08 6.643432798203083" Properties=species:S:1:pos:R:3:forces:R:3 energy=-24.454925537109375 free_energy=-24.454925537109375 stress="-1.3741052498517092e-05 -6.359125137578303e-08 -2.8236550875249122e-09 -6.359125137578303e-08 -1.3762979506282136e-05 3.24863798084607e-08 -2.8236550875249122e-09 3.24863798084607e-08 -1.3757746273768134e-05" pbc="T T T"
Cu       1.91779410       1.35608502       3.32171597       0.00000136      -0.00000045      -0.00000102
Cu       5.75338073       4.06825429       9.96514840      -0.00000195      -0.00000115      -0.00000415
P       -0.00000021      -0.00000019      -0.00000012       0.00000256       0.00000212       0.00000468
Cl       1.83309230       1.29619187       6.64343261      -0.00121288      -0.00085612       0.00000187
Cl       5.83808244       4.12814789       6.64343301       0.00121364       0.00085500      -0.00000118
Cl       4.83683479       1.29619193       4.90922123       0.00060734      -0.00085794      -0.00105235
Cl       2.83434020       4.12814765       8.37764490      -0.00060837       0.00085822       0.00105210
Cl       2.83433975       4.12814777       4.90922138      -0.00060765       0.00085836      -0.00105207
Cl       4.83683513       1.29619230       8.37764461       0.00060609      -0.00085775       0.00105190
