9
Lattice="4.773925055333856 -1.0233051376169029e-07 2.7562270584717785 1.5913082159596228 4.500899894832294 2.7562271266109937 -9.186050556987913e-08 1.8497958367122715e-08 5.51245427605067" Properties=species:S:1:pos:R:3:forces:R:3 energy=-33.87095642089844 free_energy=-33.87095642089844 stress="-0.00027889994089491665 -1.2859297626732769e-08 -1.1034721580926998e-08 -1.2859297626732769e-08 -0.00027888573822565377 -6.645362038426583e-09 -1.1034721580926998e-08 -6.645362038426583e-09 -0.00027891082572750747" pbc="T T T"
Cu       1.59130856       1.12522451       2.75622703       0.00000166      -0.00000131      -0.00000071
Cu       4.77392431       3.37567515       8.26868137      -0.00000223       0.00000079      -0.00000001
Pt       0.00000024      -0.00000000      -0.00000009      -0.00000874       0.00000760      -0.00000057
F        1.59764489       1.12970540       5.51245429       0.00484577       0.00342646      -0.00000030
F        4.76758866       3.37119408       5.51245463      -0.00484592      -0.00342515      -0.00000026
F        3.97510218       1.12970561       4.13982765      -0.00242117       0.00342394       0.00419374
F        2.39013083       3.37119445       6.88508069       0.00242540      -0.00342757      -0.00419830
F        2.39013078       3.37119470       4.13982799       0.00242595      -0.00342673       0.00419995
F        3.97510218       1.12970541       6.88508037      -0.00242072       0.00342204      -0.00419332
