9
Lattice="6.069270848695604 -5.281180194848188e-09 3.50409516189909 2.023090280481442 5.722163420590651 3.5040951574614962 2.9058065075061153e-09 -3.3802049562834276e-09 7.008190318765173" Properties=species:S:1:pos:R:3:forces:R:3 energy=-22.550777435302734 free_energy=-22.550777435302734 stress="-0.000277101673418656 1.3084902050763958e-08 6.538921626386696e-10 1.3084902050763958e-08 -0.0002771159925032407 3.307574658606427e-09 6.538921626386696e-10 3.307574658606427e-09 -0.00027713525923900306" pbc="T T T"
Cu       2.02309027       1.43054087       3.50409516       0.00000066       0.00000112      -0.00000028
Cu       6.06927084       4.29162256      10.51228548      -0.00000071       0.00000107      -0.00000017
Pt       0.00000011       0.00000002       0.00000016      -0.00000043       0.00000080       0.00000313
Br       2.01321619       1.42355881       7.00819032      -0.00142144      -0.00100537       0.00000041
Br       6.07914487       4.29860453       7.00819031       0.00142135       0.00100442       0.00000042
Br       5.06266275       1.42355881       5.24759153       0.00071066      -0.00100546      -0.00123111
Br       3.02969841       4.29860455       8.76878903      -0.00070919       0.00100263       0.00122913
Br       3.02969837       4.29860460       5.24759154      -0.00071011       0.00100421      -0.00123039
Br       5.06266272       1.42355888       8.76878901       0.00070924      -0.00100350       0.00122897
