9
Lattice="6.981720456511845 8.95395284863212e-09 4.030898253429307 2.327240084512418 6.582429378215875 4.030898385238434 -1.801320639122912e-08 1.486953213897588e-07 8.061796538058369" Properties=species:S:1:pos:R:3:forces:R:3 energy=-17.06844139099121 free_energy=-17.06844139099121 stress="8.03936054580845e-05 -2.9053830452596685e-09 -4.084710791829593e-09 -2.9053830452596685e-09 8.03985822130926e-05 8.781204652308361e-10 -4.084710791829593e-09 8.781204652308361e-10 8.041152614168823e-05" pbc="T T T"
Cu       2.32724042       1.64560755       4.03089772       0.00000085       0.00000112      -0.00000294
Cu       6.98172088       4.93682192      12.09269526       0.00000196      -0.00000127       0.00000152
Pb       0.00000003       0.00000037       0.00000048       0.00000007      -0.00000143      -0.00000149
I        2.54574408       1.80011330       8.06179676      -0.00082469      -0.00058106       0.00000128
I        6.76321606       4.78231595       8.06179641       0.00082451       0.00058143      -0.00000066
I        5.70884822       1.80011331       6.23557777       0.00041167      -0.00058350      -0.00071420
I        3.60011222       4.78231595       9.88801489      -0.00041397       0.00058416       0.00071576
I        3.60011238       4.78231630       6.23557801      -0.00041173       0.00058280      -0.00071384
I        5.70884781       1.80011351       9.88801539       0.00041130      -0.00058223       0.00071457
