9
Lattice="6.495939897054909 -3.402422259188391e-09 3.7504326101475236 2.165313312420966 6.124430804646478 3.7504325813772854 -1.4245223526560089e-08 -4.530907870468075e-08 7.50086524496851" Properties=species:S:1:pos:R:3:forces:R:3 energy=-19.84200668334961 free_energy=-19.84200668334961 stress="-5.658788722939789e-05 -5.697019300754391e-09 1.3168316215228515e-08 -5.697019300754391e-09 -5.6590110034449026e-05 -1.2497343604422895e-08 1.3168316215228515e-08 -1.2497343604422895e-08 -5.658359805238433e-05" pbc="T T T"
Cu       2.16531317       1.53110789       3.75043243      -0.00000086      -0.00000003      -0.00000090
Cu       6.49593992       4.59332330      11.25129739      -0.00000060       0.00000072      -0.00000171
Pt       0.00000047       0.00000047      -0.00000041      -0.00000260      -0.00000403       0.00000157
I        2.19379931       1.55125009       7.50086530      -0.00121354      -0.00085883      -0.00000001
I        6.46745343       4.57318005       7.50086542       0.00121854       0.00086147       0.00000136
I        5.39904019       1.55125030       5.65031886       0.00060825      -0.00086043      -0.00105265
I        3.26221290       4.57318046       9.35141185      -0.00060801       0.00086018       0.00105389
I        3.26221311       4.57318013       5.65031902      -0.00060953       0.00086135      -0.00105527
I        5.39904026       1.55125034       9.35141186       0.00060829      -0.00086037       0.00105376
