9
Lattice="5.774496016266297 -4.584578242523188e-08 3.3339067411733523 1.9248319993297323 5.444246848340855 3.3339066768598107 1.009920443127527e-07 -7.3555135422541495e-09 6.667813307423326" Properties=species:S:1:pos:R:3:forces:R:3 energy=-25.27220344543457 free_energy=-25.27220344543457 stress="0.0001304815523326397 -8.143311802655262e-09 -6.260049367767806e-09 -8.143311802655262e-09 0.00013038094039075077 9.605910511467641e-10 -6.260049367767806e-09 9.605910511467641e-10 0.000130439133499749" pbc="T T T"
Cu       1.92483182       1.36106227       3.33390730       0.00000002       0.00000178       0.00000214
Cu       5.77449608       4.08318489      10.00172009      -0.00000029      -0.00000178       0.00000091
Pt      -0.00000003       0.00000005      -0.00000008      -0.00000246      -0.00000375      -0.00000536
Cl       1.89342717       1.33885512       6.66781279      -0.00034346      -0.00024299       0.00000057
Cl       5.80590060       4.10539161       6.66781307       0.00034979       0.00024545      -0.00000059
Cl       4.82778278       1.33885518       4.97366249       0.00017148      -0.00024420      -0.00029853
Cl       2.87154579       4.10539158       8.36196435      -0.00017644       0.00024463       0.00030093
Cl       2.87154558       4.10539154       4.97366246      -0.00017217       0.00024340      -0.00029856
Cl       4.82778267       1.33885493       8.36196440       0.00017351      -0.00024241       0.00029840
