9
Lattice="5.720486666593704 3.553449268938471e-08 3.3027245395633393 1.9068289167416452 5.393326595444424 3.3027245493064785 -4.754631622529444e-08 -2.168747956460816e-08 6.605449161479353" Properties=species:S:1:pos:R:3:forces:R:3 energy=-23.980716705322266 free_energy=-23.980716705322266 stress="6.339936226140708e-05 -1.644693270463904e-08 1.4622512090056716e-08 -1.644693270463904e-08 6.345543806673959e-05 1.5787144036494283e-08 1.4622512090056716e-08 1.5787144036494283e-08 6.346440932247788e-05" pbc="T T T"
Cu       1.90682936       1.34833154       3.30272449       0.00000107      -0.00000128      -0.00000002
Cu       5.72048699       4.04499507       9.90817430       0.00000162      -0.00000020       0.00000310
Pd      -0.00000028       0.00000011      -0.00000014       0.00000623      -0.00000501      -0.00000724
Cl       1.90773780       1.34897483       6.60544897      -0.00079447      -0.00056243      -0.00000066
Cl       5.71957712       4.04435183       6.60544885       0.00079361       0.00056326      -0.00000110
Cl       4.76661760       1.34897477       4.95487424       0.00039487      -0.00056112      -0.00068730
Cl       2.86069811       4.04435167       8.25602386      -0.00040150       0.00056785       0.00069341
Cl       2.86069806       4.04435188       4.95487440      -0.00039892       0.00056371      -0.00068992
Cl       4.76661736       1.34897473       8.25602388       0.00039777      -0.00056481       0.00068980
