9
Lattice="4.945878411271951 3.8886945392663175e-08 2.8555041525729385 1.648626178992553 4.663018748273087 2.8555041434988335 2.8401823613676404e-08 8.96964322188996e-09 5.711008255952485" Properties=species:S:1:pos:R:3:forces:R:3 energy=-34.16554260253906 free_energy=-34.16554260253906 stress="0.00023975118529051542 1.4118567648324643e-08 -3.83659077840548e-08 1.4118567648324643e-08 0.0002397912903688848 2.472474314174633e-08 -3.83659077840548e-08 2.472474314174633e-08 0.00023973241331987083" pbc="T T T"
Cu       1.64862604       1.16575482       2.85550403       0.00000052       0.00000075      -0.00000018
Cu       4.94587822       3.49726482       8.56651264      -0.00000173       0.00000235       0.00000116
Pb       0.00000011       0.00000001      -0.00000012      -0.00000311       0.00000146       0.00000634
F        1.69785911       1.20056734       5.71100834      -0.00125320      -0.00088755       0.00000081
F        4.89664584       3.46245124       5.71100837       0.00125406       0.00088601      -0.00000125
F        4.09694879       1.20056757       4.32589309       0.00062861      -0.00088827      -0.00108881
F        2.49755573       3.46245116       7.09612358      -0.00062555       0.00088434       0.00108423
F        2.49755576       3.46245126       4.32589305      -0.00062553       0.00088716      -0.00108592
F        4.09694902       1.20056702       7.09612336       0.00062600      -0.00088632       0.00108365
