9
Lattice="4.543030904886858 1.336422635286743e-07 2.6229200249526006 1.51434371425825 4.283210935305519 2.6229201058448894 -6.385605683407609e-08 5.391936690629963e-08 5.2458401605071305" Properties=species:S:1:pos:R:3:forces:R:3 energy=-39.253108978271484 free_energy=-39.253108978271484 stress="-0.0007666450692340732 1.621026939346848e-07 1.9182317956278894e-08 1.621026939346848e-07 -0.0007668459438718855 -4.173489642766981e-08 1.9182317956278894e-08 -4.173489642766981e-08 -0.0007671457715332508" pbc="T T T"
Cu       1.51434367       1.07080317       2.62292015      -0.00000003       0.00000003       0.00000007
Cu       4.54303102       3.21240809       7.86876052      -0.00000033       0.00000014      -0.00000004
P       -0.00000005      -0.00000009      -0.00000031      -0.00000037       0.00000470       0.00001167
F        1.33488663       0.94390753       5.24584015       0.00341764       0.00241654      -0.00000083
F        4.72248768       3.33930357       5.24583988      -0.00341409      -0.00241639      -0.00000137
F        3.87558774       0.94390724       3.77896518      -0.00171395       0.00242392       0.00297216
F        2.18178713       3.33930363       6.71271520       0.00171340      -0.00242632      -0.00297739
F        2.18178701       3.33930376       3.77896525       0.00171188      -0.00242452       0.00297008
F        3.87558745       0.94390755       6.71271525      -0.00171413       0.00242211      -0.00297444
