9
Lattice="6.4953643390999485 2.5381406353736197e-08 3.750100411984366 2.1651214837666353 6.123888174136391 3.750100388653264 1.4628329342587446e-08 -1.823084093244368e-08 7.500200798631742" Properties=species:S:1:pos:R:3:forces:R:3 energy=-19.841999053955078 free_energy=-19.841999053955078 stress="-0.00011187049676664174 -4.199618430789087e-11 5.384000467678618e-10 -4.199618430789087e-11 -0.00011186502524651587 -7.250761324684163e-09 5.384000467678618e-10 -7.250761324684163e-09 -0.00011187908239662647" pbc="T T T"
Cu       2.16512140       1.53097251       3.75010040      -0.00000030       0.00000097       0.00000001
Cu       6.49536434       4.59291607      11.25030081       0.00000008       0.00000000      -0.00000134
Pt       0.00000006       0.00000033       0.00000004      -0.00000009      -0.00000133       0.00000034
I        2.19371917       1.55119367       7.50020085      -0.00126382      -0.00089345      -0.00000027
I        6.46676666       4.57269440       7.50020091       0.00126446       0.00089353       0.00000040
I        5.39850476       1.55119361       5.64991696       0.00063178      -0.00089388      -0.00109384
I        3.26198106       4.57269423       9.35048473      -0.00063165       0.00089380       0.00109506
I        3.26198095       4.57269436       5.64991705      -0.00063257       0.00089350      -0.00109487
I        5.39850493       1.55119354       9.35048465       0.00063211      -0.00089311       0.00109461
