9
Lattice="6.46999625527387 -3.644309249400279e-08 3.7354541411210898 2.1566653911959093 6.099970983693047 3.7354541287712824 2.8809029823413238e-08 5.245669870528163e-09 7.4709082323434295" Properties=species:S:1:pos:R:3:forces:R:3 energy=-18.915407180786133 free_energy=-18.915407180786133 stress="-0.00020119285909458995 -1.912539904225241e-09 -4.19398205053767e-09 -1.912539904225241e-09 -0.00020118623797316104 5.275720305064624e-09 -4.19398205053767e-09 5.275720305064624e-09 -0.0002011805772781372" pbc="T T T"
Cu       2.15666532       1.52499277       3.73545370      -0.00000008       0.00000013      -0.00000187
Cu       6.46999608       4.57497799      11.20636275      -0.00000125      -0.00000099       0.00000095
Pd       0.00000015       0.00000008       0.00000015      -0.00000178       0.00000078       0.00000310
I        2.20791679       1.56123296       7.47090834      -0.00544465      -0.00384947       0.00000094
I        6.41874476       4.53873792       7.47090805       0.00544622       0.00385030      -0.00000057
I        5.36603799       1.56123302       5.64756618       0.00272398      -0.00385083      -0.00471739
I        3.26062381       4.53873797       9.29425025      -0.00272239       0.00384910       0.00471554
I        3.26062395       4.53873808       5.64756621      -0.00272198       0.00385077      -0.00471590
I        5.36603785       1.56123302       9.29425040       0.00272185      -0.00384980       0.00471514
