9
Lattice="6.466466611031536 8.138235898452031e-08 3.7334161514653106 2.1554889591275654 6.096643236215949 3.7334161305842026 1.2094864014874176e-08 -1.7021624475273133e-08 7.466832281981725" Properties=species:S:1:pos:R:3:forces:R:3 energy=-21.522602081298828 free_energy=-21.522602081298828 stress="-3.729178206413053e-05 2.0242344689336278e-08 -1.1791373433212016e-09 2.0242344689336278e-08 -3.72956128558144e-05 -5.004050063206478e-09 -1.1791373433212016e-09 -5.004050063206478e-09 -3.7306850572349504e-05" pbc="T T T"
Cu       2.15548868       1.52416125       3.73341628      -0.00000012       0.00000178       0.00000057
Cu       6.46646649       4.57248236      11.20024790      -0.00000065      -0.00000083      -0.00000178
Rh       0.00000030       0.00000006      -0.00000018      -0.00000339      -0.00000410       0.00000143
I        2.17105340       1.53516657       7.46683237      -0.00033221      -0.00023542       0.00000045
I        6.45090212       4.56147639       7.46683249       0.00033676       0.00023764       0.00000052
I        5.38093982       1.53516672       5.61360334       0.00016656      -0.00023543      -0.00028739
I        3.24101583       4.56147663       9.32006143      -0.00016599       0.00023469       0.00028822
I        3.24101566       4.56147641       5.61360336      -0.00016708       0.00023665      -0.00028928
I        5.38094004       1.53516680       9.32006126       0.00016615      -0.00023504       0.00028728
