9
Lattice="5.740608855890077 -1.4286731509814754e-07 3.314341877212742 1.9135361671002666 5.412297979274349 3.3143418486336307 -8.85028302681875e-08 -9.758309553164365e-08 6.628683907716901" Properties=species:S:1:pos:R:3:forces:R:3 energy=-28.507068634033203 free_energy=-28.507068634033203 stress="0.00010524506069486961 7.2171428833200935e-09 -2.9604752427303538e-08 7.2171428833200935e-09 0.00010538131755311042 1.5372570771887695e-08 -2.9604752427303538e-08 1.5372570771887695e-08 0.00010529619612498209" pbc="T T T"
Cu       1.91353602       1.35307435       3.31434124      -0.00000239       0.00000077      -0.00000117
Cu       5.74060899       4.05922326       9.94302598       0.00000202      -0.00000136      -0.00000015
Ru      -0.00000000      -0.00000002       0.00000015       0.00000008      -0.00000088      -0.00000009
Cl       1.89441408       1.33955333       6.62868425      -0.00069895      -0.00049430       0.00000106
Cl       5.75973089       4.07274442       6.62868363       0.00069919       0.00049493      -0.00000026
Cl       4.79340194       1.33955324       4.95495289       0.00034967      -0.00049466      -0.00060558
Cl       2.86074334       4.07274426       8.30241446      -0.00034928       0.00049493       0.00060624
Cl       2.86074302       4.07274488       4.95495262      -0.00034845       0.00049475      -0.00060529
Cl       4.79340150       1.33955306       8.30241515       0.00034824      -0.00049415       0.00060517
