9
Lattice="6.107255434026857 5.723635630567749e-08 3.5260255860370537 2.0357518707765117 5.75797576759928 3.526025576560499 3.70980433911975e-08 1.4625931411868202e-08 7.052051107818365" Properties=species:S:1:pos:R:3:forces:R:3 energy=-25.38678741455078 free_energy=-25.38678741455078 stress="0.00018939658184535801 5.358474552963344e-09 1.2111094349620544e-09 5.358474552963344e-09 0.00018939177971333265 -1.1364481800058002e-08 1.2111094349620544e-09 -1.1364481800058002e-08 0.00018937874119728804" pbc="T T T"
Cu       2.03575202       1.43949389       3.52602586       0.00000107      -0.00000054       0.00000079
Cu       6.10725550       4.31848177      10.57807667       0.00000012       0.00000074      -0.00000108
Ru       0.00000014       0.00000008       0.00000026      -0.00000252      -0.00000092      -0.00000205
Br       2.02436447       1.43144178       7.05205105      -0.00264341      -0.00186975      -0.00000053
Br       6.11864255       4.32653391       7.05205122       0.00264683       0.00187221       0.00000019
Br       5.09507327       1.43144178       5.27917648       0.00132061      -0.00186989      -0.00228937
Br       3.04793414       4.32653403       8.82492556      -0.00132257       0.00187030       0.00229038
Br       3.04793395       4.32653394       5.27917657      -0.00132271       0.00186872      -0.00229016
Br       5.09507329       1.43144214       8.82492541       0.00132269      -0.00187102       0.00229186
