9
Lattice="6.044833793426351 -2.8125310044209242e-08 3.489986480493282 2.01494455694548 5.699123964517108 3.48998650534216 -1.6782026783945964e-10 3.03148274032787e-08 6.97997296127727" Properties=species:S:1:pos:R:3:forces:R:3 energy=-24.16513442993164 free_energy=-24.16513442993164 stress="8.888259617378935e-05 1.0217275026036532e-08 -7.611087315950726e-10 1.0217275026036532e-08 8.888800221029669e-05 -4.4190562320522986e-09 -7.611087315950726e-10 -4.4190562320522986e-09 8.885395072866231e-05" pbc="T T T"
Cu       2.01494468       1.42478118       3.48998668       0.00000222       0.00000237       0.00000058
Cu       6.04483415       4.27434269      10.46995942       0.00000090      -0.00000252      -0.00000091
Rh      -0.00000017       0.00000010      -0.00000020       0.00000236      -0.00000136       0.00000377
Br       2.00520822       1.41789675       6.97997287      -0.00123480      -0.00087258       0.00000025
Br       6.05456990       4.28122744       6.97997297       0.00123378       0.00087210       0.00000000
Br       5.04222933       1.41789673       5.22654790       0.00061614      -0.00087252      -0.00106755
Br       3.01754869       4.28122724       8.73339800      -0.00061694       0.00087091       0.00106753
Br       3.01754885       4.28122712       5.22654800      -0.00061950       0.00087411      -0.00106956
Br       5.04222975       1.41789663       8.73339815       0.00061581      -0.00087055       0.00106589
