9
Lattice="6.1866027634169605 -3.544087198384399e-08 3.5718368565030127 2.062200924029761 5.832785006338822 3.5718367936212885 3.9569849107359624e-08 -4.903398948504337e-08 7.143673644469026" Properties=species:S:1:pos:R:3:forces:R:3 energy=-28.61275863647461 free_energy=-28.61275863647461 stress="0.00029162276769056916 1.1435965951989147e-08 9.37274435841573e-09 1.1435965951989147e-08 0.0002916220109909773 -1.540107774644639e-08 9.37274435841573e-09 -1.540107774644639e-08 0.0002916158991865814" pbc="T T T"
Cu       2.06220094       1.45819621       3.57183676      -0.00000001      -0.00000003      -0.00000040
Cu       6.18660295       4.37458886      10.71551051       0.00000127       0.00000051      -0.00000022
Re       0.00000016      -0.00000052      -0.00000022      -0.00000119       0.00000271       0.00000019
Br       2.02723403       1.43347081       7.14367364      -0.00394464      -0.00278960      -0.00000048
Br       6.22156995       4.39931406       7.14367377       0.00394362       0.00278860       0.00000026
Br       5.17298587       1.43347074       5.32747323       0.00197136      -0.00278820      -0.00341529
Br       3.07581765       4.39931438       8.95987448      -0.00197129       0.00278758       0.00341393
Br       3.07581775       4.39931422       5.32747293      -0.00197139       0.00278827      -0.00341514
Br       5.17298561       1.43347095       8.95987404       0.00197217      -0.00278986       0.00341728
