9
Lattice="6.623353517923467 1.0568804169726835e-07 3.823994817447856 2.207784571084807 6.244557543113156 3.823994877261275 -1.4365654356974525e-11 7.324602010046928e-08 7.647989634920616" Properties=species:S:1:pos:R:3:forces:R:3 energy=-25.21995735168457 free_energy=-25.21995735168457 stress="8.588934724684805e-05 6.536077012953001e-09 -3.323917585618119e-09 6.536077012953001e-09 8.587820047978312e-05 4.814364878980015e-11 -3.323917585618119e-09 4.814364878980015e-11 8.589194476371631e-05" pbc="T T T"
Cu       2.20778483       1.56113950       3.82399497       0.00000113       0.00000043      -0.00000005
Cu       6.62335364       4.68341854      11.47198445      -0.00000044       0.00000054       0.00000056
Re       0.00000023       0.00000007      -0.00000138      -0.00000161      -0.00000030       0.00000815
I        2.20443514       1.55877092       7.64798977      -0.00224251      -0.00158620      -0.00000033
I        6.62670266       4.68578663       7.64798975       0.00224359       0.00158639      -0.00000048
I        5.52113569       1.55877118       5.73309153       0.00112207      -0.00158679      -0.00194427
I        3.31000185       4.68578679       9.56288836      -0.00112018       0.00158365       0.00194065
I        3.31000211       4.68578656       5.73309140      -0.00112161       0.00158642      -0.00194378
I        5.52113620       1.55877071       9.56288844       0.00111955      -0.00158407       0.00193959
