9
Lattice="5.716595608695998 7.356868317281865e-08 3.3004779855406516 1.9055319379142477 5.389658072931725 3.30047798729402 5.829908654113984e-08 4.337110372490689e-08 6.600955870104342" Properties=species:S:1:pos:R:3:forces:R:3 energy=-26.996349334716797 free_energy=-26.996349334716797 stress="0.000391231820685789 6.72260540568459e-08 -1.5656127061447478e-08 6.72260540568459e-08 0.00039123714668676257 -1.9670897799528575e-08 -1.5656127061447478e-08 -1.9670897799528575e-08 0.0003911392414011061" pbc="T T T"
Cu       1.90553179       1.34741428       3.30047770       0.00000062      -0.00000045      -0.00000023
Cu       5.71659587       4.04224390       9.90143397      -0.00000126       0.00000127      -0.00000009
Rh      -0.00000018       0.00000002      -0.00000018       0.00000230       0.00000220       0.00000307
Cl       1.88342653       1.33178338       6.60095590      -0.00766620      -0.00542201       0.00000121
Cl       5.73870131       4.05787479       6.60095609       0.00766218       0.00541878       0.00000079
Cl       4.77488278       1.33178338       4.93157238       0.00383151      -0.00541599      -0.00663266
Cl       2.84724475       4.05787509       8.27033954      -0.00382872       0.00541535       0.00663000
Cl       2.84724486       4.05787469       4.93157239      -0.00383006       0.00541575      -0.00663334
Cl       4.77488270       1.33178324       8.27033959       0.00382984      -0.00541471       0.00663149
