9
Lattice="6.499250478433586 -3.260214655741052e-08 3.752344064413213 2.1664168181525176 6.127551904630906 3.752344025016727 1.7659552567744493e-08 -3.5763493755920646e-08 7.5046880982392326" Properties=species:S:1:pos:R:3:forces:R:3 energy=-22.27081298828125 free_energy=-22.27081298828125 stress="-6.691680027870461e-05 8.154272812532781e-09 7.161100601393855e-09 8.154272812532781e-09 -6.693830800941214e-05 -2.9823055136546373e-09 7.161100601393855e-09 -2.9823055136546373e-09 -6.694714102195576e-05" pbc="T T T"
Cu       2.16641665       1.53188782       3.75234409       0.00000017       0.00000026       0.00000005
Cu       6.49925070       4.59566410      11.25703237       0.00000104       0.00000021       0.00000087
Ru      -0.00000023       0.00000009      -0.00000006       0.00000017       0.00000073      -0.00000017
I        2.18972978       1.54837270       7.50468809      -0.00186567      -0.00131975       0.00000003
I        6.47593785       4.57917917       7.50468795       0.00186415       0.00131835      -0.00000082
I        5.40438580       1.54837244       5.64870520       0.00093115      -0.00131744      -0.00161359
I        3.26128135       4.57917935       9.36067104      -0.00093208       0.00131845       0.00161362
I        3.26128160       4.57917930       5.64870522      -0.00093143       0.00131711      -0.00161386
I        5.40438579       1.54837238       9.36067088       0.00093238      -0.00131796       0.00161384
