9
Lattice="4.762010362669452 1.3913425800001641e-08 2.7493478518737304 1.5873368222815722 4.489666344218187 2.7493478144484844 1.753353867230941e-08 -3.343822433370603e-08 5.498695673378396" Properties=species:S:1:pos:R:3:forces:R:3 energy=-35.94367218017578 free_energy=-35.94367218017578 stress="0.00023735685681458563 1.5541358422410667e-08 1.3626503481134478e-08 1.5541358422410667e-08 0.00023735190916340798 -1.3053271352703177e-08 1.3626503481134478e-08 -1.3053271352703177e-08 0.0002373435563640669" pbc="T T T"
Cu       1.58733630       1.12241636       2.74934771      -0.00000260      -0.00000063      -0.00000083
Cu       4.76201026       3.36724935       8.24804277      -0.00000082      -0.00000215      -0.00000309
Rh       0.00000017       0.00000001      -0.00000033      -0.00000369       0.00000431       0.00000693
F        1.58675954       1.12200840       5.49869612      -0.00400984      -0.00283487       0.00000045
F        4.76258736       3.36765797       5.49869578       0.00401058       0.00283669      -0.00000069
F        3.96863088       1.12200825       4.12352181       0.00200578      -0.00283592      -0.00347417
F        2.38071646       3.36765806       6.87386975      -0.00200160       0.00283255       0.00346956
F        2.38071624       3.36765814       4.12352198      -0.00200502       0.00283497      -0.00347220
F        3.96863155       1.12200874       6.87386958       0.00200728      -0.00283505       0.00347394
