9
Lattice="4.738676396976326 3.7344775367400546e-08 2.735876194570314 1.57955880882512 4.467667147517814 2.735876238522664 8.524958929551326e-08 1.1411106644966334e-07 5.471752241483956" Properties=species:S:1:pos:R:3:forces:R:3 energy=-43.34691619873047 free_energy=-43.34691619873047 stress="-8.032365440158173e-05 1.0340625244964485e-08 6.429998222756694e-08 1.0340625244964485e-08 -8.030077879084274e-05 -8.903239034907529e-08 6.429998222756694e-08 -8.903239034907529e-08 -8.033339690882713e-05" pbc="T T T"
Cu       1.57955874       1.11691722       2.73587639       0.00000024       0.00000052       0.00000021
Cu       4.73867636       3.35075036       8.20762857      -0.00000036       0.00000049      -0.00000028
Re      -0.00000005      -0.00000014      -0.00000025      -0.00000235       0.00000652       0.00000818
F        1.58497847       1.12074914       5.47175231       0.00262858       0.00185892      -0.00000015
F        4.73325682       3.34691823       5.47175215      -0.00263036      -0.00186084       0.00000012
F        3.94618729       1.12074875       4.10850783      -0.00131464       0.00185935       0.00227663
F        2.37204834       3.34691812       6.83499711       0.00131892      -0.00186505      -0.00228419
F        2.37204805       3.34691828       4.10850797       0.00131303      -0.00185758       0.00227485
F        3.94618713       1.12074927       6.83499678      -0.00131296       0.00185768      -0.00227537
