9
Lattice="5.820794915739899 5.2471568583070385e-08 3.3606376013296306 1.940265055661836 5.4878980140463 3.360637541958621 4.264020389752161e-08 -4.2563173339653834e-08 6.721275128804244" Properties=species:S:1:pos:R:3:forces:R:3 energy=-32.080440521240234 free_energy=-32.080440521240234 stress="0.00020480646344367415 1.2873345944797165e-08 -2.5222322008744413e-09 1.2873345944797165e-08 0.00020474795019254088 -1.4539756065801157e-08 -2.5222322008744413e-09 -1.4539756065801157e-08 0.00020474879420362413" pbc="T T T"
Cu       1.94026497       1.37197360       3.36063755      -0.00000051      -0.00000237       0.00000007
Cu       5.82079522       4.11592418      10.08191214      -0.00000047       0.00000267      -0.00000243
Re       0.00000019       0.00000023       0.00000042      -0.00000303      -0.00000274      -0.00000695
Cl       1.90749401       1.34880173       6.72127524      -0.00210419      -0.00148934      -0.00000065
Cl       5.85356587       4.13909603       6.72127542       0.00210831       0.00149181      -0.00000009
Cl       4.86704814       1.34880153       5.01257575       0.00104985      -0.00148723      -0.00181922
Cl       2.89401210       4.13909620       8.42997448      -0.00105305       0.00149029       0.00182456
Cl       2.89401161       4.13909646       5.01257559      -0.00105101       0.00148681      -0.00182006
Cl       4.86704784       1.34880205       8.42997468       0.00105420      -0.00148979       0.00182459
