9
Lattice="4.840959077661767 -2.9864817364009836e-08 2.794929028340081 1.6136529932618031 4.5640998456833515 2.794929036079978 3.201236207904354e-08 3.211554506686342e-08 5.58985800123307" Properties=species:S:1:pos:R:3:forces:R:3 energy=-37.06172180175781 free_energy=-37.06172180175781 stress="0.0005524042062461376 -1.8500180942737643e-08 -3.221543209974698e-08 -1.8500180942737643e-08 0.0005523681757040322 5.5587396019518565e-08 -3.221543209974698e-08 5.5587396019518565e-08 0.000552413344848901" pbc="T T T"
Cu       1.61365317       1.14102507       2.79492914       0.00000143      -0.00000017      -0.00000104
Cu       4.84095926       3.42307470       8.38478677      -0.00000084      -0.00000037      -0.00000024
Sn      -0.00000012      -0.00000021      -0.00000013       0.00000159       0.00000330       0.00000180
F        1.61979042       1.14536477       5.58985845      -0.00580236      -0.00410256      -0.00000064
F        4.83482146       3.41873508       5.58985796       0.00580052       0.00410098       0.00000082
F        4.03106361       1.14536495       4.19770867       0.00290114      -0.00410408      -0.00502485
F        2.42354829       3.41873491       6.98200714      -0.00290106       0.00410306       0.00502443
F        2.42354854       3.41873513       4.19770877      -0.00290078       0.00410017      -0.00502226
F        4.03106370       1.14536496       6.98200755       0.00290047      -0.00410050       0.00502235
