9
Lattice="5.810688741619185 -6.076407551539346e-08 3.3548028964994794 1.9368961533927653 5.478370041481249 3.354802959762181 -9.281562526435429e-08 1.1850043574884857e-08 6.709605953760345" Properties=species:S:1:pos:R:3:forces:R:3 energy=-21.51101303100586 free_energy=-21.51101303100586 stress="0.00016076816245913506 -2.0413333245983267e-08 -3.8517146805361335e-08 -2.0413333245983267e-08 0.00016078194312285632 1.21543468623031e-08 -3.8517146805361335e-08 1.21543468623031e-08 0.00016072680591605604" pbc="T T T"
Cu       1.93689649       1.36959275       3.35480327       0.00000203       0.00000346       0.00000044
Cu       5.81068822       4.10877733      10.06440929      -0.00000259       0.00000013       0.00000078
Se      -0.00000026       0.00000007       0.00000036       0.00000178      -0.00000148      -0.00000704
Cl       1.94727686       1.37693302       6.70960607      -0.00197343      -0.00139679       0.00000041
Cl       5.80030796       4.10143724       6.70960611       0.00197332       0.00139429      -0.00000130
Cl       4.83705012       1.37693294       5.04119425       0.00098583      -0.00139447      -0.00170825
Cl       2.91053494       4.10143653       8.37801659      -0.00098901       0.00139863       0.00171283
Cl       2.91053479       4.10143702       5.04119447      -0.00098461       0.00139353      -0.00170891
Cl       4.83705007       1.37693305       8.37801684       0.00098665      -0.00139727       0.00171108
