9
Lattice="5.8108236916149885 -1.457501903421143e-07 3.3548805721085895 1.9369411457647032 5.478497043198137 3.3548804809317536 2.5023397327993365e-08 -9.397411499744848e-08 6.709761100875369" Properties=species:S:1:pos:R:3:forces:R:3 energy=-21.511009216308594 free_energy=-21.511009216308594 stress="0.000207252218388021 1.8977983629042683e-08 9.637883380264611e-09 1.8977983629042683e-08 0.00020726968068629503 1.3743402860200149e-08 9.637883380264611e-09 1.3743402860200149e-08 0.00020725200010929257" pbc="T T T"
Cu       1.93694113       1.36962422       3.35488000      -0.00000186      -0.00000043      -0.00000210
Cu       5.81082376       4.10887184      10.06464173       0.00000014      -0.00000256      -0.00000038
Se      -0.00000045      -0.00000016       0.00000027       0.00000254       0.00000120      -0.00000437
Cl       1.94743534       1.37704494       6.70976123      -0.00367012      -0.00259390       0.00000124
Cl       5.80032980       4.10145230       6.70976092       0.00366788       0.00259433      -0.00000050
Cl       4.83710626       1.37704427       5.04140871       0.00183306      -0.00259095      -0.00317512
Cl       2.91065875       4.10145240       8.37811331      -0.00183342       0.00259336       0.00317705
Cl       2.91065862       4.10145242       5.04140919      -0.00183370       0.00259385      -0.00317457
Cl       4.83710621       1.37704498       8.37811326       0.00183549      -0.00259502       0.00317878
