9
Lattice="6.195734442305843 3.728578290715787e-09 3.577109008290858 2.0652448430669526 5.841394440434491 3.5771089642107046 2.9541736402151195e-08 -3.30976876074521e-08 7.154217965413837" Properties=species:S:1:pos:R:3:forces:R:3 energy=-18.32939910888672 free_energy=-18.32939910888672 stress="6.851202488178387e-05 7.924635947453851e-10 -3.4510090340944544e-09 7.924635947453851e-10 6.85051636537537e-05 -1.7956111042494172e-09 -3.4510090340944544e-09 -1.7956111042494172e-09 6.849911733297631e-05" pbc="T T T"
Cu       2.06524509       1.46034871       3.57710897       0.00000163       0.00000011       0.00000032
Cu       6.19573421       4.38104550      10.73132688      -0.00000173      -0.00000165      -0.00000051
Se      -0.00000010       0.00000014      -0.00000013      -0.00000072      -0.00000016       0.00000019
Br       2.08521817       1.47447197       7.15421794      -0.00030160      -0.00021335      -0.00000035
Br       6.17576076       4.36692250       7.15421823       0.00030226       0.00021395       0.00000028
Br       5.15312536       1.47447227       5.38296086       0.00015073      -0.00021232      -0.00026182
Br       3.10785423       4.36692214       8.92547483      -0.00015020       0.00021254       0.00026186
Br       3.10785415       4.36692220       5.38296123      -0.00015051       0.00021346      -0.00026143
Br       5.15312538       1.47447221       8.92547497       0.00015010      -0.00021256       0.00026143
