9
Lattice="6.666558649437993 -1.1695396048435124e-08 3.848939505888039 2.22218622340706 6.285291786480137 3.848939474790329 4.755040039731635e-08 -4.463551847262189e-09 7.697878929416365" Properties=species:S:1:pos:R:3:forces:R:3 energy=-15.778953552246094 free_energy=-15.778953552246094 stress="-1.3683027646038681e-05 1.916141911806335e-08 4.745457804489206e-09 1.916141911806335e-08 -1.3690789273823611e-05 1.0808117734129041e-09 4.745457804489206e-09 1.0808117734129041e-09 -1.3710142411582638e-05" pbc="T T T"
Cu       2.22218650       1.57132336       3.84893918       0.00000029       0.00000127      -0.00000075
Cu       6.66655858       4.71396861      11.54681810       0.00000063      -0.00000019      -0.00000091
Se       0.00000009       0.00000006       0.00000024      -0.00000080      -0.00000067       0.00000012
I        2.35183129       1.66299574       7.69787913      -0.00277400      -0.00196105       0.00000047
I        6.53691368       4.62229598       7.69787899       0.00277442       0.00196125       0.00000059
I        5.49064292       1.66299564       5.88568509       0.00138652      -0.00196105      -0.00240165
I        3.39810190       4.62229574       9.51007285      -0.00138655       0.00196066       0.00240186
I        3.39810176       4.62229599       5.88568520      -0.00138669       0.00196056      -0.00240180
I        5.49064295       1.66299597       9.51007285       0.00138623      -0.00196074       0.00240205
