9
Lattice="6.014614287810008 1.0622407582695478e-08 3.472539577161649 2.0048714776325465 5.670632882601289 3.4725395107416124 9.901678576839116e-08 -1.1332172398355393e-08 6.945078982821197" Properties=species:S:1:pos:R:3:forces:R:3 energy=-22.913063049316406 free_energy=-22.913063049316406 stress="0.0003652273735497147 1.5659091801012437e-09 1.9865522560280624e-08 1.5659091801012437e-09 0.0003652069135569036 -9.306499570982396e-09 1.9865522560280624e-08 -9.306499570982396e-09 0.00036522094160318375" pbc="T T T"
Cu       2.00487194       1.41765832       3.47253951       0.00000040      -0.00000131       0.00000043
Cu       6.01461349       4.25297437      10.41761852      -0.00000340      -0.00000138       0.00000124
Si      -0.00000010       0.00000022      -0.00000023       0.00000177      -0.00000245       0.00000184
Br       1.95389946       1.38161569       6.94507866      -0.00744034      -0.00526356       0.00000046
Br       6.06558665       4.28901760       6.94507888       0.00744202       0.00526185       0.00000003
Br       5.03766488       1.38161542       5.16466624       0.00372062      -0.00526047      -0.00644282
Br       2.98182109       4.28901727       8.72549192      -0.00371954       0.00526188       0.00644673
Br       2.98182139       4.28901723       5.16466657      -0.00372139       0.00526450      -0.00645094
Br       5.03766466       1.38161544       8.72549222       0.00371987      -0.00525913       0.00644292
