9
Lattice="6.582175276540106 9.46727261352712e-08 3.800220653642429 2.194058520723865 6.205734313165151 3.800220643332918 3.8582239359116586e-08 1.465522368441374e-08 7.600441240458523" Properties=species:S:1:pos:R:3:forces:R:3 energy=-19.045900344848633 free_energy=-19.045900344848633 stress="0.00017510018369648606 -1.7928352136209469e-09 -2.5593345220897845e-09 -1.7928352136209469e-09 0.00017509298049844801 -6.904174454369638e-10 -2.5593345220897845e-09 -6.904174454369638e-10 0.00017509688041172922" pbc="T T T"
Cu       2.19405838       1.55143351       3.80022055      -0.00000013      -0.00000017      -0.00000016
Cu       6.58217542       4.65430093      11.40066160      -0.00000010       0.00000044      -0.00000093
Si      -0.00000001      -0.00000008      -0.00000056       0.00000007      -0.00000033       0.00000113
I        2.18497306       1.54500928       7.60044119      -0.00444074      -0.00313995       0.00000019
I        6.59126087       4.66072528       7.60044151       0.00444068       0.00313985       0.00000047
I        5.48968867       1.54500901       5.69246301       0.00222061      -0.00314082      -0.00384597
I        3.28654503       4.66072531       9.50841991      -0.00221983       0.00313980       0.00384613
I        3.28654492       4.66072521       5.69246284      -0.00222050       0.00314067      -0.00384615
I        5.48968898       1.54500921       9.50842003       0.00221999      -0.00313950       0.00384532
