9
Lattice="6.851059484512299 -1.846734632610891e-08 3.955461021791358 2.2836865104838293 6.459240764130296 3.955460964533899 8.098821412234087e-09 -6.439904743175647e-08 7.910922029555181" Properties=species:S:1:pos:R:3:forces:R:3 energy=-24.057348251342773 free_energy=-24.057348251342773 stress="9.82910642051138e-05 2.5487777222110708e-08 -8.50865866652839e-09 2.5487777222110708e-08 9.82844503596425e-05 1.0475063483283975e-08 -8.50865866652839e-09 1.0475063483283975e-08 9.826315363170579e-05" pbc="T T T"
Cu       2.28368646       1.61480980       3.95546138      -0.00000060      -0.00000094       0.00000133
Cu       6.85105964       4.84443071      11.86638287       0.00000027       0.00000078      -0.00000124
Sc       0.00000028      -0.00000050      -0.00000077      -0.00000300       0.00000381       0.00000952
I        2.32684014       1.64532458       7.91092166      -0.00305942      -0.00216305      -0.00000081
I        6.80790572       4.81391630       7.91092204       0.00306015       0.00216384       0.00000095
I        5.68763957       1.64532416       5.97056386       0.00152994      -0.00216542      -0.00265037
I        3.44710607       4.81391721       9.85128104      -0.00152583       0.00215885       0.00264285
I        3.44710640       4.81391645       5.97056324      -0.00152956       0.00216246      -0.00264779
I        5.68763972       1.64532396       9.85128072       0.00152802      -0.00216037       0.00264543
