9
Lattice="4.719148657105307 -3.2712075566261824e-08 2.7246020137132883 1.573049537292024 4.449256081188785 2.724601986407865 -4.238796325053857e-08 -6.34150196058711e-08 5.449204100844616" Properties=species:S:1:pos:R:3:forces:R:3 energy=-32.0772705078125 free_energy=-32.0772705078125 stress="-0.000458404392702505 4.6642576023714355e-08 2.2199582616622138e-08 4.6642576023714355e-08 -0.0004584474372677505 -3.220040056817197e-08 2.2199582616622138e-08 -3.220040056817197e-08 -0.0004584940033964813" pbc="T T T"
Cu       1.57304935       1.11231371       2.72460195      -0.00000039      -0.00000128      -0.00000079
Cu       4.71914867       3.33694220       8.17380566      -0.00000026       0.00000068      -0.00000212
Se      -0.00000007      -0.00000006       0.00000029       0.00000156       0.00000517      -0.00001806
F        1.56570247       1.10711915       5.44920450      -0.00270848      -0.00191578       0.00000118
F        4.72649543       3.34213703       5.44920454       0.00270654       0.00191368       0.00000286
F        3.93629753       1.10711865       4.08054013       0.00135053      -0.00191107      -0.00233722
F        2.35590084       3.34213707       6.81786757      -0.00135194       0.00191352       0.00234474
F        2.35590091       3.34213729       4.08054031      -0.00135208       0.00191107      -0.00233832
F        3.93629741       1.10711898       6.81786750       0.00135460      -0.00191593       0.00234780
