9
Lattice="6.026758066838051 -1.8259928355190025e-07 3.4795504374830735 2.0089191506023125 5.682081909085895 3.4795504943880218 -1.4360491712606197e-07 -3.184998777157144e-08 6.959101123697223" Properties=species:S:1:pos:R:3:forces:R:3 energy=-18.42619514465332 free_energy=-18.42619514465332 stress="0.0002622701576910913 -4.706717238178726e-09 1.6868707319872556e-08 -4.706717238178726e-09 0.00026225068722851574 -6.753022585570534e-09 1.6868707319872556e-08 -6.753022585570534e-09 0.0002622741158120334" pbc="T T T"
Cu       2.00891897       1.42052011       3.47955075       0.00000023      -0.00000229       0.00000066
Cu       6.02675789       4.26156097      10.43865162      -0.00000109       0.00000022       0.00000134
S        0.00000003       0.00000011      -0.00000021      -0.00000013      -0.00000148      -0.00000116
Br       2.02445839       1.43150827       6.95910098      -0.00350490      -0.00247862      -0.00000030
Br       6.01121872       4.25057358       6.95910089       0.00350499       0.00247938      -0.00000025
Br       5.01452857       1.43150817       5.23278323       0.00175324      -0.00247880      -0.00303598
Br       3.02114841       4.25057360       8.68541905      -0.00175257       0.00248044       0.00303635
Br       3.02114892       4.25057341       5.23278323      -0.00175299       0.00248018      -0.00303740
Br       5.01452841       1.43150855       8.68541872       0.00175321      -0.00247902       0.00303672
