9
Lattice="4.458795195888091 -9.298060791177817e-09 2.57428660512444 1.4862650567930227 4.203792416718859 2.5742866046684107 -2.5130845823748214e-09 -2.3355367154827645e-09 5.14857321460167" Properties=species:S:1:pos:R:3:forces:R:3 energy=-32.33172607421875 free_energy=-32.33172607421875 stress="-0.0005523408181034029 -7.612234043108401e-08 1.509254587972464e-08 -7.612234043108401e-08 -0.0005524349980987608 -4.368046901959133e-08 1.509254587972464e-08 -4.368046901959133e-08 -0.000552397221326828" pbc="T T T"
Cu       1.48626504       1.05094806       2.57428660      -0.00000034      -0.00000000      -0.00000003
Cu       4.45879521       3.15284430       7.72285981       0.00000019       0.00000018       0.00000034
S        0.00000001      -0.00000003      -0.00000012      -0.00000052      -0.00000173      -0.00000028
F        1.48906557       1.05292834       5.14857324       0.00066927       0.00047338      -0.00000003
F        4.45599461       3.15086403       5.14857325      -0.00066829      -0.00047258       0.00000029
F        3.71426243       1.05292837       3.86385524      -0.00033383       0.00047228       0.00057815
F        2.23079787       3.15086405       6.43329122       0.00033429      -0.00047261      -0.00057811
F        2.23079784       3.15086410       3.86385526       0.00033304      -0.00047110       0.00057675
F        3.71426242       1.05292841       6.43329121      -0.00033368       0.00047234      -0.00057723
