9
Lattice="5.879733393389256 -2.5910125971738175e-08 3.39466560907034 1.959911130396582 5.5434656628958185 3.3946655680291777 -8.181046252236302e-08 -1.0811370160173882e-07 6.789331359840571" Properties=species:S:1:pos:R:3:forces:R:3 energy=-25.15605354309082 free_energy=-25.15605354309082 stress="0.00012268649879842997 -1.4647760337993532e-08 -1.082282619080388e-08 -1.4647760337993532e-08 0.00012269473518244922 -1.561809348515908e-09 -1.082282619080388e-08 -1.561809348515908e-09 0.00012267843703739345" pbc="T T T"
Cu       1.95991144       1.38586654       3.39466591       0.00000101       0.00000097       0.00000237
Cu       5.87973333       4.15759949      10.18399639       0.00000056       0.00000187      -0.00000292
Sn      -0.00000000      -0.00000000       0.00000047       0.00000173      -0.00000026      -0.00000857
Cl       1.99216289       1.40867168       6.78933113      -0.00007896      -0.00005534      -0.00000119
Cl       5.84748168       4.13479365       6.78933155       0.00007573       0.00005261      -0.00000074
Cl       4.88365181       1.40867153       5.11992948       0.00003689      -0.00005222      -0.00006557
Cl       2.95599259       4.13479381       8.45873287      -0.00004118       0.00005773       0.00007132
Cl       2.95599235       4.13479363       5.11992927      -0.00003708       0.00005275      -0.00006598
Cl       4.88365168       1.40867184       8.45873307       0.00004141      -0.00005811       0.00007131
