9
Lattice="4.443498236522898 -7.87837531517083e-08 2.5654548619586826 1.4811660468438477 4.189370044149404 2.565454788726068 4.6544814723512546e-08 -5.677918596528332e-08 5.130909643299468" Properties=species:S:1:pos:R:3:forces:R:3 energy=-42.8242301940918 free_energy=-42.8242301940918 stress="3.7480225728359073e-05 -9.869336281553842e-08 4.1739589562439505e-08 -9.869336281553842e-08 3.7638375943060964e-05 -1.4695135774900336e-08 4.1739589562439505e-08 -1.4695135774900336e-08 3.752926204469986e-05" pbc="T T T"
Cu       1.48116605       1.04734241       2.56545472       0.00000061       0.00000062      -0.00000037
Cu       4.44349806       3.14202748       7.69636457      -0.00000030      -0.00000030       0.00000011
Si       0.00000024      -0.00000001       0.00000005       0.00000134      -0.00000219      -0.00000134
F        1.38203101       0.97724326       5.13090967      -0.00097999      -0.00069317       0.00000017
F        4.54263365       3.21212677       5.13090960       0.00097716       0.00069109       0.00000142
F        3.75248254       0.97724340       3.76232840       0.00049187      -0.00069508      -0.00084642
F        2.17218157       3.21212647       6.49949088      -0.00049092       0.00069647       0.00084880
F        2.17218171       3.21212631       3.76232859      -0.00049348       0.00069876      -0.00085133
F        3.75248256       0.97724353       6.49949082       0.00049394      -0.00069630       0.00084859
