9
Lattice="6.534498873411426 1.71164261437706e-08 3.772694817580162 2.1781663004052882 6.160784675702939 3.7726948294783167 6.068609955678892e-08 5.748376413234553e-08 7.545389530048921" Properties=species:S:1:pos:R:3:forces:R:3 energy=-15.644682884216309 free_energy=-15.644682884216309 stress="-6.892329110996798e-05 -1.2845715602338714e-08 -1.1956857726147518e-10 -1.2845715602338714e-08 -6.893633690197021e-05 -1.2150808359479015e-08 -1.1956857726147518e-10 -1.2150808359479015e-08 -6.899267464177683e-05" pbc="T T T"
Cu       2.17816620       1.54019654       3.77269483       0.00000006       0.00000109      -0.00000004
Cu       6.53449902       4.62058855      11.31808392       0.00000070      -0.00000004      -0.00000184
S       -0.00000015      -0.00000003       0.00000036       0.00000055       0.00000090      -0.00000021
I        2.32683777       1.64532277       7.54538936       0.00576359       0.00407486      -0.00000075
I        6.38582753       4.51546188       7.54538993      -0.00576350      -0.00407591       0.00000107
I        5.37108003       1.64532271       5.78779535      -0.00288209       0.00407521       0.00499147
I        3.34158525       4.51546189       9.30298386       0.00288205      -0.00407644      -0.00499031
I        3.34158525       4.51546188       5.78779532       0.00288130      -0.00407580       0.00499046
I        5.37108003       1.64532277       9.30298379      -0.00288267       0.00407609      -0.00498986
