9
Lattice="6.196177828209341 1.1817932470400576e-07 3.5773649826865785 2.065392663041538 5.841812287944443 3.577365082768013 1.8056086468579808e-08 1.3534191742028627e-07 7.154729934098981" Properties=species:S:1:pos:R:3:forces:R:3 energy=-18.329395294189453 free_energy=-18.329395294189453 stress="9.824844892136753e-05 1.0765845104288019e-08 2.203703663994361e-09 1.0765845104288019e-08 9.823624714044854e-05 -2.1367212166278904e-10 2.203703663994361e-09 -2.1367212166278904e-10 9.824216976994649e-05" pbc="T T T"
Cu       2.06539274       1.46045276       3.57736494       0.00000001      -0.00000112      -0.00000018
Cu       6.19617821       4.38135966      10.73209594       0.00000166       0.00000090       0.00000300
Se      -0.00000002       0.00000013      -0.00000009      -0.00000064      -0.00000016      -0.00000037
Br       2.08525571       1.47449850       7.15472986      -0.00004499      -0.00003149      -0.00000013
Br       6.17631484       4.36731387       7.15472948       0.00004524       0.00003231      -0.00000086
Br       5.15355000       1.47449842       5.38324923       0.00002162      -0.00003121      -0.00003851
Br       3.10802013       4.36731417       8.92621075      -0.00002275       0.00003123       0.00003716
Br       3.10802047       4.36731410       5.38324938      -0.00002191       0.00003126      -0.00003815
Br       5.15354992       1.47449854       8.92621049       0.00002179      -0.00003169       0.00003793
