9
Lattice="4.72971557344613 1.464785648294385e-07 2.7307027128759636 1.5765720027610588 4.459218961467606 2.7307027010212828 1.2692868751143035e-07 7.523304448732591e-08 5.461405205904986" Properties=species:S:1:pos:R:3:forces:R:3 energy=-32.077449798583984 free_energy=-32.077449798583984 stress="-6.0286562074907124e-05 -5.2548198681279246e-08 -3.296390715945563e-09 -5.2548198681279246e-08 -6.0260768805164844e-05 7.794719536491357e-09 -3.296390715945563e-09 7.794719536491357e-09 -6.0222151660127565e-05" pbc="T T T"
Cu       1.57657084       1.11480451       2.73070210      -0.00000381      -0.00000221      -0.00000340
Cu       4.72971774       3.34441326       8.19210838       0.00000603      -0.00000378       0.00000120
Se      -0.00000028       0.00000006      -0.00000010       0.00000713       0.00000261      -0.00000721
F        1.56574820       1.10715208       5.46140571       0.00399731       0.00283070       0.00000094
F        4.74053869       3.35206770       5.46140518      -0.00400119      -0.00283019       0.00000014
F        3.94684193       1.10715159       4.08668088      -0.00199737       0.00282758       0.00346495
F        2.35944608       3.35206723       6.83612939       0.00199389      -0.00282413      -0.00346152
F        2.35944649       3.35206814       4.08668107       0.00199668      -0.00282659       0.00346577
F        3.94684126       1.10715204       6.83612981      -0.00199874       0.00282590      -0.00346091
