9
Lattice="5.78062102141995 2.966151443965557e-08 3.3374432830070027 1.9268736837316627 5.450021962476749 3.3374433142534508 -1.4301031304819917e-09 3.7257686950936786e-08 6.674886568491006" Properties=species:S:1:pos:R:3:forces:R:3 energy=-21.303056716918945 free_energy=-21.303056716918945 stress="1.6465222870465368e-05 -2.7765494792220125e-08 5.5766761875020165e-08 -2.7765494792220125e-08 1.651375350775197e-05 -2.604192417265949e-09 5.5766761875020165e-08 -2.604192417265949e-09 1.653744766372256e-05" pbc="T T T"
Cu       1.92687365       1.36250608       3.33744344       0.00000046       0.00000068      -0.00000107
Cu       5.78062111       4.08751616      10.01233074       0.00000022      -0.00000248       0.00000472
S        0.00000031      -0.00000003       0.00000028      -0.00000266       0.00000104      -0.00000342
Cl       1.90998236       1.35056157       6.67488655       0.00495297       0.00350106       0.00000049
Cl       5.79751215       4.09946045       6.67488602      -0.00495030      -0.00350189      -0.00000032
Cl       4.82562957       1.35056195       4.99153675      -0.00247537       0.00350235       0.00428812
Cl       2.88186504       4.09946008       8.35823594       0.00247417      -0.00350068      -0.00428610
Cl       2.88186498       4.09946012       4.99153704       0.00247480      -0.00349998       0.00428463
Cl       4.82562962       1.35056176       8.35823590      -0.00247425       0.00349994      -0.00428686
