9
Lattice="4.460779467657885 2.3324740383186947e-08 2.5754321481524904 1.4869265090046198 4.205663147308176 2.57543215197253 -7.245624038559637e-09 -4.449117355911092e-10 5.150864308854805" Properties=species:S:1:pos:R:3:forces:R:3 energy=-32.33173370361328 free_energy=-32.33173370361328 stress="-0.00011398073547752574 3.6676581771644123e-08 -2.596963755152615e-09 3.6676581771644123e-08 -0.0001139788146247156 2.0107385978462844e-08 -2.596963755152615e-09 2.0107385978462844e-08 -0.00011400899529689923" pbc="T T T"
Cu       1.48692647       1.05141571       2.57543224       0.00000050      -0.00000014       0.00000035
Cu       4.46077952       3.15424745       7.72629647       0.00000007      -0.00000017       0.00000011
S        0.00000018       0.00000013      -0.00000011      -0.00000548      -0.00000383       0.00000361
F        1.48879692       1.05273840       5.15086417       0.00758806       0.00536636      -0.00000027
F        4.45890910       3.15292468       5.15086424      -0.00758788      -0.00536524      -0.00000095
F        3.71638082       1.05273856       3.86476814      -0.00379270       0.00536640       0.00657161
F        2.23132505       3.15292468       6.43696062       0.00379549      -0.00536546      -0.00657274
F        2.23132502       3.15292466       3.86476802       0.00379628      -0.00536591       0.00657329
F        3.71638079       1.05273848       6.43696068      -0.00379427       0.00536801      -0.00657517
