9
Lattice="4.716094317405372 -2.610604162130721e-09 2.7228383669735696 1.5720314455691768 4.446376500091106 2.722838351566282 1.6521030272337265e-08 -7.187866016890127e-09 5.445676705331832" Properties=species:S:1:pos:R:3:forces:R:3 energy=-43.49186325073242 free_energy=-43.49186325073242 stress="0.00019486471137497574 2.7513822331570736e-08 -3.180766317001371e-09 2.7513822331570736e-08 0.00019484266522340477 -4.566070899159058e-08 -3.180766317001371e-09 -4.566070899159058e-08 0.00019477764726616442" pbc="T T T"
Cu       1.57203067       1.11159391       2.72283757      -0.00000248      -0.00000247      -0.00000151
Cu       4.71609418       3.33478248       8.16851496      -0.00000202       0.00000173       0.00000021
Sc      -0.00000007      -0.00000012       0.00000013      -0.00000326       0.00000305      -0.00000276
F        1.61044995       1.13875957       5.44567651      -0.00088978      -0.00062948       0.00000018
F        4.67767574       3.30761670       5.44567695       0.00089407       0.00063029      -0.00000002
F        3.91087013       1.13875990       4.11752899       0.00044718      -0.00062829      -0.00076847
F        2.37725651       3.30761666       6.77382478      -0.00044523       0.00062700       0.00076985
F        2.37725658       3.30761678       4.11752900      -0.00044440       0.00062931      -0.00077085
F        3.91086940       1.13876003       6.77382480       0.00044592      -0.00063147       0.00077352
