9
Lattice="5.776098303326938 7.597777379696667e-08 3.334831724863525 1.925366108604387 5.445757178928705 3.3348318359522433 -4.684409194446943e-08 1.0293156793797653e-07 6.669663530863421" Properties=species:S:1:pos:R:3:forces:R:3 energy=-30.88115882873535 free_energy=-30.88115882873535 stress="0.0002545429742895067 2.4544357657418914e-08 -2.0926210098082265e-08 2.4544357657418914e-08 0.000254546117503196 1.1785918907492032e-08 -2.0926210098082265e-08 1.1785918907492032e-08 0.0002545453899074346" pbc="T T T"
Cu       1.92536600       1.36143981       3.33483171       0.00000068       0.00000082      -0.00000053
Cu       5.77609825       4.08431780      10.00449580      -0.00000131      -0.00000159       0.00000127
Sc       0.00000013      -0.00000013      -0.00000033      -0.00000457      -0.00000064       0.00000445
Cl       1.98122153       1.40093530       6.66966301      -0.00645904      -0.00456528       0.00000082
Cl       5.72024257       4.04482166       6.66966289       0.00646330       0.00456923       0.00000022
Cl       4.78548715       1.40093531       5.05062022       0.00323157      -0.00456980      -0.00559826
Cl       2.91597714       4.04482211       8.28870755      -0.00322867       0.00456750       0.00559305
Cl       2.91597731       4.04482253       5.05062012      -0.00323071       0.00456658      -0.00559418
Cl       4.78548737       1.40093507       8.28870749       0.00322867      -0.00456695       0.00559323
