9
Lattice="5.779617804812015 4.0720208403447156e-08 3.3368638886121262 1.9265393309125087 5.4490757131325065 3.3368638466090923 3.046698647230739e-08 -2.989958853227855e-08 6.673727724453868" Properties=species:S:1:pos:R:3:forces:R:3 energy=-21.30307388305664 free_energy=-21.30307388305664 stress="-1.4688671399198938e-05 3.5855201474532805e-08 -4.425079414005495e-09 3.5855201474532805e-08 -1.4700838619319256e-05 -1.0772023273375453e-08 -4.425079414005495e-09 -1.0772023273375453e-08 -1.4717259546159767e-05" pbc="T T T"
Cu       1.92653940       1.36226869       3.33686404       0.00000145       0.00000002       0.00000020
Cu       5.77961815       4.08680727      10.01059158       0.00000050       0.00000009       0.00000038
S       -0.00000013      -0.00000035       0.00000001       0.00000089       0.00000402      -0.00000057
Cl       1.91041506       1.35086750       6.67372783      -0.00034956      -0.00024724      -0.00000019
Cl       5.79574234       4.09820813       6.67372765       0.00034773       0.00024646       0.00000040
Cl       4.82441015       1.35086745       4.99133143       0.00017293      -0.00024667      -0.00030027
Cl       2.88174686       4.09820836       8.35612361      -0.00017279       0.00024508       0.00029971
Cl       2.88174670       4.09820839       4.99133170      -0.00017414       0.00024470      -0.00029951
Cl       4.82441015       1.35086746       8.35612399       0.00017294      -0.00024649       0.00029992
