9
Lattice="6.19369641932834 -4.436090991686283e-08 3.5759323421502125 2.064565419149631 5.839472679061311 3.5759323631702697 2.6237266659019486e-08 4.429672337954923e-08 7.151864638856142" Properties=species:S:1:pos:R:3:forces:R:3 energy=-21.62657356262207 free_energy=-21.62657356262207 stress="0.00016015846631489694 5.765846466943003e-09 4.509995044088555e-09 5.765846466943003e-09 0.00016016227891668677 -1.6129858559921217e-09 4.509995044088555e-09 -1.6129858559921217e-09 0.0001601588010089472" pbc="T T T"
Cu       2.06456499       1.45986765       3.57593270      -0.00000079      -0.00000203       0.00000174
Cu       6.19369616       4.37960466      10.72779838      -0.00000147       0.00000110       0.00000462
Sn       0.00000002      -0.00000029      -0.00000033       0.00000041       0.00000520       0.00000391
Br       2.11853895       1.49803296       7.15186462      -0.00160723      -0.00113747      -0.00000096
Br       6.13972345       4.34143982       7.15186431       0.00160404       0.00113526      -0.00000200
Br       5.13442715       1.49803326       5.41064030       0.00080471      -0.00113666      -0.00139324
Br       3.12383461       4.34143998       8.89308865      -0.00080190       0.00113500       0.00138751
Br       3.12383493       4.34143964       5.41064029      -0.00080155       0.00113645      -0.00139190
Br       5.13442720       1.49803301       8.89308847       0.00080374      -0.00113682       0.00139034
