9
Lattice="5.879481030424816 -4.377185333471523e-09 3.394519927978878 1.9598270025223221 5.54322787276373 3.3945199340279077 -1.043531642391537e-07 -6.638027875116058e-08 6.789040036702727" Properties=species:S:1:pos:R:3:forces:R:3 energy=-25.15605926513672 free_energy=-25.15605926513672 stress="9.382583084516227e-05 -2.108394703270733e-08 -9.472889139772178e-09 -2.108394703270733e-08 9.3770184321329e-05 -3.405016713031728e-08 -9.472889139772178e-09 -3.405016713031728e-08 9.377230890095234e-05" pbc="T T T"
Cu       1.95982709       1.38580678       3.39451896       0.00000157      -0.00000086      -0.00000309
Cu       5.87948072       4.15742016      10.18355938       0.00000010      -0.00000020      -0.00000338
Sn      -0.00000004       0.00000011       0.00000015      -0.00000039       0.00000249      -0.00000416
Cl       1.99213776       1.40865461       6.78904030      -0.00012483      -0.00008602       0.00000246
Cl       5.84716992       4.13457336       6.78903995       0.00012404       0.00008656       0.00000092
Cl       4.88341211       1.40865440       5.11976236       0.00006176      -0.00008768      -0.00010771
Cl       2.95589603       4.13457343       8.45831791      -0.00006220       0.00008760       0.00010857
Cl       2.95589620       4.13457371       5.11976263      -0.00006234       0.00008849      -0.00010607
Cl       4.88341190       1.40865463       8.45831793       0.00006236      -0.00009041       0.00011241
