9
Lattice="4.840903870618751 -5.8458035282809835e-09 2.794897160098862 1.6136346520448837 4.564048004665036 2.7948971011801027 4.105145306627015e-08 -4.3132659017130825e-08 5.589794249094513" Properties=species:S:1:pos:R:3:forces:R:3 energy=-37.06172561645508 free_energy=-37.06172561645508 stress="0.0005107757751829922 3.52379210255549e-08 6.405365837736099e-08 3.52379210255549e-08 0.0005108274635858834 -6.150981590735682e-08 6.405365837736099e-08 -6.150981590735682e-08 0.0005107910837978125" pbc="T T T"
Cu       1.61363488       1.14101221       2.79489770      -0.00000002       0.00000073       0.00000176
Cu       4.84090403       3.42303581       8.38469159       0.00000101      -0.00000140       0.00000013
Sn      -0.00000008      -0.00000012      -0.00000021       0.00000374       0.00000123       0.00000244
F        1.61973568       1.14532593       5.58979435      -0.00459620      -0.00325018      -0.00000060
F        4.83480273       3.41872203       5.58979413       0.00459343       0.00324973       0.00000009
F        4.03103616       1.14532625       4.19762920       0.00229494      -0.00324601      -0.00397667
F        2.42350221       3.41872198       6.98195914      -0.00229530       0.00324535       0.00397411
F        2.42350224       3.41872155       4.19762935      -0.00229967       0.00324979      -0.00398090
F        4.03103641       1.14532624       6.98195886       0.00229807      -0.00324917       0.00397909
