9
Lattice="5.652417945099247 8.482814379910346e-08 3.2634249299243936 1.8841393582975539 5.329150778863285 3.2634249935118835 4.620454236273514e-09 8.114566803273821e-08 6.526849851845878" Properties=species:S:1:pos:R:3:forces:R:3 energy=-27.42474937438965 free_energy=-27.42474937438965 stress="-4.3039366573793814e-05 1.6009929382221344e-08 -4.152893140485503e-09 1.6009929382221344e-08 -4.3098294554511085e-05 2.6954337428719555e-08 -4.152893140485503e-09 2.6954337428719555e-08 -4.312932287575677e-05" pbc="T T T"
Cu       1.88413947       1.33228720       3.26342519       0.00000133      -0.00000262       0.00000029
Cu       5.65241798       3.99686326       9.79027472      -0.00000060      -0.00000067      -0.00000141
Si      -0.00000015      -0.00000003      -0.00000095      -0.00000102       0.00000071       0.00001556
Cl       1.80113547       1.27359521       6.52685001      -0.00146687      -0.00103594      -0.00000159
Cl       5.73542176       4.05555516       6.52684995       0.00146958       0.00103986      -0.00000019
Cl       4.75185013       1.27359557       4.82325363       0.00073426      -0.00104187      -0.00127065
Cl       2.78470737       4.05555612       8.23044596      -0.00073215       0.00103517       0.00126737
Cl       2.78470706       4.05555614       4.82325426      -0.00073480       0.00103755      -0.00127099
Cl       4.75185019       1.27359518       8.23044639       0.00073019      -0.00103191       0.00126204
