9
Lattice="6.534842147299774 -2.53210570015449e-07 3.7728931320893824 2.178280613011767 6.161108577463356 3.7728928965747897 1.3122511666240118e-08 -2.791663180716806e-07 7.5457862414498065" Properties=species:S:1:pos:R:3:forces:R:3 energy=-15.644702911376953 free_energy=-15.644702911376953 stress="8.563742994738277e-07 -1.5497020555699237e-08 1.4425432404152616e-08 -1.5497020555699237e-08 8.321810582856415e-07 -5.611201281396916e-09 1.4425432404152616e-08 -5.611201281396916e-09 8.360004812857369e-07" pbc="T T T"
Cu       2.17828085       1.54027709       3.77289273       0.00000119      -0.00000052      -0.00000137
Cu       6.53484240       4.62083102      11.31867962       0.00000065       0.00000089       0.00000171
S        0.00000034       0.00000141      -0.00000065       0.00000032       0.00000121      -0.00000242
I        2.32769604       1.64592912       7.54578649      -0.00001526      -0.00001107       0.00000109
I        6.38542628       4.51517882       7.54578549       0.00001344       0.00001107      -0.00000076
I        5.37099411       1.64592901       5.78873745       0.00000796      -0.00001179      -0.00001302
I        3.34212870       4.51517807       9.30283528      -0.00000836       0.00001109       0.00001293
I        3.34212881       4.51517849       5.78873743      -0.00000639       0.00001106      -0.00001228
I        5.37099355       1.64592910       9.30283523       0.00000642      -0.00001201       0.00001407
