9
Lattice="6.774232841705872 -4.596820706975943e-08 3.911105169667499 2.258077568388944 6.386807967915789 3.9111051734325506 -2.0612835027870955e-08 -9.964198115264542e-09 7.822210375037419" Properties=species:S:1:pos:R:3:forces:R:3 energy=-17.96864128112793 free_energy=-17.96864128112793 stress="6.780544208595529e-05 -3.0722022148488293e-10 -3.6531178082555016e-09 -3.0722022148488293e-10 6.780739204259589e-05 7.771533638845085e-09 -3.6531178082555016e-09 7.771533638845085e-09 6.779521936550736e-05" pbc="T T T"
Cu       2.25807774       1.59670179       3.91110487      -0.00000005      -0.00000150      -0.00000024
Cu       6.77423264       4.79010591      11.73331528      -0.00000001      -0.00000016       0.00000002
Sn       0.00000002      -0.00000013       0.00000012      -0.00000046       0.00000017       0.00000247
I        2.36734878       1.67396842       7.82221040      -0.00086941      -0.00061417       0.00000037
I        6.66496154       4.71283958       7.82221040       0.00086994       0.00061506      -0.00000013
I        5.59055814       1.67396854       5.96128968       0.00043575      -0.00061595      -0.00075474
I        3.44175225       4.71283948       9.68313116      -0.00043488       0.00061490       0.00075288
I        3.44175213       4.71283945       5.96128977      -0.00043533       0.00061613      -0.00075394
I        5.59055830       1.67396855       9.68313121       0.00043447      -0.00061452       0.00075328
