9
Lattice="6.3140927344909 -2.63289381225458e-08 3.645443080797999 2.1046975512631194 5.952983818417351 3.6454430843959997 -1.6338215871766398e-08 -7.146206428936177e-09 7.290886189894764" Properties=species:S:1:pos:R:3:forces:R:3 energy=-31.519363403320312 free_energy=-31.519363403320312 stress="9.157296881312504e-05 -1.4343187082488384e-08 -1.8331311579800058e-08 -1.4343187082488384e-08 9.159270848613232e-05 2.3896005174606216e-08 -1.8331311579800058e-08 2.3896005174606216e-08 9.159371256828308e-05" pbc="T T T"
Cu       2.10469719       1.48824564       3.64544330      -0.00000047      -0.00000074       0.00000072
Cu       6.31409293       4.46473880      10.93632884       0.00000075       0.00000246      -0.00000125
Ta      -0.00000011       0.00000006      -0.00000025       0.00000312      -0.00000220       0.00000160
Br       2.06414613       1.45957145       7.29088612      -0.00131425      -0.00092963      -0.00000022
Br       6.35464425       4.49341217       7.29088653       0.00131398       0.00092926      -0.00000026
Br       5.28201973       1.45957139       5.43304605       0.00065799      -0.00093154      -0.00113949
Br       3.13677064       4.49341221       9.14872630      -0.00065976       0.00093214       0.00114100
Br       3.13677067       4.49341185       5.43304600      -0.00065839       0.00093083      -0.00113973
Br       5.28201965       1.45957160       9.14872647       0.00065699      -0.00093056       0.00113761
