9
Lattice="6.169830022432904 -5.7381441181150345e-08 3.562152957681448 2.056609950370451 5.816971458387281 3.562152962890469 -3.7281033768546155e-08 -1.9981936486274825e-08 7.124305979935584" Properties=species:S:1:pos:R:3:forces:R:3 energy=-27.849960327148438 free_energy=-27.849960327148438 stress="8.275613799924031e-05 -3.84827858468384e-09 -1.5175960044189196e-08 -3.84827858468384e-09 8.277071901829913e-05 8.96401353145393e-09 -1.5175960044189196e-08 8.96401353145393e-09 8.273933053715155e-05" pbc="T T T"
Cu       2.05661026       1.45424243       3.56215260       0.00000123      -0.00000057      -0.00000058
Cu       6.16983006       4.36272893      10.68645975      -0.00000061       0.00000088       0.00000161
Ti      -0.00000025       0.00000006      -0.00000052       0.00000231       0.00000018       0.00000703
Br       2.03519892       1.43910293       7.12430590      -0.00028874      -0.00020458       0.00000056
Br       6.19124083       4.37786830       7.12430568       0.00028753       0.00020488      -0.00000102
Br       5.15223048       1.43910315       5.32468702       0.00014526      -0.00020635      -0.00025213
Br       3.07420942       4.37786841       8.92392521      -0.00014445       0.00020352       0.00024849
Br       3.07420956       4.37786828       5.32468704      -0.00014513       0.00020568      -0.00025176
Br       5.15223043       1.43910306       8.92392507       0.00014253      -0.00020367       0.00024766
