9
Lattice="4.773805054449771 -1.6526455193078775e-07 2.7561578301849488 1.5912681730139226 4.500786867737862 2.7561578694270534 -8.164904416062004e-08 -9.673050881103479e-09 5.512315801790207" Properties=species:S:1:pos:R:3:forces:R:3 energy=-45.48884963989258 free_energy=-45.48884963989258 stress="0.00010290497448295355 -9.490270969081394e-08 8.287054242828162e-08 -9.490270969081394e-08 0.00010295995161868632 -1.0603650935081532e-07 8.287054242828162e-08 -1.0603650935081532e-07 0.00010317476699128747" pbc="T T T"
Cu       1.59126796       1.12519701       2.75615773      -0.00000289       0.00000119      -0.00000186
Cu       4.77380418       3.37559006       8.26847332      -0.00000194       0.00000240      -0.00000128
Ti      -0.00000028       0.00000007      -0.00000026      -0.00000067       0.00000451       0.00000179
F        1.53985199       1.08883919       5.51231625       0.00093555       0.00066192      -0.00000079
F        4.82522164       3.41194651       5.51231605      -0.00093611      -0.00066198      -0.00000107
F        4.00387962       1.08883946       4.08970982      -0.00046546       0.00065912       0.00080197
F        2.36119449       3.41194696       6.93492266       0.00046672      -0.00066061      -0.00080748
F        2.36119446       3.41194712       4.08970931       0.00046458      -0.00065732       0.00080161
F        4.00387866       1.08884037       6.93492128      -0.00045957       0.00065057      -0.00079347
