9
Lattice="5.7285551123982845 9.297820783683431e-08 3.3073829164600106 1.9095183863789462 5.400934056195878 3.307383041308246 -1.7945965433214593e-07 2.601003817791842e-08 6.614766143753328" Properties=species:S:1:pos:R:3:forces:R:3 energy=-31.91094398498535 free_energy=-31.91094398498535 stress="0.00013876185403205454 5.365301092297159e-09 -2.050748237891753e-09 5.365301092297159e-09 0.00013874087017029524 3.629791223147549e-08 -2.050748237891753e-09 3.629791223147549e-08 0.00013875612057745457" pbc="T T T"
Cu       1.90951826       1.35023304       3.30738253      -0.00000010      -0.00000159      -0.00000259
Cu       5.72855487       4.05070070       9.92215106      -0.00000010       0.00000014       0.00000658
Ti       0.00000004      -0.00000017       0.00000047       0.00000057      -0.00000008      -0.00000345
Cl       1.90109648       1.34427837       6.61476594      -0.00267702      -0.00189172      -0.00000111
Cl       5.73697701       4.05665562       6.61476577       0.00267625       0.00189301      -0.00000090
Cl       4.77800696       1.34427899       4.95378048       0.00133894      -0.00189346      -0.00231849
Cl       2.86006635       4.05665587       8.27575084      -0.00134033       0.00189495       0.00231861
Cl       2.86006695       4.05665618       4.95378052      -0.00133565       0.00189143      -0.00231402
Cl       4.77800631       1.34427813       8.27575082       0.00133738      -0.00189273       0.00231576
