9
Lattice="6.856319473889987 5.252145675331155e-08 3.9584978384383396 2.2854398762889327 6.464199995284559 3.9584978347297057 -1.826141688786359e-08 -1.7454928298029684e-08 7.916995708506389" Properties=species:S:1:pos:R:3:forces:R:3 energy=-27.354700088500977 free_energy=-27.354700088500977 stress="0.00011355640890542418 1.1551610334947782e-08 -1.064905585934639e-08 1.1551610334947782e-08 0.00011354218440828845 1.3170625479119735e-08 -1.064905585934639e-08 1.3170625479119735e-08 0.00011353129229974002" pbc="T T T"
Cu       2.28543940       1.61604981       3.95849781      -0.00000000      -0.00000008      -0.00000018
Cu       6.85631963       4.84815030      11.87549306      -0.00000011       0.00000015      -0.00000140
Ta      -0.00000001       0.00000056      -0.00000037       0.00000009      -0.00000473       0.00000538
I        2.24764825       1.58932734       7.91699568      -0.00194094      -0.00137240       0.00000034
I        6.89411115       4.87487249       7.91699603       0.00194251       0.00137299      -0.00000013
I        5.73249529       1.58932712       5.90501809       0.00097099      -0.00137238      -0.00167961
I        3.40926421       4.87487271       9.92897305      -0.00097015       0.00137218       0.00168050
I        3.40926389       4.87487264       5.90501847      -0.00097065       0.00137340      -0.00168121
I        5.73249547       1.58932711       9.92897371       0.00096828      -0.00136914       0.00167625
