9
Lattice="5.16550886379643 -6.257180139108958e-08 2.9823079799647965 1.7218361714825179 4.870088062964456 2.982308079482254 -1.4052775444979933e-07 2.2515314969009742e-08 5.964616203330806" Properties=species:S:1:pos:R:3:forces:R:3 energy=-49.0531005859375 free_energy=-49.0531005859375 stress="0.00016344079631380737 -1.285719175569966e-08 2.375288055134206e-08 -1.285719175569966e-08 0.00016344703908544034 3.414641369658966e-08 2.375288055134206e-08 3.414641369658966e-08 0.00016343079914804548" pbc="T T T"
Cu       1.72183605       1.21752193       2.98230785      -0.00000063      -0.00000010      -0.00000050
Cu       5.16550864       3.65256599       8.94692423       0.00000047       0.00000015       0.00000036
Ta       0.00000012       0.00000013       0.00000019      -0.00000650       0.00000100       0.00000990
F        1.58484105       1.12065186       5.96461614      -0.00120884      -0.00085485      -0.00000037
F        5.30250338       3.74943628       5.96461594       0.00121224       0.00085753       0.00000119
F        4.37308839       1.12065213       4.35482135       0.00060794      -0.00086010      -0.00105405
F        2.51425596       3.74943582       7.57441190      -0.00060296       0.00085390       0.00104660
F        2.51425715       3.74943665       4.35482110      -0.00060633       0.00085652      -0.00105023
F        4.37308839       1.12065118       7.57441099       0.00060439      -0.00085431       0.00104755
