9
Lattice="5.973086033881003 -1.5963245696244068e-07 3.448562967160506 1.991028611173762 5.63147929318824 3.448562822159503 1.0887663527086522e-08 -1.6989049659475596e-07 6.897125915463012" Properties=species:S:1:pos:R:3:forces:R:3 energy=-22.38913345336914 free_energy=-22.38913345336914 stress="0.00015029952919576317 -2.0579905779527508e-08 -2.1309941311553615e-10 -2.0579905779527508e-08 0.00015032789087854326 -1.0784643400540972e-08 -2.1309941311553615e-10 -1.0784643400540972e-08 0.0001503063103882596" pbc="T T T"
Cu       1.99102824       1.40786980       3.44856270      -0.00000129      -0.00000058      -0.00000211
Cu       5.97308597       4.22360942      10.34568787      -0.00000035       0.00000099      -0.00000398
Te      -0.00000057       0.00000051      -0.00000020       0.00000842      -0.00000698       0.00000482
Cl       2.01262869       1.42314318       6.89712604      -0.00166112      -0.00117468       0.00000068
Cl       5.95148636       4.20833570       6.89712640       0.00166005       0.00117330       0.00000181
Cl       4.96677146       1.42314308       5.19155077       0.00083010      -0.00117417      -0.00143682
Cl       2.99734303       4.20833588       8.60270087      -0.00083151       0.00117607       0.00144042
Cl       2.99734359       4.20833532       5.19155124      -0.00083423       0.00117901      -0.00144323
Cl       4.96677181       1.42314295       8.60270116       0.00082991      -0.00117295       0.00143836
