9
Lattice="5.0161345505705155 -1.3887665021514558e-07 2.8960666230052037 1.6720447414705766 4.729256576142033 2.8960665845283975 -9.605671613572439e-08 -1.1504667856345408e-07 5.792133412385525" Properties=species:S:1:pos:R:3:forces:R:3 energy=-33.38050842285156 free_energy=-33.38050842285156 stress="-0.0001398276217514649 -5.789254586829884e-08 8.038087173645181e-08 -5.789254586829884e-08 -0.00013978320930618793 -9.323429850383036e-08 8.038087173645181e-08 -9.323429850383036e-08 -0.00013975589536130428" pbc="T T T"
Cu       1.67204444       1.18231457       2.89606649      -0.00000131       0.00000064      -0.00000121
Cu       5.01613416       3.54694231       8.68819932      -0.00000098      -0.00000028      -0.00000182
Te       0.00000028      -0.00000005       0.00000000      -0.00001044      -0.00000344       0.00000164
F        1.66876324       1.17999321       5.79213372       0.00196064       0.00138512       0.00000046
F        5.01941548       3.54926225       5.79213304      -0.00195315      -0.00138208       0.00000091
F        4.18175310       1.17999346       4.34125883      -0.00097662       0.00138275       0.00169465
F        2.50642636       3.54926246       7.24300802       0.00098041      -0.00138435      -0.00169480
F        2.50642679       3.54926208       4.34125902       0.00097400      -0.00137769       0.00168645
F        4.18175283       1.17999481       7.24300808      -0.00097263       0.00137940      -0.00168630
