9
Lattice="6.852897250879008 -5.004173427057775e-08 3.956522033852355 2.2842990463443824 6.460973499490513 3.95652201670874 -1.1733993911275558e-08 -2.9293717522836013e-08 7.913044088028551" Properties=species:S:1:pos:R:3:forces:R:3 energy=-16.188274383544922 free_energy=-16.188274383544922 stress="9.412922372575849e-05 -1.4509234924631187e-09 -3.306588114426745e-09 -1.4509234924631187e-09 9.41288672038354e-05 6.629472526498148e-09 -3.306588114426745e-09 6.629472526498148e-09 9.413650695933029e-05" pbc="T T T"
Cu       2.28429901       1.61524362       3.95652187      -0.00000055       0.00000086      -0.00000135
Cu       6.85289698       4.84573008      11.86956655      -0.00000047       0.00000023       0.00000206
Te      -0.00000009       0.00000008       0.00000020      -0.00000035      -0.00000148      -0.00000010
I        2.41062876       1.70457196       7.91304417      -0.00101800      -0.00071984       0.00000021
I        6.72656746       4.75640115       7.91304399       0.00101929       0.00072024      -0.00000088
I        5.64758297       1.70457201       6.04418778       0.00050964      -0.00071977      -0.00088177
I        3.48961368       4.75640121       9.78190015      -0.00050975       0.00072021       0.00088255
I        3.48961364       4.75640157       6.04418775      -0.00050868       0.00072009      -0.00088217
I        5.64758276       1.70457200       9.78190009       0.00050890      -0.00072054       0.00088147
