9
Lattice="6.171542454707126 -5.944636445746084e-08 3.563141792099777 2.0571807754232156 5.818585986801063 3.5631417691776908 8.693774564664521e-10 -2.7459008510517197e-08 7.126283582693772" Properties=species:S:1:pos:R:3:forces:R:3 energy=-27.84990692138672 free_energy=-27.84990692138672 stress="0.00031341795693151653 -1.1316553027995724e-08 -1.2976244523343894e-09 -1.1316553027995724e-08 0.000313428754452616 4.4218610995017116e-09 -1.2976244523343894e-09 4.4218610995017116e-09 0.00031343355658464134" pbc="T T T"
Cu       2.05718132       1.45464643       3.56314185       0.00000315       0.00000088      -0.00000039
Cu       6.17154289       4.36393992      10.68942592       0.00000243       0.00000123       0.00000051
Ti      -0.00000013      -0.00000015      -0.00000037       0.00000110       0.00000310      -0.00000125
Br       2.03600162       1.43967054       7.12628366      -0.00779921      -0.00551471      -0.00000101
Br       6.19272205       4.37891565       7.12628355       0.00779435       0.00551248       0.00000013
Br       5.15354151       1.43967055       5.32637079       0.00389831      -0.00551321      -0.00675285
Br       3.07518108       4.37891495       8.92619640      -0.00390029       0.00551411       0.00675300
Br       3.07518131       4.37891523       5.32637085      -0.00389902       0.00551182      -0.00675137
Br       5.15354131       1.43967049       8.92619596       0.00389910      -0.00551562       0.00675333
