9
Lattice="6.336721242930005 4.425285034266837e-08 3.6585077151038785 2.1122404443824916 5.974318242966826 3.658507735281454 -3.085130687554306e-08 2.8971643261872785e-09 7.317015483643816" Properties=species:S:1:pos:R:3:forces:R:3 energy=-19.168926239013672 free_energy=-19.168926239013672 stress="6.959768506931141e-05 1.5008383869030695e-08 -6.0914131516653924e-09 1.5008383869030695e-08 6.958730955375358e-05 6.006887431908581e-09 -6.0914131516653924e-09 6.006887431908581e-09 6.958704761927947e-05" pbc="T T T"
Cu       2.11224030       1.49357878       3.65850804      -0.00000043      -0.00000252       0.00000123
Cu       6.33672145       4.48073976      10.97552357       0.00000004       0.00000256       0.00000132
Te       0.00000054       0.00000008      -0.00000018      -0.00000557      -0.00000094      -0.00000086
Br       2.17435959       1.53750430       7.31701556      -0.00027352      -0.00019403      -0.00000083
Br       6.27460142       4.43681375       7.31701557       0.00027759       0.00019670      -0.00000070
Br       5.24954137       1.53750429       5.54155838       0.00013710      -0.00019448      -0.00023841
Br       3.19942015       4.43681394       9.09247234      -0.00013732       0.00019515       0.00023750
Br       3.19942035       4.43681411       5.54155811      -0.00013603       0.00019322      -0.00023672
Br       5.24954143       1.53750416       9.09247238       0.00013812      -0.00019567       0.00023749
