9
Lattice="6.776262984133844 -1.00535938361348e-07 3.912277305229875 2.25875429339898 6.388721936478373 3.9122772010634828 3.8375681431972946e-08 -1.0044155398606597e-07 7.824554543991067" Properties=species:S:1:pos:R:3:forces:R:3 energy=-24.306760787963867 free_energy=-24.306760787963867 stress="0.0001026889294735156 1.9242589466283988e-10 -1.0643549375188854e-09 1.9242589466283988e-10 0.00010268793266732246 -4.820978727337888e-09 -1.0643549375188854e-09 -4.820978727337888e-09 0.00010270049097016454" pbc="T T T"
Cu       2.25875446       1.59718016       3.91227714      -0.00000042       0.00000008      -0.00000006
Cu       6.77626316       4.79154113      11.73683209       0.00000047      -0.00000054       0.00000004
Ti       0.00000013      -0.00000022      -0.00000020       0.00000014       0.00000037      -0.00000024
I        2.20822404       1.56145019       7.82455471      -0.00124966      -0.00088415       0.00000029
I        6.82679333       4.82727145       7.82455453       0.00125000       0.00088431      -0.00000030
I        5.67215093       1.56145034       5.82465540       0.00062475      -0.00088415      -0.00108312
I        3.36286608       4.82727186       9.82445370      -0.00062510       0.00088456       0.00108252
I        3.36286627       4.82727167       5.82465523      -0.00062495       0.00088337      -0.00108273
I        5.67215089       1.56145034       9.82445363       0.00062489      -0.00088374       0.00108360
