9
Lattice="4.583226731458959 1.0098972425355034e-08 2.64612722298323 1.5277422464352457 4.321107689765937 2.6461272349444718 -3.759026352017794e-08 -1.1930885041522835e-08 5.292254511074756" Properties=species:S:1:pos:R:3:forces:R:3 energy=-42.057254791259766 free_energy=-42.057254791259766 stress="0.0001834767172113061 3.333303766339668e-08 8.548303398470125e-09 3.333303766339668e-08 0.00018348552112001926 -2.4204746651435016e-08 8.548303398470125e-09 -2.4204746651435016e-08 0.00018345269199926406" pbc="T T T"
Cu       1.52774226       1.08027697       2.64612742      -0.00000076      -0.00000052       0.00000088
Cu       4.58322662       3.24083074       7.93838185       0.00000040      -0.00000081      -0.00000018
V       -0.00000001      -0.00000006       0.00000000      -0.00000073      -0.00000405       0.00000218
F        1.52486867       1.07824526       5.29225422      -0.00174314      -0.00123130      -0.00000009
F        4.58610020       3.24286241       5.29225429       0.00174659       0.00123403       0.00000024
F        3.82079210       1.07824475       3.96670249       0.00087021      -0.00123162      -0.00150913
F        2.29017661       3.24286293       6.61780645      -0.00087013       0.00123157       0.00150978
F        2.29017686       3.24286292       3.96670264      -0.00087271       0.00123424      -0.00151212
F        3.82079243       1.07824484       6.61780648       0.00087035      -0.00123165       0.00150869
