9
Lattice="6.115093119966463 3.480332509691939e-08 3.5305505068403145 2.038364412083856 5.765365074355607 3.530550496536687 2.72376051290336e-08 6.64065859199807e-09 7.061100966503622" Properties=species:S:1:pos:R:3:forces:R:3 energy=-27.111370086669922 free_energy=-27.111370086669922 stress="0.0003181761712767184 2.1280008866142452e-08 -2.7320383733098197e-09 2.1280008866142452e-08 0.0003181863285135478 -2.616344918493496e-09 -2.7320383733098197e-09 -2.616344918493496e-09 0.0003181645879521966" pbc="T T T"
Cu       2.03836463       1.44134079       3.53055065       0.00000117      -0.00000037       0.00000104
Cu       6.11509369       4.32402383      10.59165123       0.00000038      -0.00000103      -0.00000084
V        0.00000021      -0.00000010       0.00000008      -0.00000399       0.00000011      -0.00000124
Br       1.99560113       1.41110337       7.06110118      -0.00566429      -0.00400388      -0.00000046
Br       6.15785538       4.35426143       7.06110092       0.00566727       0.00400881       0.00000119
Br       5.11729263       1.41110358       5.25879141       0.00283143      -0.00400594      -0.00490570
Br       3.03616512       4.35426204       8.86341050      -0.00283140       0.00400373       0.00490223
Br       3.03616501       4.35426207       5.25879165      -0.00283293       0.00400463      -0.00490212
Br       5.11729244       1.41110341       8.86341022       0.00283247      -0.00400613       0.00490579
