9
Lattice="6.59413812691344 4.0778341644535536e-08 3.8071273814268727 2.198046113412078 6.217013024200978 3.8071273248555038 2.550654273203565e-08 -5.124954181411153e-08 7.614254718674991" Properties=species:S:1:pos:R:3:forces:R:3 energy=-23.702333450317383 free_energy=-23.702333450317383 stress="0.00010422265040688217 -4.0338958839925e-09 3.802179016076934e-09 -4.0338958839925e-09 0.000104222257505171 -3.808186210818576e-09 3.802179016076934e-09 -3.808186210818576e-09 0.0001042262083501555" pbc="T T T"
Cu       2.19804686       1.55425376       3.80712653       0.00000140       0.00000073      -0.00000172
Cu       6.59413790       4.66275930      11.42138304      -0.00000016      -0.00000067       0.00000149
V       -0.00000025      -0.00000049      -0.00000053       0.00000075       0.00000409       0.00000300
I        2.16760902       1.53273099       7.61425460      -0.00275494      -0.00194791       0.00000022
I        6.62457551       4.68428219       7.61425425       0.00275244       0.00194593      -0.00000073
I        5.51033369       1.53273118       5.68433175       0.00137720      -0.00194718      -0.00238651
I        3.28185017       4.68428205       9.54417847      -0.00137628       0.00194445       0.00238344
I        3.28185061       4.68428215       5.68433169      -0.00137643       0.00194727      -0.00238512
I        5.51033353       1.53273102       9.54417785       0.00137619      -0.00194657       0.00238608
