9
Lattice="4.583198962865606 1.794736604287215e-08 2.6461112101005484 1.5277330166079268 4.321081361959796 2.6461111892031672 8.886590552071318e-09 -1.9310210625134078e-08 5.292222404809072" Properties=species:S:1:pos:R:3:forces:R:3 energy=-42.05725860595703 free_energy=-42.05725860595703 stress="0.00017464208940509707 4.976699052861022e-09 8.303470799830848e-09 4.976699052861022e-09 0.00017463967378716916 -8.0401862945223e-09 8.303470799830848e-09 -8.0401862945223e-09 0.0001746152265695855" pbc="T T T"
Cu       1.52773308       1.08027058       2.64611118       0.00000086      -0.00000052       0.00000044
Cu       4.58319929       3.24081102       7.93833352       0.00000057       0.00000042      -0.00000022
V        0.00000001      -0.00000015      -0.00000003       0.00000013       0.00000842      -0.00000115
F        1.52485917       1.07823852       5.29222237      -0.00158093      -0.00111617      -0.00000036
F        4.58607279       3.24284302       5.29222241       0.00157604       0.00111347      -0.00000033
F        3.82076930       1.07823796       3.96667796       0.00078834      -0.00111548      -0.00136574
F        2.29016253       3.24284322       6.61776686      -0.00078779       0.00111386       0.00136304
F        2.29016256       3.24284307       3.96667791      -0.00078739       0.00111278      -0.00136347
F        3.82076922       1.07823824       6.61776709       0.00079020      -0.00111698       0.00136777
