9
Lattice="5.723014601440312 -3.009176616423335e-09 3.3041839118606546 1.9076715232840973 5.39570999614925 3.3041839251839455 -3.384893222299461e-08 -7.617158327900159e-09 6.608367882349305" Properties=species:S:1:pos:R:3:forces:R:3 energy=-31.114500045776367 free_energy=-31.114500045776367 stress="0.0001221987622557208 -1.0124681093515164e-09 -2.7426393600649135e-08 -1.0124681093515164e-09 0.00012215164315421134 2.01560350632235e-08 -2.7426393600649135e-08 2.01560350632235e-08 0.0001221484853886068" pbc="T T T"
Cu       1.90767173       1.34892742       3.30418389       0.00000140      -0.00000063       0.00000104
Cu       5.72301444       4.04678264       9.91255219      -0.00000084       0.00000207       0.00000123
V        0.00000007      -0.00000012       0.00000016      -0.00000206       0.00000137      -0.00000426
Cl       1.87085900       1.32289698       6.60836766      -0.00135177      -0.00095385      -0.00000101
Cl       5.75982737       4.07281301       6.60836770       0.00135016       0.00095467       0.00000006
Cl       4.78758510       1.32289677       4.92439524       0.00067423      -0.00095429      -0.00117052
Cl       2.84310099       4.07281315       8.29234073      -0.00067541       0.00095508       0.00116977
Cl       2.84310071       4.07281341       4.92439461      -0.00067185       0.00095071      -0.00116614
Cl       4.78758501       1.32289674       8.29234057       0.00067638      -0.00095502       0.00116998
