9
Lattice="5.941645013205528 -9.710369686744532e-08 3.43041038241401 1.9805483008969487 5.601836919693901 3.4304102876500133 -6.416398922486774e-08 -1.614325351672721e-07 6.860820875963277" Properties=species:S:1:pos:R:3:forces:R:3 energy=-33.593772888183594 free_energy=-33.593772888183594 stress="-6.810794002376497e-05 -1.3615311544867836e-08 2.053318937100812e-08 -1.3615311544867836e-08 -6.813772779423743e-05 5.691200399837726e-09 2.053318937100812e-08 5.691200399837726e-09 -6.812162610003725e-05" pbc="T T T"
Cu       1.98054910       1.40045853       3.43041065       0.00000386      -0.00000192       0.00000113
Cu       5.94164560       4.20137739      10.29123253       0.00000160      -0.00000076       0.00000328
W       -0.00000019       0.00000018      -0.00000037      -0.00000317       0.00000063       0.00000400
Cl       1.92543620       1.36148891       6.86082082       0.00092871       0.00065756       0.00000036
Cl       5.99675667       4.24034781       6.86082066      -0.00092891      -0.00065637      -0.00000145
Cl       4.97892636       1.36148927       5.09788644      -0.00046394       0.00065593       0.00080223
Cl       2.94326574       4.24034805       8.62375410       0.00046433      -0.00065810      -0.00080766
Cl       2.94326672       4.24034754       5.09788697       0.00046336      -0.00065453       0.00080334
Cl       4.97892677       1.36148895       8.62375438      -0.00046574       0.00065760      -0.00080535
