9
Lattice="6.314389844047847 -2.765283661719267e-08 3.6456145680267498 2.1047965457523072 5.953263836483723 3.6456146422606057 -4.493602506543125e-08 5.9143003331760736e-08 7.291229213884883" Properties=species:S:1:pos:R:3:forces:R:3 energy=-29.741870880126953 free_energy=-29.741870880126953 stress="7.312887078114727e-07 6.070111080447305e-09 -7.774972665686164e-09 6.070111080447305e-09 7.162630595303199e-07 1.005926719699346e-08 -7.774972665686164e-09 1.005926719699346e-08 7.385121989500476e-07" pbc="T T T"
Cu       2.10479626       1.48831577       3.64561437      -0.00000154      -0.00000004      -0.00000033
Cu       6.31439018       4.46494852      10.93684406       0.00000101       0.00000164       0.00000008
W        0.00000044      -0.00000012      -0.00000022      -0.00000918      -0.00000017      -0.00000284
Br       2.04739643       1.44772817       7.29122932      -0.00001786      -0.00001322      -0.00000024
Br       6.37178967       4.50553511       7.29122925       0.00002640       0.00001837      -0.00000037
Br       5.29069125       1.44772797       5.41871259       0.00001072      -0.00001665      -0.00002018
Br       3.12849493       4.50553571       9.16374623      -0.00001137       0.00001526       0.00001927
Br       3.12849489       4.50553630       5.41871227      -0.00000914       0.00001244      -0.00001608
Br       5.29069133       1.44772804       9.16374582       0.00001103      -0.00001760       0.00002072
