9
Lattice="6.73548365736996 7.59696952970697e-08 3.8887331404594168 2.245161258925405 6.350274785687524 3.888733195577995 -9.96115072553745e-09 6.04627208285646e-08 7.777466298171981" Properties=species:S:1:pos:R:3:forces:R:3 energy=-26.041400909423828 free_energy=-26.041400909423828 stress="0.00012033213715767488 1.0071095069008607e-08 -1.339772381925286e-08 1.0071095069008607e-08 0.00012031361256958917 1.3847012425571847e-08 -1.339772381925286e-08 1.3847012425571847e-08 0.0001203120918944478" pbc="T T T"
Cu       2.24516127       1.58756846       3.88873290       0.00000033      -0.00000104      -0.00000001
Cu       6.73548366       4.76270624      11.66619913      -0.00000042       0.00000051      -0.00000167
W        0.00000038      -0.00000025      -0.00000051      -0.00000727       0.00000454       0.00000757
I        2.22339690       1.57217881       7.77746621      -0.00195943      -0.00138512       0.00000089
I        6.75724803       4.77809605       7.77746658       0.00196204       0.00138758       0.00000083
I        5.62378497       1.57217917       5.81425145       0.00098315      -0.00138989      -0.00170167
I        3.35685941       4.77809637       9.74068192      -0.00097800       0.00138254       0.00169335
I        3.35685964       4.77809596       5.81425093      -0.00097989       0.00138582      -0.00169623
I        5.62378543       1.57217888       9.74068192       0.00097947      -0.00138493       0.00169702
