9
Lattice="6.447810145143614 1.641081030754401e-08 3.7226447851795816 2.1492700254729296 6.079053782054853 3.7226448516567294 -4.537756359501119e-08 4.9330698496327416e-08 7.445289648955436" Properties=species:S:1:pos:R:3:forces:R:3 energy=-27.87319564819336 free_energy=-27.87319564819336 stress="6.319860403891653e-05 1.9927546279774333e-09 -5.860319340911246e-09 1.9927546279774333e-09 6.320445390883833e-05 5.153889315323568e-09 -5.860319340911246e-09 5.153889315323568e-09 6.320133252302185e-05" pbc="T T T"
Cu       2.14926995       1.51976295       3.72264468      -0.00000022      -0.00000177      -0.00000035
Cu       6.44781012       4.55929109      11.16793456       0.00000001       0.00000205      -0.00000006
Y       -0.00000038      -0.00000002      -0.00000019       0.00000423       0.00000093       0.00000315
Br       2.24498849       1.58744617       7.44528971      -0.00122689      -0.00086764      -0.00000023
Br       6.35209219       4.49160774       7.44528941       0.00122251       0.00086537      -0.00000032
Br       5.32531601       1.58744626       5.66686184       0.00061267      -0.00086692      -0.00106161
Br       3.27176403       4.49160763       9.22371789      -0.00061208       0.00086691       0.00105999
Br       3.27176408       4.49160749       5.66686152      -0.00061227       0.00086635      -0.00106032
Br       5.32531601       1.58744608       9.22371774       0.00061204      -0.00086533       0.00105981
