9
Lattice="5.960469044959014 -4.005188713181891e-08 3.4412783334031234 1.9868229676172553 5.619583950312369 3.441278350044279 -6.410435981757053e-08 -2.494743521238865e-08 6.8825567778382535" Properties=species:S:1:pos:R:3:forces:R:3 energy=-31.119186401367188 free_energy=-31.119186401367188 stress="0.00021255826868582517 2.2862598925144084e-08 -5.704957573016145e-08 2.2862598925144084e-08 0.0002124714810634032 1.4582503204962904e-08 -5.704957573016145e-08 1.4582503204962904e-08 0.0002125145838363096" pbc="T T T"
Cu       1.98682305       1.40489578       3.44127810       0.00000202      -0.00000033      -0.00000106
Cu       5.96046880       4.21468743      10.32383605      -0.00000212      -0.00000395       0.00000579
Y        0.00000013      -0.00000020       0.00000045      -0.00000310      -0.00000097      -0.00000556
Cl       2.08369564       1.47339556       6.88255681      -0.00216936      -0.00153374      -0.00000218
Cl       5.86359596       4.14618875       6.88255634       0.00217234       0.00153602      -0.00000163
Cl       4.91862114       1.47339598       5.24581133       0.00108617      -0.00153423      -0.00187920
Cl       3.02867085       4.14618818       8.51930158      -0.00108627       0.00153991       0.00188091
Cl       3.02867125       4.14618861       5.24581110      -0.00108380       0.00153167      -0.00187298
Cl       4.91862097       1.47339540       8.51930207       0.00108415      -0.00153431       0.00187596
