9
Lattice="4.934203545787655 -7.838633917770239e-08 2.8487637593722117 1.6447344658885537 4.652011730131573 2.8487637168861397 -6.278642046917605e-09 -5.647425934938465e-08 5.6975275296193395" Properties=species:S:1:pos:R:3:forces:R:3 energy=-42.87869644165039 free_energy=-42.87869644165039 stress="8.165866165654734e-05 1.1110751430010168e-08 -1.66928781908382e-08 1.1110751430010168e-08 8.172229718184099e-05 9.786635501995988e-09 -1.66928781908382e-08 9.786635501995988e-09 8.164724567905068e-05" pbc="T T T"
Cu       1.64473425       1.16300241       2.84876370      -0.00000012      -0.00000116      -0.00000042
Cu       4.93420392       3.48900811       8.54629072       0.00000045      -0.00000402      -0.00000279
Y       -0.00000007      -0.00000029       0.00000012       0.00000050       0.00000170       0.00000004
F        1.72927819       1.22278478       5.69752769       0.00020056       0.00014323       0.00000099
F        4.84965927       3.42922708       5.69752765      -0.00019988      -0.00014021       0.00000077
F        4.06956421       1.22278467       4.34636279      -0.00010090       0.00014191       0.00017386
F        2.50937403       3.42922744       7.04869207       0.00010015      -0.00014141      -0.00017410
F        2.50937357       3.42922727       4.34636311       0.00009910      -0.00014125       0.00017517
F        4.06956468       1.22278495       7.04869238      -0.00009974       0.00014124      -0.00017323
