9
Lattice="7.047637502047361 -6.044993060409265e-08 4.06895533520153 2.34921250416922 6.644576258741357 4.068955230447876 7.146557729070866e-08 -7.776266562337455e-08 8.13791054662097" Properties=species:S:1:pos:R:3:forces:R:3 energy=-24.736717224121094 free_energy=-24.736717224121094 stress="-6.366034358507022e-05 -3.459993180854326e-08 3.3988358794090345e-09 -3.459993180854326e-08 -6.364901491906494e-05 -4.504166817298483e-09 3.3988358794090345e-09 -4.504166817298483e-09 -6.362408021232113e-05" pbc="T T T"
Cu       2.34921289       1.66114399       4.06895541       0.00000035      -0.00000023       0.00000061
Cu       7.04763725       4.98343167      12.20686577      -0.00000039      -0.00000090      -0.00000056
Y       -0.00000011      -0.00000049      -0.00000018       0.00000031       0.00000475      -0.00000126
I        2.44876330       1.73153666       8.13791044       0.00080581       0.00056998      -0.00000007
I        6.94808694       4.91303950       8.13791037      -0.00080711      -0.00057121       0.00000031
I        5.82325600       1.73153721       6.18964636      -0.00040140       0.00056758       0.00069495
I        3.57359399       4.91303974      10.08617540       0.00040220      -0.00056896      -0.00069652
I        3.57359419       4.91303899       6.18964606       0.00040123      -0.00056867       0.00069676
I        5.82325584       1.73153719      10.08617480      -0.00040095       0.00056771      -0.00069427
