9
Lattice="5.596437542267065 1.0166823551757864e-07 3.2311047124155516 1.865479228805128 5.27637200185516 3.2311047952149883 -4.564973739243745e-08 6.912896922686527e-08 6.462209503898747" Properties=species:S:1:pos:R:3:forces:R:3 energy=-20.70952033996582 free_energy=-20.70952033996582 stress="-4.618084858520888e-05 -1.9189570821254165e-08 -1.122175774526113e-08 -1.9189570821254165e-08 -4.6180477511370555e-05 1.3465351500485667e-08 -1.122175774526113e-08 1.3465351500485667e-08 -4.6253466280177236e-05" pbc="T T T"
Cu       1.86547905       1.31909272       3.23110492      -0.00000107      -0.00000108       0.00000116
Cu       5.59643765       3.95727914       9.69331421      -0.00000093       0.00000103       0.00000135
Zn      -0.00000004      -0.00000000      -0.00000006      -0.00000216       0.00000308       0.00000058
Cl       1.91365372       1.35315763       6.46220935      -0.00041133      -0.00029105      -0.00000111
Cl       5.54826300       3.92321460       6.46220934       0.00041002       0.00029220      -0.00000044
Cl       4.63961072       1.35315799       4.88837754       0.00020789      -0.00029160      -0.00035909
Cl       2.82230614       3.92321458       8.03604180      -0.00020443       0.00029004       0.00035307
Cl       2.82230579       3.92321451       4.88837740      -0.00020449       0.00028971      -0.00035268
Cl       4.63961087       1.35315757       8.03604156       0.00020634      -0.00029227       0.00035754
