9
Lattice="4.60769774750504 -1.1910997396103831e-08 2.66025573035244 1.5358992535595795 4.344179007274927 2.6602557032960132 1.2978072040543093e-08 -2.396032506771659e-08 5.320511438226189" Properties=species:S:1:pos:R:3:forces:R:3 energy=-30.456193923950195 free_energy=-30.456193923950195 stress="0.0005960976122878492 -8.903622017442103e-08 3.623951272402337e-08 -8.903622017442103e-08 0.0005961792776361108 -2.105805663177307e-08 3.623951272402337e-08 -2.105805663177307e-08 0.0005960722337476909" pbc="T T T"
Cu       1.53589920       1.08604378       2.66025605      -0.00000099      -0.00000245       0.00000199
Cu       4.60769801       3.25813542       7.98076753       0.00000221       0.00000577       0.00000235
Zn       0.00000001       0.00000008       0.00000028      -0.00000008      -0.00000050      -0.00001033
F        1.56695870       1.10800709       5.32051143      -0.00786227      -0.00556180      -0.00000069
F        4.57663849       3.23617167       5.32051117       0.00786090       0.00555956      -0.00000254
F        3.82421794       1.10800672       4.01728201       0.00392839      -0.00555995      -0.00680786
F        2.31937857       3.23617203       6.62374057      -0.00393304       0.00556636       0.00681290
F        2.31937872       3.23617199       4.01728236      -0.00392962       0.00556237      -0.00680965
F        3.82421836       1.10800709       6.62374036       0.00393438      -0.00556943       0.00681442
