9
Lattice="5.879312295463949 -2.5240381713923412e-08 3.3944225062801237 1.9597708027372382 5.543068538340861 3.39442239996778 6.5876541324855e-08 -8.362374433768874e-08 6.788844898458727" Properties=species:S:1:pos:R:3:forces:R:3 energy=-33.636497497558594 free_energy=-33.636497497558594 stress="0.00014899838424753398 2.8271839980220648e-08 -9.658882582641581e-09 2.8271839980220648e-08 0.0001490654976805672 3.476665710877569e-08 -9.658882582641581e-09 3.476665710877569e-08 0.00014900940004736185" pbc="T T T"
Cu       1.95977085       1.38576748       3.39442246      -0.00000033       0.00000256       0.00000036
Cu       5.87931189       4.15730149      10.18326742      -0.00000061       0.00000075      -0.00000133
Zr       0.00000023       0.00000010       0.00000047      -0.00000187      -0.00000092      -0.00000805
Cl       2.00771985       1.41967205       6.78884482      -0.00102426      -0.00072330      -0.00000144
Cl       5.83136325       4.12339621       6.78884454       0.00102577       0.00072488       0.00000062
Cl       4.87545266       1.41967160       5.13315860       0.00051115      -0.00072217      -0.00088352
Cl       2.96363110       4.12339609       8.44453132      -0.00051311       0.00072475       0.00088865
Cl       2.96363065       4.12339672       5.13315843      -0.00050822       0.00071976      -0.00088204
Cl       4.87545221       1.41967199       8.44453120       0.00051149      -0.00072636       0.00088657
