9
Lattice="6.532122153363477 -1.1928334797571625e-08 3.7713225346571178 2.1773740385173057 6.158543851605485 3.771322537008815 3.097306907721298e-08 2.4781477200154344e-08 7.542645015667313" Properties=species:S:1:pos:R:3:forces:R:3 energy=-14.945122718811035 free_energy=-14.945122718811035 stress="-8.74832330737263e-05 4.8223185444840055e-09 3.486533006746839e-10 4.8223185444840055e-09 -8.747829269850627e-05 4.970822087280169e-10 3.486533006746839e-10 4.970822087280169e-10 -8.748848631512374e-05" pbc="T T T"
Cu       2.17737433       1.53963640       3.77132245       0.00000190       0.00000152      -0.00000026
Cu       6.53212214       4.61890809      11.31396795       0.00000013       0.00000017       0.00000093
Zn      -0.00000003       0.00000026       0.00000008      -0.00000125      -0.00000335      -0.00000212
I        2.23994068       1.58387724       7.54264520      -0.00700805      -0.00495607      -0.00000012
I        6.46955539       4.57466637       7.54264486       0.00701092       0.00495741      -0.00000012
I        5.41215182       1.58387730       5.71116794       0.00350361      -0.00495484      -0.00606993
I        3.29734450       4.57466616       9.37412191      -0.00350612       0.00495671       0.00607221
I        3.29734456       4.57466652       5.71116808      -0.00350489       0.00495574      -0.00607114
I        5.41215150       1.58387711       9.37412188       0.00350376      -0.00495726       0.00607049
