9
Lattice="5.9961413546491045 -1.9306780140367916e-08 3.461873878638849 1.998713722162576 5.653216493131703 3.4618739557459786 -8.944717540333333e-08 3.1187856632673963e-08 6.923747912204761" Properties=species:S:1:pos:R:3:forces:R:3 energy=-17.74336051940918 free_energy=-17.74336051940918 stress="-3.563131394912489e-05 -1.3231169049277014e-08 -4.525365859819885e-09 -1.3231169049277014e-08 -3.560879122233018e-05 5.079596299140121e-09 -4.525365859819885e-09 5.079596299140121e-09 -3.561119592632167e-05" pbc="T T T"
Cu       1.99871377       1.41330392       3.46187425       0.00000082      -0.00000257       0.00000077
Cu       5.99614109       4.23991227      10.38562133      -0.00000006       0.00000026      -0.00000219
Zn       0.00000011       0.00000006       0.00000072       0.00000049       0.00000157      -0.00000947
Br       2.04073590       1.44301827       6.92374796      -0.00591734      -0.00418396      -0.00000308
Br       5.95411919       4.21019836       6.92374807       0.00591466       0.00418378      -0.00000074
Br       4.97577340       1.44301802       5.22920323       0.00295520      -0.00418095      -0.00512147
Br       3.01908212       4.21019784       8.61829209      -0.00295979       0.00418857       0.00512773
Br       3.01908156       4.21019855       5.22920320      -0.00295569       0.00418052      -0.00512123
Br       4.97577286       1.44301873       8.61829215       0.00296168      -0.00418729       0.00512967
