9
Lattice="6.345048791606248 9.967175363514175e-08 3.663315538854516 2.115016365902763 5.982169337983403 3.663315524889675 -1.7299606912560455e-08 -2.9336019617253358e-08 7.32663110767275" Properties=species:S:1:pos:R:3:forces:R:3 energy=-29.696468353271484 free_energy=-29.696468353271484 stress="0.00013562421372625977 1.9560928876671824e-08 9.54399759223179e-09 1.9560928876671824e-08 0.00013560423394665122 -1.488521306214352e-09 9.54399759223179e-09 -1.488521306214352e-09 0.00013553010649047792" pbc="T T T"
Cu       2.11501587       1.49554239       3.66331548      -0.00000096       0.00000080       0.00000065
Cu       6.34504914       4.48662770      10.98994779      -0.00000022       0.00000177       0.00000269
Zr       0.00000018       0.00000009      -0.00000083      -0.00000290      -0.00000086       0.00000969
Br       2.14646512       1.51777978       7.32663086      -0.00210780      -0.00149138      -0.00000019
Br       6.31359983       4.46438907       7.32663061       0.00211118       0.00149192      -0.00000054
Br       5.27181648       1.51777996       5.52220828       0.00105378      -0.00148965      -0.00182508
Br       3.18824826       4.46438988       9.13105429      -0.00104999       0.00148427       0.00181808
Br       3.18824890       4.46438946       5.52220811      -0.00105339       0.00148962      -0.00182457
Br       5.27181678       1.51777930       9.13105409       0.00105033      -0.00148647       0.00181918
