9
Lattice="6.903847290330509 1.5770188366286164e-07 3.9859379630817107 2.301282549369138 6.509009662543099 3.9859380140451934 -7.33519472153393e-08 1.054968117032243e-08 7.971876053212621" Properties=species:S:1:pos:R:3:forces:R:3 energy=-26.15842056274414 free_energy=-26.15842056274414 stress="5.0330101657891646e-05 2.7408647795823526e-08 2.0414665513612817e-09 2.7408647795823526e-08 5.0301921874051914e-05 -1.337921329280789e-09 2.0414665513612817e-09 -1.337921329280789e-09 5.029413659940474e-05" pbc="T T T"
Cu       2.30128224       1.62725301       3.98593814      -0.00000006       0.00000057       0.00000009
Cu       6.90384760       4.88175711      11.95781420       0.00000028      -0.00000002       0.00000015
Zr       0.00000036       0.00000018       0.00000020      -0.00000332      -0.00000182      -0.00000255
I        2.32515699       1.64413454       7.97187619      -0.00110199      -0.00077921      -0.00000071
I        6.87997226       4.86487516       7.97187604       0.00110555       0.00078057      -0.00000009
I        5.74126917       1.64413396       5.99958264       0.00054936      -0.00077696      -0.00095199
I        3.46386072       4.86487537       9.94416901      -0.00055107       0.00077875       0.00095385
I        3.46386093       4.86487569       5.99958272      -0.00054987       0.00077685      -0.00095254
I        5.74126879       1.64413431       9.94416897       0.00055111      -0.00077873       0.00095376
