9
Lattice="4.957301244151397 5.0412136227672006e-08 2.862098853118771 1.652433750304893 4.673788371208985 2.862098931536696 -2.3678108022538954e-07 -7.138758844376427e-08 5.724198116354363" Properties=species:S:1:pos:R:3:forces:R:3 energy=-47.197120666503906 free_energy=-47.197120666503906 stress="3.455730984569527e-05 3.015076543988471e-08 2.7527855550602e-08 3.015076543988471e-08 3.455738624325022e-05 -1.65540843255485e-08 2.7527855550602e-08 -1.65540843255485e-08 3.450730218901299e-05" pbc="T T T"
Cu       1.65243348       1.16844712       2.86209906      -0.00000138       0.00000083       0.00000042
Cu       4.95730148       3.50534137       8.58629644       0.00000135      -0.00000069      -0.00000236
Zr      -0.00000015      -0.00000004      -0.00000038       0.00000142      -0.00000169       0.00000078
F        1.65501053       1.17026931       5.72419818       0.00034239       0.00024148      -0.00000043
F        4.95472417       3.50351894       5.72419840      -0.00034281      -0.00024145       0.00000075
F        4.12979586       1.17026918       4.29538011      -0.00017373       0.00024451       0.00030003
F        2.47993886       3.50351916       7.15301560       0.00017281      -0.00024375      -0.00029905
F        2.47993877       3.50351894       4.29538013       0.00017161      -0.00024265       0.00029774
F        4.12979585       1.17026955       7.15301579      -0.00017171       0.00024331      -0.00029786
