9
Lattice="4.835352730794808 5.780794127288079e-08 2.791692380989564 1.6117843257647542 4.558814017110151 2.791692333073047 1.1377233076612506e-07 2.176363109265173e-08 5.5833845649197" Properties=species:S:1:pos:R:3:forces:R:3 energy=-36.009796142578125 free_energy=-36.009796142578125 stress="-8.395389158977196e-05 -5.312064388363069e-08 -4.406713927096462e-08 -5.312064388363069e-08 -8.399829675909132e-05 -6.355076465069942e-09 -4.406713927096462e-08 -6.355076465069942e-09 -8.401591185247526e-05" pbc="T T T"
Fe       1.61178376       1.13970279       2.79169268      -0.00000384      -0.00000419       0.00000246
Fe       4.83535344       3.41911188       8.37507900       0.00000412       0.00000798       0.00001156
Au       0.00000006       0.00000002       0.00000007       0.00000139       0.00000052      -0.00000276
F        1.69593199       1.19920425       5.58338447      -0.00114745      -0.00081513      -0.00000085
F        4.75120542       3.35960957       5.58338401       0.00114629       0.00081312      -0.00000589
F        3.98738750       1.19920426       4.26041243       0.00057488      -0.00081183      -0.00099375
F        2.45974943       3.35960961       6.90635627      -0.00057750       0.00081459       0.00099168
F        2.45975001       3.35960995       4.26041211      -0.00057208       0.00081237      -0.00099300
F        3.98738715       1.19920392       6.90635619       0.00057427      -0.00081734       0.00099068
