9
Lattice="5.950413425925533 -1.9517232035410953e-08 3.435472918375939 1.983471128660816 5.610103701985705 3.4354729095655556 1.2101110531013765e-08 -2.233689596086041e-09 6.8709458157921235" Properties=species:S:1:pos:R:3:forces:R:3 energy=-24.846303939819336 free_energy=-24.846303939819336 stress="-8.985957538243383e-05 -1.954595418851568e-08 -2.622449812861305e-08 -1.954595418851568e-08 -8.987191540654749e-05 -2.1146517426018363e-08 -2.622449812861305e-08 -2.1146517426018363e-08 -8.988378976937383e-05" pbc="T T T"
Fe       1.98347071       1.40252562       3.43547272      -0.00000239      -0.00000142       0.00000051
Fe       5.95041342       4.20757817      10.30641914       0.00000098       0.00000205       0.00000245
Ag       0.00000049      -0.00000012       0.00000002      -0.00000725       0.00000039      -0.00000475
Br       2.08311476       1.47298450       6.87094567      -0.00093497      -0.00066218       0.00000047
Br       5.85076963       4.13711897       6.87094573       0.00094071       0.00066452      -0.00000121
Br       4.90885615       1.47298456       5.23950344       0.00047040      -0.00066222      -0.00081395
Br       3.02502852       4.13711925       8.50238827      -0.00046912       0.00066321       0.00081301
Br       3.02502871       4.13711929       5.23950317      -0.00046790       0.00066111      -0.00081107
Br       4.90885585       1.47298443       8.50238843       0.00046945      -0.00066527       0.00081448
