9
Lattice="6.476142353959451 -1.7922362019026582e-07 3.7390025021002096 2.1587139744495336 6.105765438417147 3.739002458042563 -4.879570251964321e-08 -8.846318123574523e-08 7.478005088717033" Properties=species:S:1:pos:R:3:forces:R:3 energy=-21.71026611328125 free_energy=-21.71026611328125 stress="-1.4019683476362843e-05 6.279123443420076e-09 -4.889463056656496e-09 6.279123443420076e-09 -1.4001305316924118e-05 8.592018652109346e-09 -4.889463056656496e-09 8.592018652109346e-09 -1.4010387531016022e-05" pbc="T T T"
Fe       2.15871449       1.52644108       3.73900405       0.00000141      -0.00000018       0.00000656
Fe       6.47614240       4.57932378      11.21700590       0.00000080      -0.00000155      -0.00000729
Ag      -0.00000053      -0.00000019       0.00000068       0.00000178       0.00000159      -0.00000254
I        2.29201943       1.62070288       7.47800448       0.00037731       0.00026812      -0.00000247
I        6.34283683       4.48506271       7.47800584      -0.00038008      -0.00026800       0.00000340
I        5.33013199       1.62070240       5.72394939      -0.00019171       0.00026772       0.00032829
I        3.30472429       4.48506307       9.23206008       0.00019040      -0.00026582      -0.00032748
I        3.30472360       4.48506237       5.72394953       0.00018829      -0.00026972       0.00032889
I        5.33013262       1.62070261       9.23206020      -0.00018821       0.00026779      -0.00032730
