9
Lattice="5.6562504436910865 -4.617968855457643e-09 3.265637732107522 1.8854168131171631 5.332764007072911 3.265637727071885 9.869247099128767e-09 8.11223481621289e-10 6.5312754471210015" Properties=species:S:1:pos:R:3:forces:R:3 energy=-28.29977035522461 free_energy=-28.29977035522461 stress="-4.936356344842352e-05 3.712000484767941e-09 -4.075566550909571e-09 3.712000484767941e-09 -4.935976176057011e-05 -1.1160903312656956e-08 -4.075566550909571e-09 -1.1160903312656956e-08 -4.9385147576685995e-05" pbc="T T T"
Fe       1.88541640       1.33319086       3.26563731      -0.00000123      -0.00000031      -0.00000278
Fe       5.65625032       3.99957330       9.79691324      -0.00000036      -0.00000024       0.00000049
Au       0.00000015      -0.00000002       0.00000004       0.00000101      -0.00000387       0.00000670
Cl       1.95215972       1.38038518       6.53127559      -0.00018290      -0.00013013       0.00000107
Cl       5.58950755       3.95237883       6.53127544       0.00018516       0.00013077       0.00000013
Cl       4.68017079       1.38038527       4.95625747       0.00009255      -0.00012951      -0.00015732
Cl       2.86149669       3.95237872       8.10629335      -0.00009078       0.00012748       0.00015837
Cl       2.86149670       3.95237884       4.95625778      -0.00009357       0.00013258      -0.00016070
Cl       4.68017079       1.38038505       8.10629342       0.00009016      -0.00012676       0.00015400
