9
Lattice="5.595749161618068 -2.024183332716053e-08 3.2307072513989117 1.865249716737874 5.275722799403474 3.2307072249285302 -1.3012510291490168e-08 -4.16206970666119e-08 6.4614145253361075" Properties=species:S:1:pos:R:3:forces:R:3 energy=-27.700132369995117 free_energy=-27.700132369995117 stress="6.88142426952254e-06 -3.670727277693686e-09 -4.999872960098628e-09 -3.670727277693686e-09 6.808099442423554e-06 1.512435687800462e-08 -4.999872960098628e-09 1.512435687800462e-08 6.86172552377684e-06" pbc="T T T"
Fe       1.86524934       1.31892986       3.23070703      -0.00000209      -0.00000473       0.00000007
Fe       5.59574898       3.95679171       9.69212228      -0.00000331      -0.00000205       0.00000313
Ag       0.00000009       0.00000012      -0.00000016      -0.00000018      -0.00000153       0.00000557
Cl       1.94586505       1.37593435       6.46141444      -0.00019060      -0.00013396       0.00000156
Cl       5.51513366       3.89978873       6.46141432       0.00019068       0.00013585      -0.00000180
Cl       4.62281678       1.37593452       4.91587583       0.00009829      -0.00013505      -0.00016765
Cl       2.83818239       3.89978868       8.00695311      -0.00009351       0.00013508       0.00016356
Cl       2.83818236       3.89978862       4.91587604      -0.00009459       0.00013888      -0.00016691
Cl       4.62281683       1.37593441       8.00695312       0.00009544      -0.00013280       0.00016247
