9
Lattice="6.498411465831957 6.717247993680485e-08 3.7518595513057247 2.1661371983665076 6.126761071671804 3.751859586365302 -2.210799038404148e-08 2.7306325741461895e-08 7.503719140903612" Properties=species:S:1:pos:R:3:forces:R:3 energy=-22.205883026123047 free_energy=-22.205883026123047 stress="-3.1741928978590295e-05 1.0812206241439526e-08 1.5904719208315043e-10 1.0812206241439526e-08 -3.1729658076073974e-05 3.4412219740431738e-09 1.5904719208315043e-10 3.4412219740431738e-09 -3.172897777403705e-05" pbc="T T T"
Fe       2.16613701       1.53168979       3.75185963      -0.00000053      -0.00000112       0.00000064
Fe       6.49841132       4.59507104      11.25557861      -0.00000156      -0.00000137       0.00000070
Au       0.00000015      -0.00000021      -0.00000034      -0.00000215       0.00000099       0.00000175
I        2.30403157       1.62919616       7.50371940      -0.00031649      -0.00022457       0.00000019
I        6.36051725       4.49756492       7.50371891       0.00031724       0.00022551      -0.00000098
I        5.34639538       1.62919643       5.74720942       0.00015899      -0.00022561      -0.00027580
I        3.31815297       4.49756514       9.26022924      -0.00015680       0.00022504       0.00027363
I        3.31815310       4.49756504       5.74720909      -0.00015777       0.00022574      -0.00027494
I        5.34639582       1.62919634       9.26022915       0.00015910      -0.00022468       0.00027474
