9
Lattice="5.946056956968909 4.9354481566104125e-08 3.432957517561277 1.9820190321716908 5.605996188857881 3.4329575175897777 -2.6710139697467925e-09 -1.8537656305239158e-09 6.865915039748852" Properties=species:S:1:pos:R:3:forces:R:3 energy=-25.516677856445312 free_energy=-25.516677856445312 stress="-1.98920643015299e-05 -2.5669733005884154e-09 4.476052861690505e-09 -2.5669733005884154e-09 -1.9865288777509704e-05 1.1975290981069975e-08 4.476052861690505e-09 1.1975290981069975e-08 -1.9835428247461095e-05" pbc="T T T"
Fe       1.98201914       1.40149902       3.43295716       0.00000032      -0.00000040      -0.00000152
Fe       5.94605695       4.20449733      10.29887182      -0.00000050       0.00000037      -0.00000157
Au      -0.00000012       0.00000017      -0.00000011       0.00000279       0.00000109       0.00000622
Br       2.08159471       1.47190971       6.86591526      -0.00010598      -0.00007535       0.00000027
Br       5.84648120       4.13408654       6.86591531       0.00010350       0.00007350      -0.00000040
Br       4.90525963       1.47190947       5.23567156       0.00005289      -0.00007391      -0.00009147
Br       3.02281644       4.13408659       8.49615887      -0.00005189       0.00007359       0.00009057
Br       3.02281625       4.13408655       5.23567157      -0.00005294       0.00007437      -0.00009178
Br       4.90525974       1.47190957       8.49615888       0.00005175      -0.00007333       0.00008965
