9
Lattice="6.347264232909215 2.8124552799955523e-08 3.6645945474190484 2.11575483717884 5.984257894932035 3.664594432480852 1.8168605085810896e-07 -1.2298606668055862e-08 7.329188780148603" Properties=species:S:1:pos:R:3:forces:R:3 energy=-24.120235443115234 free_energy=-24.120235443115234 stress="-0.00017544289585202932 -9.81595249527345e-09 1.158096818443255e-08 -9.81595249527345e-09 -0.0001754492986947298 -1.8492110953616248e-08 1.158096818443255e-08 -1.8492110953616248e-08 -0.0001754279510350898" pbc="T T T"
Fe       2.11575470       1.49606457       3.66459466      -0.00000051       0.00000075       0.00000133
Fe       6.34726631       4.48819319      10.99378406       0.00000732      -0.00000061       0.00000312
Be      -0.00000006      -0.00000040       0.00000004      -0.00000190       0.00000398       0.00000023
I        2.04825083       1.44833211       7.32918871      -0.00143253      -0.00101133      -0.00000009
I        6.41476846       4.53592595       7.32918870       0.00142879       0.00100913      -0.00000039
I        5.32313847       1.44833225       5.43843131       0.00071556      -0.00101142      -0.00124164
I        3.13987943       4.53592584       9.21994565      -0.00071632       0.00101027       0.00123604
I        3.13987988       4.53592652       5.43843183      -0.00071616       0.00101138      -0.00123666
I        5.32313901       1.44833152       9.21994602       0.00071576      -0.00101218       0.00123787
