9
Lattice="6.1528088821619455 -2.391050260046829e-08 3.552325888263945 2.050936275522135 5.8009239419122265 3.552325881316364 8.799634641873747e-09 -2.286766248214525e-09 7.104651761286487" Properties=species:S:1:pos:R:3:forces:R:3 energy=-28.460256576538086 free_energy=-28.460256576538086 stress="0.0003181631036568433 2.5686617277642654e-09 6.279806452624825e-09 2.5686617277642654e-09 0.00031816959381103516 -1.9110220073059736e-09 6.279806452624825e-09 -1.9110220073059736e-09 0.0003181772481184453" pbc="T T T"
Fe       2.05093617       1.45023087       3.55232598      -0.00000006      -0.00000163       0.00000069
Fe       6.15280892       4.35069289      10.65697759       0.00000093      -0.00000064      -0.00000080
Ca       0.00000001      -0.00000008      -0.00000001       0.00000147      -0.00000095       0.00000087
Br       2.23009328       1.57691415       7.10465176      -0.00338580      -0.00239320      -0.00000005
Br       5.97365192       4.22400996       7.10465179       0.00338341       0.00239260       0.00000091
Br       5.03776224       1.57691411       5.48364327       0.00169174      -0.00239185      -0.00293159
Br       3.16598287       4.22401003       8.72566019      -0.00169133       0.00239436       0.00293100
Br       3.16598296       4.22400976       5.48364332      -0.00169248       0.00239461      -0.00293094
Br       5.03776228       1.57691400       8.72566026       0.00169206      -0.00239328       0.00292970
