9
Lattice="4.790739781418199 2.4895964270323182e-08 2.765934899655251 1.5969132791007863 4.516752904178081 2.7659349080454807 8.762389049632282e-08 7.223531550230167e-08 5.531869647541486" Properties=species:S:1:pos:R:3:forces:R:3 energy=-36.3101806640625 free_energy=-36.3101806640625 stress="0.0005025832797400653 1.903625523880237e-08 -8.477949364760207e-08 1.903625523880237e-08 0.0005024140700697899 -1.3550635458159377e-07 -8.477949364760207e-08 -1.3550635458159377e-07 0.0005025278660468757" pbc="T T T"
Fe       1.59691204       1.12918872       2.76593445      -0.00000881       0.00000356      -0.00000397
Fe       4.79073909       3.38756377       8.29780551      -0.00000692      -0.00000847       0.00001140
Cd      -0.00000016      -0.00000008       0.00000005      -0.00000406      -0.00000123       0.00001119
F        1.70893889       1.20840267       5.53187024      -0.00447419      -0.00316104       0.00000464
F        4.67871463       3.30834994       5.53186908       0.00447878       0.00316122      -0.00000589
F        3.93627103       1.20840289       4.24591941       0.00224139      -0.00315976      -0.00387561
F        2.45138296       3.30835103       6.81781988      -0.00222985       0.00315869       0.00386709
F        2.45138333       3.30835029       4.24591904      -0.00223385       0.00316504      -0.00387990
F        3.93627080       1.20840278       6.81782006       0.00223775      -0.00315776       0.00387129
