9
Lattice="5.716702916233187 9.87235860871729e-10 3.300539980555393 1.9055676451756405 5.389759198276646 3.3005399710283196 2.1733024791469308e-08 3.699323245268768e-09 6.601079923468073" Properties=species:S:1:pos:R:3:forces:R:3 energy=-31.165691375732422 free_energy=-31.165691375732422 stress="-0.00013064303493592888 1.3787260222386521e-08 -2.215707795016897e-08 1.3787260222386521e-08 -0.00013066123938187957 -3.186402697252788e-09 -2.215707795016897e-08 -3.186402697252788e-09 -0.00013071201101411134" pbc="T T T"
Fe       1.90556800       1.34744085       3.30054010       0.00000422       0.00000686       0.00000060
Fe       5.71670307       4.04231998       9.90162028      -0.00000132       0.00000364       0.00000069
Ca       0.00000020      -0.00000015       0.00000002      -0.00000412       0.00000210       0.00000109
Cl       2.04523574       1.44619984       6.60107988      -0.00574679      -0.00406276      -0.00000084
Cl       5.57703483       3.94355854       6.60108033       0.00575233       0.00406201       0.00000271
Cl       4.69408468       1.44619998       5.07176599       0.00287201      -0.00406741      -0.00498114
Cl       2.92818503       3.94355898       8.13039363      -0.00287504       0.00406042       0.00497465
Cl       2.92818594       3.94355908       5.07176563      -0.00286960       0.00406259      -0.00497601
Cl       4.69408479       1.44619967       8.13039363       0.00286841      -0.00406738       0.00497846
