9
Lattice="5.30845278466504 -1.0618605212490084e-08 3.064836489190223 1.7694842092644856 5.0048574913878054 3.064836562419978 -8.68057721117749e-08 2.830679324049732e-08 6.1296731287324695" Properties=species:S:1:pos:R:3:forces:R:3 energy=-39.47440719604492 free_energy=-39.47440719604492 stress="-0.00040319038089364767 1.1923921849898989e-09 1.914088798571356e-08 1.1923921849898989e-09 -0.00040325403097085655 1.3308670610001627e-08 1.914088798571356e-08 1.3308670610001627e-08 -0.00040320464177057147" pbc="T T T"
Fe       1.76948389       1.25121476       3.06483633      -0.00000173       0.00000177      -0.00000049
Fe       5.30845253       3.75364254       9.19451070      -0.00000029      -0.00000208       0.00000613
Co      -0.00000003       0.00000019       0.00000061       0.00000081      -0.00000045      -0.00000356
Se       1.92643708       1.36219706       6.12967286       0.00242461       0.00171517       0.00000033
Se       5.15149974       3.64266040       6.12967262      -0.00242475      -0.00171429      -0.00000017
Se       4.34523446       1.36219704       4.73318015      -0.00121200       0.00171420       0.00210114
Se       2.73270231       3.64266031       7.52616569       0.00120989      -0.00171541      -0.00210188
Se       2.73270349       3.64266057       4.73317980       0.00121492      -0.00171468       0.00209838
Se       4.34523414       1.36219717       7.52616592      -0.00121161       0.00171591      -0.00209995
