9
Lattice="3.5887128061633464 -1.5805296155811275 2.2407582827406083 1.9083972290147755 0.9165376294596879 2.4218217348842903 1.34003309828259 -1.3312016748439686 4.335238598484896" Properties=species:S:1:pos:R:3:forces:R:3 energy=-3256109.0 free_energy=-3256109.0 stress="1348831.375 67094.46875 25774.66015625 67094.46875 1039232.4375 88290.5625 25774.66015625 88290.5625 1251930.0" pbc="T T T"
Fe       1.15999423       0.23693120       2.27795381 4428176.50000000 -1451424.12500000 -728757.75000000
Fe       5.15576644      -1.29506467       6.70995185 -579014.31250000 -5967879.50000000 2001361.87500000
C       -0.53235527       0.44500759      -0.11353124 12220988.00000000 2468858.75000000 1851331.00000000
F        3.01888166      -1.26421536       5.38729148  -73074.35937500 1451486.00000000 2537843.00000000
F        3.93072222      -1.03751286       2.37634330 -19345476.00000000 -1674844.75000000 6386080.50000000
F        3.67950798      -1.19230095       2.95568367 3950617.00000000 3151216.25000000 -13986729.00000000
F        3.21325645      -1.01365165       6.17036937 -4348890.00000000 1886851.75000000  -38098.88671875
F        2.76740224      -0.37264274       3.50830368  704462.25000000 -1980313.50000000 -219503.00000000
F        4.89287969      -2.39613324       6.62434124 3042215.00000000 2116049.50000000 2196468.25000000
