9
Lattice="6.323508368632582 -1.370235856389685e-07 3.6508793786309317 2.1078360678655894 5.961860523946021 3.650879250155801 7.343925413788331e-08 -1.0541978430969229e-07 7.301758630061373" Properties=species:S:1:pos:R:3:forces:R:3 energy=-23.679975509643555 free_energy=-23.679975509643555 stress="0.00018795434152707458 4.509161044552457e-09 1.5382634055427502e-09 4.509161044552457e-09 0.00018796545919030905 -2.914186669755736e-09 1.5382634055427502e-09 -2.914186669755736e-09 0.00018793744675349444" pbc="T T T"
Fe       2.10783719       1.49046624       3.65087912       0.00000353       0.00000391       0.00000138
Fe       6.32350702       4.47139466      10.95263824      -0.00000514      -0.00000240       0.00000009
Cu      -0.00000004      -0.00000003       0.00000002       0.00000086      -0.00000012       0.00000020
I        2.13664794       1.51083782       7.30175844      -0.00367626      -0.00259990      -0.00000053
I        6.29469667       4.45102211       7.30175858       0.00367651       0.00259874      -0.00000013
I        5.25518419       1.51083815       5.50127028       0.00183803      -0.00259849      -0.00318495
I        3.17616032       4.45102199       9.10224696      -0.00183754       0.00259767       0.00318472
I        3.17616047       4.45102219       5.50127029      -0.00183705       0.00259957      -0.00318608
I        5.25518428       1.51083798       9.10224708       0.00183708      -0.00259900       0.00318544
