9
Lattice="6.305763096049987 4.008135562671408e-08 3.6406340339756755 2.1019211021148076 5.945130292608062 3.6406339780147303 1.0739090786187844e-07 7.398940123675936e-09 7.2812678819448395" Properties=species:S:1:pos:R:3:forces:R:3 energy=-26.64921760559082 free_energy=-26.64921760559082 stress="6.629865674767643e-05 -4.0532768114109885e-12 -1.1911805986031254e-09 -4.0532768114109885e-12 6.63009486743249e-05 -8.412975205374096e-09 -1.1911805986031254e-09 -8.412975205374096e-09 6.629323615925387e-05" pbc="T T T"
Fe       2.10192069       1.48628272       3.64063345      -0.00000119       0.00000111      -0.00000125
Fe       6.30576339       4.45884741      10.92190178       0.00000010      -0.00000139      -0.00000181
Co       0.00000000       0.00000010       0.00000007      -0.00000051       0.00000011      -0.00000062
I        2.10624730       1.48934213       7.28126785       0.00280143       0.00198192       0.00000015
I        6.30143689       4.45578826       7.28126809      -0.00280067      -0.00198151       0.00000075
I        5.25263969       1.48934175       5.46469795      -0.00139951       0.00198053       0.00242755
I        3.15504488       4.45578842       9.09783825       0.00140151      -0.00198137      -0.00242577
I        3.15504482       4.45578872       5.46469794       0.00140104      -0.00198012       0.00242674
I        5.25263952       1.48934189       9.09783819      -0.00140218       0.00198077      -0.00242573
