9
Lattice="4.543427634049405 -6.892029076738835e-08 2.623149169099557 1.5144758334173896 4.283584510876911 2.6231491338010717 2.507769805019036e-08 -2.5499030875827007e-08 5.246298294763273" Properties=species:S:1:pos:R:3:forces:R:3 energy=-40.29756164550781 free_energy=-40.29756164550781 stress="0.0003210224967915565 -1.645806513295156e-08 -1.1694311297105742e-08 -1.645806513295156e-08 0.0003211105358786881 -1.285431849851193e-08 -1.1694311297105742e-08 -1.285431849851193e-08 0.00032109225867316127" pbc="T T T"
Fe       1.51447680       1.07089597       2.62314857       0.00000532      -0.00000042      -0.00000254
Fe       4.54342750       3.21268849       7.86944796      -0.00000031       0.00000272       0.00000430
Cu      -0.00000020      -0.00000030       0.00000056       0.00000649       0.00000894      -0.00001391
F        1.54504136       1.09250897       5.24629886      -0.00646336      -0.00456949       0.00000353
F        4.51286256       3.19107590       5.24629785       0.00644787       0.00456284      -0.00000380
F        3.77090651       1.09250858       3.96119424       0.00322680      -0.00456535      -0.00559269
F        2.28699648       3.19107549       6.53140254      -0.00322856       0.00456870       0.00559281
F        2.28699649       3.19107519       3.96119374      -0.00322492       0.00456350      -0.00559016
F        3.77090643       1.09250932       6.53140217       0.00323071      -0.00457139       0.00560246
