9
Lattice="3.8406685367581135 -1.1720506325177644e-07 2.2174107945423778 1.2802227491102707 3.6210177069493703 2.217410770248363 -7.413714015710825e-07 -5.539826647090976e-07 4.4348228731779376" Properties=species:S:1:pos:R:3:forces:R:3 energy=-43.46928405761719 free_energy=-43.46928405761719 stress="0.0007648640312254429 -5.393544029175246e-07 -5.521762318494439e-07 -5.393544029175246e-07 0.0007656970992684364 -4.839877760787203e-07 -5.521762318494439e-07 -4.839877760787203e-07 0.0007659792900085449" pbc="T T T"
Fe       1.28022306       0.90525499       2.21741197      -0.00000554      -0.00000954      -0.00000059
Fe       3.84066874       2.71576227       6.65223447      -0.00000183       0.00000372      -0.00001642
Co      -0.00000004       0.00000001       0.00000003       0.00000068       0.00000119      -0.00000415
F        1.33620090       0.94482552       4.43481751       0.00582844       0.00395632      -0.00006750
F        3.78468886       2.67619192       4.43482835      -0.00581735      -0.00395787       0.00007318
F        3.17258016       0.94483813       3.37459271      -0.00273302       0.00410366       0.00501209
F        1.94830973       2.67618020       5.49505022       0.00274384      -0.00412625      -0.00500971
F        1.94831972       2.67617902       3.37458738       0.00285143      -0.00409114       0.00494456
F        3.17257083       0.94483619       5.49505509      -0.00286478       0.00411940      -0.00493377
