9
Lattice="5.947676691449427 -0.09079397731624164 3.0963053565324183 2.364189743666932 4.26398400851827 2.3489569954199707 0.5535571989961159 -0.536527918084242 5.353030617279453" Properties=species:S:1:pos:R:3:forces:R:3 energy=-52.02975082397461 free_energy=-52.02975082397461 stress="9.938656876329333e-05 -7.027044193819165e-05 -5.500960105564445e-05 -7.027044193819165e-05 0.00010601304529700428 8.556676220905501e-06 -5.500960105564445e-05 8.556676220905501e-06 7.40050891181454e-05" pbc="T T T"
Fe       1.31302650       1.31688995       2.54501424      -0.00037993      -0.00212873      -0.00071642
Fe       5.51909090       2.22667737       9.29813713       0.00202406      -0.00254649      -0.00214244
Cr       0.27252506      -0.00879215      -0.19345708       0.00359145       0.00269671       0.00442311
F        2.52909803      -0.09670623       6.02732546      -0.00009060       0.00267392       0.00424042
F        6.90313136       3.27017023       4.73059551      -0.00064781      -0.00096884      -0.00477183
F        5.47247898       0.66816016       4.54846152       0.00209057      -0.00019157      -0.00255322
F        3.99208655       3.49263104       5.71876835      -0.00007237      -0.00053401      -0.00205699
F        3.03824072       2.48229475       2.93551456      -0.00447021      -0.00010554       0.00137398
F        6.42205152       1.19121427       7.58595914      -0.00204517       0.00110476       0.00220329
