9
Lattice="1.5935000697011625 0.5014933155724716 1.1765641706695769 0.10849659693305568 2.978052881016195 1.8636287022084985 -0.7963111517188569 1.250512842839532 3.305029432456503" Properties=species:S:1:pos:R:3:forces:R:3 energy=-12099770368.0 free_energy=-12099770368.0 stress="0.0 423465664.0 368445536.0 423465664.0 0.0 -10331535.0 368445536.0 -10331535.0 0.0" pbc="T T T"
Fe       0.27320855      -0.38552164      -0.40987150 3970353152.00000000 -7775381504.00000000 -1951950848.00000000
Fe       0.37814538       3.19850269       3.58489190 -1668762112.00000000 -11045771264.00000000 2732750080.00000000
Cr       0.23013572      -1.40149141      -0.80498273 -3249809408.00000000 -2043593344.00000000 589302400.00000000
O       -0.41176548       3.94926325       2.40053880 3513384960.00000000 7787102208.00000000 -2271621632.00000000
O        0.71772545       1.93526349       2.28787425 123262720.00000000 120333824.00000000 -4123029760.00000000
O       -0.17462930       0.39918461       1.29232905 -2189614080.00000000 4395136512.00000000 4790984192.00000000
O       -0.87641079       3.10817916       2.72035386 -2426231040.00000000 2673030400.00000000 -1633869824.00000000
O       -0.25240041       2.62754427       2.84000136 -2435335168.00000000 6861415424.00000000 118256384.00000000
O       -0.60532560       3.47168696       3.78464367 4362741760.00000000 -972274688.00000000 1749176832.00000000
