9
Lattice="5.49963519797883 1.5155908176796808e-07 3.1752160429627954 1.8332119111371818 5.185105943915502 3.1752159813255263 3.1883440366535644e-08 -5.294493262795702e-08 6.350432030701828" Properties=species:S:1:pos:R:3:forces:R:3 energy=-33.92961502075195 free_energy=-33.92961502075195 stress="0.0002093531802529469 6.6256919950546944e-09 -7.80543274458978e-09 6.6256919950546944e-09 0.0002093344955937937 -1.2829986850704245e-08 -7.80543274458978e-09 -1.2829986850704245e-08 0.0002093888761010021" pbc="T T T"
Fe       1.83321112       1.29627558       3.17521642      -0.00000296      -0.00000535       0.00000109
Fe       5.49963595       3.88883014       9.52564646       0.00000457       0.00000421      -0.00001024
Co      -0.00000007       0.00000009       0.00000036       0.00000165       0.00000070      -0.00000491
Cl       1.83351556       1.29649129       6.35043229       0.00199327       0.00141020       0.00000091
Cl       5.49933173       3.88861481       6.35043243      -0.00199622      -0.00141278       0.00000303
Cl       4.58287730       1.29649081       4.76308733      -0.00099897       0.00140920       0.00173168
Cl       2.74996999       3.88861503       7.93777663       0.00099713      -0.00140542      -0.00172672
Cl       2.74996920       3.88861490       4.76308739       0.00099618      -0.00141102       0.00173104
Cl       4.58287783       1.29649151       7.93777689      -0.00099476       0.00141022      -0.00172617
