9
Lattice="6.327265780859184 -3.405205053114606e-07 3.6530487341110502 2.109088329336406 5.9654032106538155 3.653048635795438 4.475546943148936e-08 -8.876465248328022e-08 7.306097390703417" Properties=species:S:1:pos:R:3:forces:R:3 energy=-24.369529724121094 free_energy=-24.369529724121094 stress="5.729126860387623e-05 7.615724051390771e-09 9.401374789774763e-09 7.615724051390771e-09 5.731022247346118e-05 -4.0864871486689935e-09 9.401374789774763e-09 -4.0864871486689935e-09 5.725578739657067e-05" pbc="T T T"
Fe       2.10908784       1.49135107       3.65304859      -0.00000277       0.00000086      -0.00000085
Fe       6.32726547       4.47405170      10.95914403      -0.00000112      -0.00000053      -0.00000816
C       -0.00000089      -0.00000070      -0.00000006      -0.00000031      -0.00000127      -0.00000036
I        2.06414152       1.45956793       7.30609756      -0.00189179      -0.00133848       0.00000082
I        6.37221363       4.50583576       7.30609803       0.00189430       0.00133997       0.00000270
I        5.29519575       1.45956759       5.44064788       0.00094715      -0.00133887      -0.00163728
I        3.14115901       4.50583461       9.17154792      -0.00094548       0.00133663       0.00164145
I        3.14115828       4.50583497       5.44064703      -0.00094804       0.00133824      -0.00163895
I        5.29519593       1.45956812       9.17154802       0.00094834      -0.00133654       0.00164080
