9
Lattice="5.356182004110945 2.3520859394954157e-09 3.0923930733277887 1.785393955650535 5.049857019953634 3.0923931563576748 -6.027951128566412e-08 5.9066396500667644e-08 6.184786251062759" Properties=species:S:1:pos:R:3:forces:R:3 energy=-42.15961837768555 free_energy=-42.15961837768555 stress="1.064064144884469e-05 -1.44793261824816e-08 -8.63646043569588e-09 -1.44793261824816e-08 1.059970509231789e-05 1.5539329822900072e-08 -8.63646043569588e-09 1.5539329822900072e-08 1.062908359017456e-05" pbc="T T T"
Fe       1.78539304       1.26246451       3.09239262      -0.00000530       0.00000080      -0.00000120
Fe       5.35618178       3.78739284       9.27717929      -0.00000236      -0.00000006      -0.00000014
Cr       0.00000009      -0.00000024       0.00000019       0.00000221       0.00000146       0.00000012
Se       1.97622110       1.39739890       6.18478591      -0.00224051      -0.00158592      -0.00000245
Se       5.16535549       3.65245815       6.18478562       0.00223932       0.00158370      -0.00000379
Se       4.36807190       1.39739872       4.80385115       0.00112253      -0.00158659      -0.00194049
Se       2.77350414       3.65245745       7.56572206      -0.00112160       0.00158322       0.00194201
Se       2.77350420       3.65245817       4.80385080      -0.00111829       0.00158505      -0.00193802
Se       4.36807184       1.39739981       7.56572226       0.00112410      -0.00158156       0.00194395
