9
Lattice="6.432526755089343 -1.587798355949939e-07 3.7138212584515844 2.144175609182101 6.064644418438877 3.713820957332152 1.6968930163855496e-07 -2.4880601029466455e-07 7.427642222992604" Properties=species:S:1:pos:R:3:forces:R:3 energy=-30.715499877929688 free_energy=-30.715499877929688 stress="-1.8640761481947266e-05 1.275311145576552e-08 8.214229296754638e-10 1.275311145576552e-08 -1.8647087927092798e-05 -2.071196547603904e-09 8.214229296754638e-10 -2.071196547603904e-09 -1.8635866581462324e-05" pbc="T T T"
Fe       2.14417560       1.51616082       3.71382082      -0.00000007       0.00000105      -0.00000073
Fe       6.43252715       4.54848373      11.14146370       0.00000084       0.00000150       0.00000001
Cr       0.00000099      -0.00000042      -0.00000037      -0.00000895       0.00000507       0.00000322
I        2.16483349       1.53076817       7.42764234       0.00001715       0.00001096       0.00000079
I        6.41186874       4.53387532       7.42764179      -0.00001346      -0.00000888      -0.00000013
I        5.35011012       1.53076846       5.58862251      -0.00000610       0.00000668       0.00001034
I        3.22659198       4.53387578       9.26666281       0.00000974      -0.00001395      -0.00001673
I        3.22659216       4.53387598       5.58862171       0.00000854      -0.00001200       0.00001478
I        5.35010991       1.53076819       9.26666251      -0.00000770       0.00000954      -0.00001179
