9
Lattice="4.534236127571106 -1.1519352182001682e-07 2.6178424613051634 1.5114119409816356 4.2749188365417785 2.6178424490709142 -5.3716051622989155e-08 -5.2966789100368695e-08 5.2356850156492145" Properties=species:S:1:pos:R:3:forces:R:3 energy=-43.85573959350586 free_energy=-43.85573959350586 stress="8.54586687637493e-05 -2.616437200231303e-08 -5.536556102470058e-08 -2.616437200231303e-08 8.551053906558082e-05 4.557889621281674e-09 -5.536556102470058e-08 4.557889621281674e-09 8.547959441784769e-05" pbc="T T T"
Fe       1.51141283       1.06872963       2.61784354       0.00000625       0.00000111       0.00000838
Fe       4.53423622       3.20618793       7.85352762       0.00000347      -0.00001123       0.00000140
Co      -0.00000020      -0.00000021      -0.00000003       0.00000590       0.00000337       0.00000160
F        1.50593722       1.06485922       5.23568496      -0.00060329      -0.00042298      -0.00000269
F        4.53971013       3.21006022       5.23568479       0.00059733       0.00042453      -0.00000239
F        3.78126665       1.06485890       3.92202245       0.00029516      -0.00042337      -0.00052261
F        2.26438103       3.21005997       6.54934683      -0.00030228       0.00042769       0.00051925
F        2.26438068       3.21005974       3.92202258      -0.00030368       0.00042471      -0.00052312
F        3.78126748       1.06485920       6.54934693       0.00030102      -0.00042399       0.00052005
