9
Lattice="6.307030962638434 -7.08678621999736e-08 3.6413660298599293 2.1023435237510415 5.946325942358392 3.641366140099399 -1.6864604734188076e-07 1.5764464491657757e-08 7.28273235182339" Properties=species:S:1:pos:R:3:forces:R:3 energy=-26.649158477783203 free_energy=-26.649158477783203 stress="0.0002827129210345447 -1.9413336715956575e-08 4.157677313543218e-09 -1.9413336715956575e-08 0.0002827369899023324 1.975446117796764e-08 4.157677313543218e-09 1.975446117796764e-08 0.0002827279386110604" pbc="T T T"
Fe       2.10234381       1.48658005       3.64136534       0.00000129      -0.00000664      -0.00000105
Fe       6.30703111       4.45974486      10.92410036       0.00000139       0.00000240       0.00000533
Co       0.00000006      -0.00000003       0.00000026      -0.00000047       0.00000009      -0.00000143
I        2.10831034       1.49080036       7.28273242      -0.00676455      -0.00478297       0.00000142
I        6.30106390       4.45552558       7.28273169       0.00676433       0.00478452      -0.00000253
I        5.25287555       1.49080068       5.46721615       0.00338211      -0.00478245      -0.00585981
I        3.15649814       4.45552585       9.09824751      -0.00338320       0.00478461       0.00585669
I        3.15649901       4.45552598       5.46721645      -0.00338129       0.00478462      -0.00585730
I        5.25287531       1.49080021       9.09824788       0.00338045      -0.00478422       0.00585861
