9
Lattice="5.143987167989109 1.1448257280641158e-08 2.969882314076566 1.714662389394981 4.849797665598364 2.969882332658408 -2.3890086715572297e-08 5.865182310197293e-09 5.939764669531995" Properties=species:S:1:pos:R:3:forces:R:3 energy=-43.45296096801758 free_energy=-43.45296096801758 stress="4.476227695704438e-05 2.505048612988503e-08 -7.303058158214526e-09 2.505048612988503e-08 4.482073927647434e-05 2.2999406823487334e-08 -7.303058158214526e-09 2.2999406823487334e-08 4.480562711250968e-05" pbc="T T T"
Fe       1.71466239       1.21244938       2.96988203       0.00000157      -0.00000023      -0.00000417
Fe       5.14398683       3.63734781       8.90964585      -0.00000336      -0.00000342      -0.00000662
Co       0.00000014      -0.00000028      -0.00000033      -0.00000622       0.00000880       0.00001011
S        1.74771192       1.23581840       5.93976486       0.00213847       0.00151350       0.00000075
S        5.11093787       3.61397873       5.93976507      -0.00213793      -0.00151171       0.00000045
S        4.27013127       1.23581873       4.48344541      -0.00106726       0.00150867       0.00184736
S        2.58851838       3.61397926       7.39608490       0.00107248      -0.00151560      -0.00185841
S        2.58851807       3.61397930       4.48344485       0.00107130      -0.00151505       0.00185749
S        4.27013125       1.23581932       7.39608467      -0.00106898       0.00151487      -0.00184678
