9
Lattice="6.000496368095571 5.5270577579968885e-08 3.46438823240223 2.0001654905009296 5.6573223177945895 3.4643882629564833 1.5788895897445605e-08 4.85856227765524e-08 6.92877643745728" Properties=species:S:1:pos:R:3:forces:R:3 energy=-24.83486557006836 free_energy=-24.83486557006836 stress="-0.00014935106446500868 -1.073195754486278e-08 1.6737111252496106e-08 -1.073195754486278e-08 -0.0001493525633122772 -7.828886872118801e-09 1.6737111252496106e-08 -7.828886872118801e-09 -0.00014933320926502347" pbc="T T T"
Fe       2.00016549       1.41433026       3.46438811      -0.00000069       0.00000079       0.00000064
Fe       6.00049674       4.24299201      10.39316491       0.00000172      -0.00000044       0.00000058
Cd      -0.00000045      -0.00000019      -0.00000014       0.00000428       0.00000343       0.00000076
Br       2.15323299       1.52256569       6.92877642      -0.00331521      -0.00234364       0.00000046
Br       5.84742924       4.13475721       6.92877650       0.00330612       0.00233963       0.00000059
Br       4.92387993       1.52256562       5.32914248       0.00165722      -0.00234121      -0.00286797
Br       3.07678150       4.13475682       8.52841046      -0.00165343       0.00233909       0.00286412
Br       3.07678196       4.13475664       5.32914268      -0.00165570       0.00234368      -0.00286770
Br       4.92388009       1.52256564       8.52841026       0.00165570      -0.00234137       0.00286829
