9
Lattice="4.253139414258271 8.290385085105503e-09 2.455551331737428 1.41771315527484 4.00989843796884 2.4555513155037767 -2.753658084493271e-08 -3.935337293712285e-08 4.911102711169574" Properties=species:S:1:pos:R:3:forces:R:3 energy=-42.23223876953125 free_energy=-42.23223876953125 stress="-0.00035224691964685917 -9.953920709904196e-08 1.680794525782403e-08 -9.953920709904196e-08 -0.0003518933954183012 3.172096540993152e-08 1.680794525782403e-08 3.172096540993152e-08 -0.0003522703191265464" pbc="T T T"
Fe       1.41771424       1.00247400       2.45555039       0.00000680      -0.00000199      -0.00000888
Fe       4.25313763       3.00742213       7.36665363      -0.00001228      -0.00001404      -0.00000592
C        0.00000014       0.00000042      -0.00000014      -0.00000363      -0.00000498       0.00000246
F        1.28266060       0.90697853       4.91110257       0.00328034       0.00231656       0.00000157
F        4.38819201       3.10292067       4.91110323      -0.00328600      -0.00231573       0.00000313
F        3.61180941       0.90697852       3.56636802      -0.00163797       0.00232220       0.00284082
F        2.05904339       3.10292018       6.25583782       0.00164637      -0.00231415      -0.00283891
F        2.05904364       3.10292058       3.56636810       0.00164723      -0.00231051       0.00284284
F        3.61180912       0.90697843       6.25583785      -0.00164038       0.00232247      -0.00283772
