9
Lattice="5.127108114975593 -6.018833384594471e-08 2.960137204922461 1.7090359544608944 4.8338839623170875 2.960137251892523 -2.8270867436744613e-08 3.753583439402418e-08 5.920274458811464" Properties=species:S:1:pos:R:3:forces:R:3 energy=-45.28609848022461 free_energy=-45.28609848022461 stress="0.00010641998960636556 5.181585294167235e-08 2.3963880879662725e-10 5.181585294167235e-08 0.00010647764429450035 -8.76859029830257e-09 2.3963880879662725e-10 -8.76859029830257e-09 0.00010638195089995861" pbc="T T T"
Fe       1.70903628       1.20847113       2.96013707       0.00000127       0.00000026      -0.00000231
Fe       5.12710745       3.62541276       8.88041191      -0.00000256      -0.00000124       0.00000242
Cr      -0.00000002       0.00000008      -0.00000026       0.00000003       0.00000166       0.00000573
S        1.79432073       1.26877645       5.92027433       0.00280395       0.00198254      -0.00000184
S        5.04182341       3.56510753       5.92027426      -0.00280473      -0.00198251      -0.00000072
S        4.22994786       1.26877630       4.51406462      -0.00139931       0.00197971       0.00242922
S        2.60619635       3.56510745       7.32648458       0.00140552      -0.00198621      -0.00243104
S        2.60619640       3.56510757       4.51406459       0.00140125      -0.00198087       0.00242814
S        4.22994773       1.26877648       7.32648450      -0.00140539       0.00198698      -0.00242874
