9
Lattice="5.952820873356165 -3.289696218229271e-08 3.4368625151666348 1.9842736043955258 5.612373136554144 3.4368624961850522 -2.355974088330704e-08 -3.9906859966856616e-08 6.873725071139921" Properties=species:S:1:pos:R:3:forces:R:3 energy=-35.553123474121094 free_energy=-35.553123474121094 stress="0.00013975423644296825 1.8972340143363908e-08 2.0699815195257543e-08 1.8972340143363908e-08 0.0001397339947288856 9.011825952143226e-09 2.0699815195257543e-08 9.011825952143226e-09 0.00013968766143079847" pbc="T T T"
Fe       1.98427425       1.40309364       3.43686313       0.00000385       0.00000259       0.00000074
Fe       5.95282164       4.20927957      10.31058705       0.00000214      -0.00000056      -0.00000028
Cr      -0.00000012       0.00000000      -0.00000023      -0.00000196      -0.00000076       0.00000289
Br       1.99324057       1.40943421       6.87372491       0.00023916       0.00017048      -0.00000102
Br       5.94385339       4.20293882       6.87372526      -0.00024147      -0.00017022       0.00000073
Br       4.95620016       1.40943374       5.16305959      -0.00012147       0.00017064       0.00020976
Br       2.98089373       4.20293924       8.58439041       0.00012117      -0.00017240      -0.00021353
Br       2.98089391       4.20293898       5.16305945       0.00012084      -0.00017129       0.00021084
Br       4.95620023       1.40943411       8.58439064      -0.00012213       0.00017135      -0.00021023
