9
Lattice="5.914420236281225 -4.1955302445304104e-08 3.4146921055956088 1.9714733832303568 5.576168814066009 3.4146920870757573 -2.285082899630951e-08 -3.884008960714558e-08 6.829384250770007" Properties=species:S:1:pos:R:3:forces:R:3 energy=-27.030258178710938 free_energy=-27.030258178710938 stress="-0.0003240129735786468 -1.400463212064551e-08 9.15481968011278e-10 -1.400463212064551e-08 -0.00032404958619736135 4.092965522062286e-09 9.15481968011278e-10 4.092965522062286e-09 -0.00032402382930740714" pbc="T T T"
Fe       1.97147344       1.39404189       3.41469221       0.00000006      -0.00000014       0.00000007
Fe       5.91442009       4.18212623      10.24407660      -0.00000015      -0.00000267       0.00000033
Cu      -0.00000012      -0.00000005      -0.00000001       0.00000211      -0.00000020      -0.00000152
Br       1.99361037       1.40969550       6.82938424      -0.00305127      -0.00215730      -0.00000025
Br       5.89228322       4.16647344       6.82938410       0.00305030       0.00215697       0.00000001
Br       4.91761505       1.40969564       5.14120930       0.00152475      -0.00215626      -0.00264153
Br       2.96827854       4.16647319       8.51755895      -0.00152588       0.00215805       0.00264259
Br       2.96827877       4.16647349       5.14120941      -0.00152553       0.00215867      -0.00264174
Br       4.91761500       1.40969558       8.51755899       0.00152577      -0.00215709       0.00264217
