9
Lattice="4.122585922545643 0.00014050236517475944 2.379303310738109 1.3742213265294474 3.886366227411669 2.380083439171841 0.16350153749993793 0.1163033529349011 4.476142082475331" Properties=species:S:1:pos:R:3:forces:R:3 energy=-54.913307189941406 free_energy=-54.913307189941406 stress="0.0001827525848057121 -6.672419840469956e-05 -3.6126624763710424e-05 -6.672419840469956e-05 -7.662307325517759e-06 0.0001813910494092852 -3.6126624763710424e-05 0.0001813910494092852 -0.00010771755478344858" pbc="T T T"
Fe       1.45215920       1.02671200       2.24364173       0.00227693      -0.00025886       0.00081740
Fe       4.20731345       2.97551639       6.99080338       0.00390895      -0.00399888       0.00370676
C       -0.00038051      -0.00054218      -0.00062051       0.00438067       0.00174269       0.00592896
O        1.54146939       0.73041564       4.48282402       0.00089994       0.00196886      -0.00009131
O        4.11854538       3.27141388       4.75188262      -0.00691745      -0.00095832      -0.00089896
O        3.77460392       0.86044386       3.56873683       0.00061679      -0.00197017       0.00242364
O        1.88531598       3.14132195       5.66618155      -0.00280070       0.00276905      -0.00671920
O        1.89997315       2.79158012       3.27592928      -0.00237405       0.00085837       0.00019836
O        3.75997504       1.21037630       5.95906572       0.00000948      -0.00015222      -0.00536585
