9
Lattice="5.067306884659676 1.304825534852486e-07 2.925611175090005 1.6891024252058586 4.777503001183311 2.925611162447498 6.841239722449399e-08 3.28910142289001e-08 5.851222231686282" Properties=species:S:1:pos:R:3:forces:R:3 energy=-40.621097564697266 free_energy=-40.621097564697266 stress="0.00010148186993319541 6.509482952665735e-10 -1.7879278502164198e-08 6.509482952665735e-10 0.00010133015166502446 -5.674747782791201e-08 -1.7879278502164198e-08 -5.674747782791201e-08 0.00010144271800527349" pbc="T T T"
Fe       1.68910114       1.19437633       2.92561158      -0.00000632       0.00000339       0.00000151
Fe       5.06730675       3.58312695       8.77683236      -0.00000377      -0.00000257      -0.00000348
C        0.00000027      -0.00000003       0.00000012      -0.00000377      -0.00000102       0.00000096
S        1.54683716       1.09377908       5.85122351      -0.00030482      -0.00021949       0.00001299
S        5.20957351       3.68372266       5.85122366       0.00031954       0.00020951       0.00001279
S        4.29388801       1.09378004       4.26521086       0.00014919      -0.00020942      -0.00027603
S        2.46252028       3.68372472       7.43723240      -0.00015944       0.00022164       0.00025529
S        2.46252101       3.68372264       4.26521063      -0.00015214       0.00021037      -0.00027215
S        4.29388950       1.09378016       7.43723336       0.00016221      -0.00021181       0.00026762
