9
Lattice="5.609241353161761 2.3663439877760456e-09 3.238497045863957 1.8697471187703618 5.288443357866886 3.2384970479099673 8.968532747359592e-10 3.1400079438553107e-09 6.4769940901745215" Properties=species:S:1:pos:R:3:forces:R:3 energy=-38.50208282470703 free_energy=-38.50208282470703 stress="-1.1543311302375514e-06 -7.397733536862461e-09 -5.910372635753447e-09 -7.397733536862461e-09 -1.2021913562421105e-06 1.0050001719719148e-08 -5.910372635753447e-09 1.0050001719719148e-08 -1.1364114698153571e-06" pbc="T T T"
Fe       1.86974719       1.32211128       3.23849695       0.00000189       0.00000115      -0.00000087
Fe       5.60924065       3.96633255       9.71549144      -0.00000140      -0.00000028       0.00000050
Cr       0.00000001      -0.00000002       0.00000004      -0.00000035      -0.00000203      -0.00000403
Cl       1.87753202       1.32761559       6.47699418       0.00007530       0.00005253      -0.00000035
Cl       5.60145668       3.96082770       6.47699395      -0.00007436      -0.00005416      -0.00000070
Cl       4.67047553       1.32761560       4.86448739      -0.00003834       0.00005509       0.00006611
Cl       2.80851319       3.96082755       8.08950064       0.00003619      -0.00005098      -0.00006081
Cl       2.80851324       3.96082760       4.86448739       0.00003853      -0.00005408       0.00006391
Cl       4.67047535       1.32761565       8.08950071      -0.00003744       0.00005284      -0.00006390
