9
Lattice="6.327109524926604 1.792839982615076e-07 3.6529583733972384 2.1090365747461504 5.965256192713413 3.6529585510940374 -1.2908548149437726e-07 1.2635599315723075e-07 7.305916970377078" Properties=species:S:1:pos:R:3:forces:R:3 energy=-24.369535446166992 free_energy=-24.369535446166992 stress="1.1565100066945888e-05 -7.450565053801483e-09 -9.82513270741947e-09 -7.450565053801483e-09 1.1565825843717903e-05 4.645374307443717e-09 -9.82513270741947e-09 4.645374307443717e-09 1.1590440408326685e-05" pbc="T T T"
Fe       2.10903605       1.49131498       3.65295862      -0.00000181       0.00000212       0.00000036
Fe       6.32710907       4.47394219      10.95887663      -0.00000214      -0.00000011       0.00000532
C        0.00000017       0.00000025      -0.00000024      -0.00000001       0.00000099      -0.00000126
I        2.06302505       1.45877960       7.30591683       0.00086296       0.00061059       0.00000030
I        6.37312059       4.50647669       7.30591647      -0.00086308      -0.00061172      -0.00000203
I        5.29559675       1.45877982       5.43959063      -0.00043166       0.00061148       0.00074655
I        3.14054957       4.50647675       9.17224307       0.00043315      -0.00061139      -0.00074691
I        3.14054971       4.50647677       5.43959086       0.00043330      -0.00061071       0.00074738
I        5.29559694       1.45877896       9.17224252      -0.00043032       0.00060889      -0.00074989
