9
Lattice="2.1344487266655694 0.9318202282414249 1.871837060192703 -0.6226057484197985 2.7099103016792294 1.6176929291201527 -1.1932750374102377 0.17711905114091975 2.3850242162243" Properties=species:S:1:pos:R:3:forces:R:3 energy=-303484896.0 free_energy=-303484896.0 stress="225571856.0 -9784511.0 -6265575.5 -9784511.0 209746112.0 8800978.0 -6265575.5 8800978.0 226660112.0" pbc="T T T"
Fe       0.04337778       0.70476980       2.54073501 -55268704.00000000 189654528.00000000 1809084.00000000
Fe       1.42414224       5.30467670       3.29176091 -62400632.00000000 39337952.00000000 50687056.00000000
Co      -0.16018689       1.52644108       1.10417655 200533792.00000000 -5672682.00000000 -54432416.00000000
O       -0.39761220       1.77526599       2.91340983 -3647120.00000000 16018574.00000000 -56268144.00000000
O       -0.09127346       3.77754614       4.25919902 27560194.00000000 -42831512.00000000 -86391264.00000000
O        0.04784409       2.77157553       1.76619351 -9373392.00000000 -155836864.00000000 131655936.00000000
O       -0.34811109       2.26194222       4.00644306 41809012.00000000 175269104.00000000 -28814516.00000000
O       -3.24224994       2.83686215       3.40994147 -46358296.00000000 -121357104.00000000 -5290460.00000000
O        1.00657211       2.20229802       4.35839896 -92854824.00000000 -94581880.00000000 47044964.00000000
