9
Lattice="5.517058492329499 -6.343127710945105e-11 3.1852751748529413 1.8390194631257668 5.2015328123681375 3.185275234188866 -2.0904218572588015e-08 5.788981292443267e-08 6.370550385913054" Properties=species:S:1:pos:R:3:forces:R:3 energy=-30.3350887298584 free_energy=-30.3350887298584 stress="0.0001578302326379344 1.0598532718120168e-08 9.821725655001501e-09 1.0598532718120168e-08 0.00015778871602378786 1.3755797390047064e-08 9.821725655001501e-09 1.3755797390047064e-08 0.0001577678631292656" pbc="T T T"
Fe       1.83901978       1.30038388       3.18527462       0.00000238       0.00000401      -0.00000580
Fe       5.51705829       3.90115011       9.55582566      -0.00000097       0.00000421      -0.00000206
Cu       0.00000025      -0.00000013      -0.00000001      -0.00000331      -0.00000003       0.00000152
Cl       1.86559843       1.31917697       6.37055045      -0.00763023      -0.00539652       0.00000129
Cl       5.49047950       3.88235547       6.37055023       0.00763512       0.00539663       0.00000105
Cl       4.58425928       1.31917696       4.80093097       0.00381503      -0.00539857      -0.00660732
Cl       2.77181856       3.88235533       7.94017041      -0.00381602       0.00539416       0.00660956
Cl       2.77181853       3.88235563       4.80093083      -0.00381668       0.00539371      -0.00660831
Cl       4.58425906       1.31917728       7.94017006       0.00381480      -0.00539753       0.00660983
