9
Lattice="4.7970199143860714 5.961178647345515e-08 2.769560840850871 1.599006725246383 4.522673514379333 2.7695607873042207 2.2960594564699244e-07 9.677495952347715e-08 5.53912128401258" Properties=species:S:1:pos:R:3:forces:R:3 energy=-41.37752151489258 free_energy=-41.37752151489258 stress="0.000162070820806548 1.1401297683732992e-07 -1.5773731831814075e-07 1.1401297683732992e-07 0.00016243947902694345 -1.6907907252061705e-07 -1.5773731831814075e-07 -1.6907907252061705e-07 0.00016207160660997033" pbc="T T T"
Fe       1.59900879       1.13066615       2.76956121       0.00002174      -0.00002005       0.00000549
Fe       4.79702078       3.39200701       8.30868693       0.00000599       0.00001594       0.00004756
Ca       0.00000031      -0.00000017       0.00000051      -0.00000018      -0.00000036       0.00000541
F        1.70187650       1.20340672       5.53912069      -0.00025199      -0.00018945      -0.00000397
F        4.69414991       3.31926774       5.53911928       0.00024628       0.00019348      -0.00002248
F        3.94608174       1.20340840       4.24342700       0.00012212      -0.00017146      -0.00022687
F        2.44994279       3.31926618       6.83481364      -0.00013933       0.00017963       0.00020656
F        2.44994512       3.31926628       4.24342800      -0.00012190       0.00018441      -0.00022331
F        3.94608147       1.20340634       6.83481423       0.00011692      -0.00019217       0.00021152
