9
Lattice="6.093542497669628 -1.0334325585773801e-07 3.518108522866637 2.0311807539032127 5.745047225785821 3.5181084903393316 -1.75703767509722e-08 -5.226178352103227e-08 7.036217076166066" Properties=species:S:1:pos:R:3:forces:R:3 energy=-37.86528396606445 free_energy=-37.86528396606445 stress="4.1346222133142874e-05 -1.4739786280415501e-08 -1.3737478710140749e-08 -1.4739786280415501e-08 4.141088720643893e-05 6.525224804931895e-11 -1.3737478710140749e-08 6.525224804931895e-11 4.138475196668878e-05" pbc="T T T"
Fe       2.03118201       1.43626137       3.51810877       0.00000697      -0.00000074       0.00000047
Fe       6.09354326       4.30878477      10.55432474       0.00000431      -0.00000184      -0.00000170
Cr      -0.00000023       0.00000011       0.00000041      -0.00000027      -0.00000226      -0.00000236
Te       2.16859332       1.53342789       7.03621673       0.00040049       0.00028354      -0.00000243
Te       5.95612912       4.21161943       7.03621649      -0.00040038      -0.00028240      -0.00000155
Te       5.00924530       1.53342766       5.39616616      -0.00020301       0.00028155       0.00034682
Te       3.11547765       4.21161907       8.67626789       0.00019754      -0.00028121      -0.00034309
Te       3.11547732       4.21161947       5.39616678       0.00019641      -0.00028197       0.00034717
Te       5.00924515       1.53342849       8.67626842      -0.00020208       0.00028528      -0.00034330
