9
Lattice="6.7685492425749745 2.118343349444904e-08 3.907823730710747 2.256183081466305 6.381449466538398 3.9078237642500855 -2.0166653744654262e-08 2.6817164740617853e-08 7.815647496351155" Properties=species:S:1:pos:R:3:forces:R:3 energy=-25.096454620361328 free_energy=-25.096454620361328 stress="5.551426966121653e-06 2.585379021979861e-08 9.812558765531776e-09 2.585379021979861e-08 5.531657279789215e-06 -1.2497482160256368e-08 9.812558765531776e-09 -1.2497482160256368e-08 5.504919045051793e-06" pbc="T T T"
Fe       2.25618313       1.59536252       3.90782374       0.00000114       0.00000068       0.00000156
Fe       6.76854907       4.78608702      11.72347122      -0.00000149       0.00000076       0.00000020
Ca       0.00000028      -0.00000000       0.00000025      -0.00000236      -0.00000112      -0.00000360
I        2.47013705       1.74665067       7.81564750       0.00044523       0.00031461      -0.00000033
I        6.55459513       4.63479870       7.81564748      -0.00044246      -0.00031359      -0.00000066
I        5.53348074       1.74665080       6.04702529      -0.00022339       0.00031532       0.00038467
I        3.49125165       4.63479864       9.58426975       0.00022160      -0.00031319      -0.00038359
I        3.49125154       4.63479889       6.04702510       0.00022362      -0.00031635       0.00038563
I        5.53348062       1.74665084       9.58426967      -0.00022186       0.00031283      -0.00038387
