9
Lattice="5.871143569931317 -4.1125813373855626e-09 3.389706289139908 1.9570478468647887 5.535367171069637 3.3897062993617495 -4.35211810501534e-09 9.44175233738833e-09 6.779412585817819" Properties=species:S:1:pos:R:3:forces:R:3 energy=-30.37118911743164 free_energy=-30.37118911743164 stress="-0.00024951749946922064 7.560829295982785e-09 -2.936018983490385e-09 7.560829295982785e-09 -0.0002495459048077464 3.755133537453048e-09 -2.936018983490385e-09 3.755133537453048e-09 -0.0002495214284863323" pbc="T T T"
Fe       1.95704781       1.38384178       3.38970614      -0.00000063      -0.00000036      -0.00000089
Fe       5.87114377       4.15152509      10.16911896       0.00000210      -0.00000101      -0.00000006
Co       0.00000011       0.00000013      -0.00000005       0.00000010       0.00000088      -0.00000205
Br       1.98131973       1.40100491       6.77941263      -0.00273509      -0.00193274      -0.00000123
Br       5.84687163       4.13436218       6.77941277       0.00273243       0.00193342       0.00000052
Br       4.88048360       1.40100456       5.10557998       0.00136636      -0.00193297      -0.00236866
Br       2.94770766       4.13436254       8.45324543      -0.00136686       0.00193442       0.00236814
Br       2.94770806       4.13436265       5.10557945      -0.00136616       0.00193148      -0.00236675
Br       4.88048328       1.40100478       8.45324543       0.00136770      -0.00193314       0.00237076
