9
Lattice="5.890360779619563 -2.5562779266868438e-08 3.4008013146992453 1.9634535656965981 5.553485344432175 3.4008013206040157 -2.675452969899813e-08 -1.1686498497913827e-08 6.801602675738713" Properties=species:S:1:pos:R:3:forces:R:3 energy=-26.917646408081055 free_energy=-26.917646408081055 stress="-0.0003532894770614803 1.1176990888372984e-08 4.9736947893563865e-09 1.1176990888372984e-08 -0.00035330181708559394 -8.080483837602515e-09 4.9736947893563865e-09 -8.080483837602515e-09 -0.000353280920535326" pbc="T T T"
Fe       1.96345335       1.38837129       3.40080134      -0.00000217       0.00000005       0.00000043
Fe       5.89036091       4.16511408      10.20240397       0.00000001      -0.00000011      -0.00000029
C       -0.00000008       0.00000004      -0.00000002       0.00000045      -0.00000011       0.00000131
Br       1.95644838       1.38341790       6.80160266       0.00399387       0.00282404       0.00000012
Br       5.89736597       4.17006730       6.80160261      -0.00399387      -0.00282463       0.00000002
Br       4.91213657       1.38341799       5.09513529      -0.00199610       0.00282419       0.00345823
Br       2.94167778       4.17006734       8.50807003       0.00199747      -0.00282368      -0.00345939
Br       2.94167786       4.17006737       5.09513526       0.00199668      -0.00282386       0.00345901
Br       4.91213653       1.38341791       8.50807006      -0.00199616       0.00282422      -0.00345924
