9
Lattice="5.891836512298765 6.967084162630091e-08 3.4016531674478756 1.9639455186316606 5.55487671117304 3.401653256049545 5.2783127570632406e-08 1.4583775494387933e-07 6.803306243472717" Properties=species:S:1:pos:R:3:forces:R:3 energy=-26.917678833007812 free_energy=-26.917678833007812 stress="-7.807760266587138e-05 -3.1602780836692546e-08 -2.8154139020131197e-09 -3.1602780836692546e-08 -7.801490573910996e-05 -8.519048577682042e-09 -2.8154139020131197e-09 -8.519048577682042e-09 -7.803858170518652e-05" pbc="T T T"
Fe       1.96394676       1.38871722       3.40165293       0.00000564      -0.00000789      -0.00000168
Fe       5.89183649       4.16615882      10.20495912       0.00000062       0.00000192      -0.00000218
C        0.00000078      -0.00000089      -0.00000029       0.00000504      -0.00000333      -0.00000048
Br       1.95696331       1.38378315       6.80330656       0.00124088       0.00087982       0.00000057
Br       5.89881775       4.17109482       6.80330641      -0.00124395      -0.00087726      -0.00000099
Br       4.91335404       1.38378224       5.09643376      -0.00062445       0.00087929       0.00107688
Br       2.94242761       4.17109529       8.51017949       0.00061859      -0.00087556      -0.00107425
Br       2.94242746       4.17109495       5.09643361       0.00062051      -0.00087494       0.00107631
Br       4.91335412       1.38378225       8.51017896      -0.00062306       0.00087813      -0.00107434
