9
Lattice="5.642566590380695 -4.2323566302262426e-08 3.2577373243124517 1.8808554868292886 5.319862963974458 3.257737330191971 1.888437071925575e-08 2.0554184357123876e-08 6.515474615916212" Properties=species:S:1:pos:R:3:forces:R:3 energy=-27.342876434326172 free_energy=-27.342876434326172 stress="-6.647677219007164e-05 -4.178805301791044e-09 -2.2593493298472822e-08 -4.178805301791044e-09 -6.647992267971858e-05 -1.7059104351346832e-08 -2.2593493298472822e-08 -1.7059104351346832e-08 -6.650630530202761e-05" pbc="T T T"
Fe       1.88085590       1.32996508       3.25773678       0.00000186      -0.00000315      -0.00000406
Fe       5.64256710       3.98989650       9.77321213       0.00000402      -0.00000498       0.00000148
Cd      -0.00000007       0.00000011      -0.00000011      -0.00000074       0.00000267      -0.00000222
Cl       1.99652322       1.41175556       6.51547434      -0.00052798      -0.00036936      -0.00000063
Cl       5.52689870       3.90810774       6.51547412       0.00052208       0.00037199      -0.00000162
Cl       4.64430501       1.41175554       4.98677756       0.00026464      -0.00037001      -0.00045544
Cl       2.87911697       3.90810762       8.04417187      -0.00026351       0.00037041       0.00045347
Cl       2.87911713       3.90810800       4.98677789      -0.00026225       0.00037333      -0.00045070
Cl       4.64430440       1.41175563       8.04417245       0.00026183      -0.00037082       0.00045995
