9
Lattice="5.5479411742231965 4.6920640452559915e-08 3.2031051162143895 1.8493137392796786 5.230649385836708 3.2031051676538693 -1.2385285262392824e-07 -2.4576933071253713e-08 6.406210446948214" Properties=species:S:1:pos:R:3:forces:R:3 energy=-29.255233764648438 free_energy=-29.255233764648438 stress="-0.00014217235730029643 -9.210014972893532e-09 -8.287734054590601e-09 -9.210014972893532e-09 -0.00014215343981049955 1.1207070826912968e-08 -8.287734054590601e-09 1.1207070826912968e-08 -0.00014213459508027881" pbc="T T T"
Fe       1.84931164       1.30766378       3.20310619      -0.00001062       0.00000825       0.00000496
Fe       5.54793978       3.92298710       9.60931251      -0.00000777       0.00000041      -0.00001754
C       -0.00000130       0.00000145      -0.00000060      -0.00001289       0.00001138      -0.00000462
Cl       1.86504919       1.31878816       6.40621059      -0.00371522      -0.00263169      -0.00000010
Cl       5.53220678       3.91186088       6.40621153       0.00372235       0.00262579       0.00000725
Cl       4.61541737       1.31878792       4.81828480       0.00186608      -0.00263577      -0.00322227
Cl       2.78183889       3.91186040       7.99413656      -0.00185318       0.00262795       0.00322281
Cl       2.78183803       3.91185957       4.81828486      -0.00185808       0.00262325      -0.00321610
Cl       4.61541867       1.31878823       7.99413659       0.00186940      -0.00262949       0.00322576
