9
Lattice="5.8725873503004955 -4.379359668412701e-08 3.390539852234409 1.9575290847842797 5.536728193378905 3.390539836115173 -5.3223622410092695e-08 -5.737675819005929e-08 6.781079796654818" Properties=species:S:1:pos:R:3:forces:R:3 energy=-30.371213912963867 free_energy=-30.371213912963867 stress="-7.361553798546083e-06 9.929404853892265e-09 -4.6538257691963736e-09 9.929404853892265e-09 -7.376445410045562e-06 -1.4713351426109966e-08 -4.6538257691963736e-09 -1.4713351426109966e-08 -7.336594535445329e-06" pbc="T T T"
Fe       1.95752944       1.38418160       3.39053953       0.00000203      -0.00000234      -0.00000261
Fe       5.87258805       4.15254625      10.17161798       0.00000341       0.00000126      -0.00000821
Co      -0.00000007      -0.00000007      -0.00000026       0.00000000       0.00000070       0.00000154
Br       1.98125382       1.40095768       6.78107970       0.00065714       0.00046612       0.00000094
Br       5.84886254       4.13577020       6.78108037      -0.00066008      -0.00046502       0.00000361
Br       4.88196054       1.40095806       5.10635617      -0.00032971       0.00046519       0.00057091
Br       2.94815604       4.13577068       8.45580387       0.00033049      -0.00046658      -0.00056958
Br       2.94815522       4.13577033       5.10635646       0.00032649      -0.00046556       0.00057238
Br       4.88195993       1.40095767       8.45580418      -0.00032979       0.00046615      -0.00056870
