9
Lattice="5.95074280105979 4.5263712730820737e-08 3.435662922051397 1.9835809782375997 5.6104141015135935 3.435662918802165 -9.788962429473137e-09 -1.0901337995569488e-08 6.87132586105773" Properties=species:S:1:pos:R:3:forces:R:3 energy=-35.55310821533203 free_energy=-35.55310821533203 stress="-0.0001936982589541003 1.9253491245763144e-08 3.020445449308795e-09 1.9253491245763144e-08 -0.00019368545326869935 1.54317358891376e-08 3.020445449308795e-09 1.54317358891376e-08 -0.00019368156790733337" pbc="T T T"
Fe       1.98358089       1.40260369       3.43566301       0.00000028       0.00000085      -0.00000277
Fe       5.95074299       4.20781046      10.30698821       0.00000171       0.00000032      -0.00000402
Cr       0.00000028      -0.00000020      -0.00000065      -0.00000437       0.00000315       0.00001561
Br       1.99328664       1.40946648       6.87132590      -0.00340301      -0.00240564       0.00000041
Br       5.94103712       4.20094759       6.87132605       0.00340217       0.00240562       0.00000143
Br       4.95409922       1.40946670       5.16189996       0.00170361      -0.00240956      -0.00295007
Br       2.98022412       4.20094781       8.58075217      -0.00169807       0.00240180       0.00294238
Br       2.98022431       4.20094754       5.16189989      -0.00170304       0.00240619      -0.00294699
Br       4.95409954       1.40946650       8.58075224       0.00170071      -0.00240293       0.00294377
