9
Lattice="6.615991637295096 3.280998500789519e-08 3.819744543620257 2.2053305565311536 6.237616815289895 3.819744578551306 1.7936867712153883e-08 5.5464854199708525e-08 7.639489056172961" Properties=species:S:1:pos:R:3:forces:R:3 energy=-21.025653839111328 free_energy=-21.025653839111328 stress="-2.5332306904601865e-05 2.00744043610257e-09 4.757497729102056e-10 2.00744043610257e-09 -2.5361900043208152e-05 -2.108968555347701e-09 4.757497729102056e-10 -2.108968555347701e-09 -2.534796658437699e-05" pbc="T T T"
Fe       2.20533068       1.55940472       3.81974427       0.00000106       0.00000099      -0.00000014
Fe       6.61599164       4.67821208      11.45923320      -0.00000061      -0.00000125      -0.00000260
Cd       0.00000030       0.00000022       0.00000016      -0.00000186      -0.00000135      -0.00000018
I        2.36951000       1.67549674       7.63948932      -0.00045578      -0.00032158      -0.00000087
I        6.45181185       4.56211998       7.63948926       0.00045925       0.00032404       0.00000060
I        5.43123662       1.67549705       5.87180070       0.00022852      -0.00032327      -0.00039598
I        3.39008583       4.56211977       9.40717758      -0.00022852       0.00032288       0.00039743
I        3.39008548       4.56211990       5.87180070      -0.00023034       0.00032280      -0.00039613
I        5.43123646       1.67549717       9.40717753       0.00022826      -0.00032322       0.00039780
