9
Lattice="5.610826218993852 -9.007836234239397e-09 3.239412071428733 1.870275369324012 5.289937802361471 3.2394121208174798 -4.253381028505821e-08 3.0412642135102014e-08 6.478824216528199" Properties=species:S:1:pos:R:3:forces:R:3 energy=-38.502052307128906 free_energy=-38.502052307128906 stress="0.00037444205372594297 1.5227797689476574e-08 -3.8084868592136445e-09 1.5227797689476574e-08 0.0003744197019841522 -2.998214654326148e-08 -3.8084868592136445e-09 -2.998214654326148e-08 0.00037443690234795213" pbc="T T T"
Fe       1.87027776       1.32248268       3.23941151       0.00001446      -0.00000757      -0.00000424
Fe       5.61082660       3.96745417       9.71823168       0.00000166       0.00000299      -0.00002252
Cr      -0.00000015       0.00000009      -0.00000011      -0.00000159      -0.00000017       0.00000707
Cl       1.87778201       1.32779187       6.47882474       0.00055730       0.00039344       0.00000252
Cl       5.60331912       3.96214623       6.47882595      -0.00056095      -0.00038826       0.00000696
Cl       4.67193444       1.32779184       4.86561942      -0.00028256       0.00039203       0.00048360
Cl       2.80916651       3.96214566       8.09203027       0.00027920      -0.00039563      -0.00048308
Cl       2.80916531       3.96214583       4.86561975       0.00027534      -0.00039246       0.00048767
Cl       4.67193461       1.32779289       8.09203043      -0.00028284       0.00039569      -0.00047799
