9
Lattice="5.4985709857339655 5.860896844265107e-08 3.174601506089323 1.8328570507213993 5.18410228219051 3.1746015057087287 6.761455423541326e-08 4.734461136472612e-08 6.349202895066792" Properties=species:S:1:pos:R:3:forces:R:3 energy=-33.92962646484375 free_energy=-33.92962646484375 stress="-4.3686137360055e-05 -1.0010038131724741e-08 -3.304653617419717e-08 -1.0010038131724741e-08 -4.366712164483033e-05 -1.206374466988791e-08 -3.304653617419717e-08 -1.206374466988791e-08 -4.369903399492614e-05" pbc="T T T"
Fe       1.83285708       1.29602609       3.17460207       0.00000079       0.00000132       0.00000421
Fe       5.49857082       3.88807631       9.52380198      -0.00000120      -0.00000107      -0.00001620
Co       0.00000000       0.00000010       0.00000025       0.00000025       0.00000019      -0.00000633
Cl       1.83352426       1.29649750       6.34920266      -0.00015122      -0.00010513      -0.00000100
Cl       5.49790382       3.88760488       6.34920394       0.00015129       0.00010589       0.00000639
Cl       4.58180879       1.29649704       4.76248038       0.00007255      -0.00010668      -0.00012831
Cl       2.74961962       3.88760472       7.93592606      -0.00007416       0.00010674       0.00013494
Cl       2.74961885       3.88760488       4.76248033      -0.00007628       0.00010407      -0.00012849
Cl       4.58180914       1.29649801       7.93592598       0.00007810      -0.00010549       0.00013486
