9
Lattice="5.45932206037443 1.0303865524104265e-07 3.1519410569698403 1.8197741094030762 5.147098329016752 3.151941070596759 -5.894846641525888e-08 -2.499335241389425e-08 6.303882216041395" Properties=species:S:1:pos:R:3:forces:R:3 energy=-37.784202575683594 free_energy=-37.784202575683594 stress="-1.9098357370239682e-05 3.855121732954103e-08 -1.93570492967865e-08 3.855121732954103e-08 -1.9106726540485397e-05 2.8144159003318237e-08 -1.93570492967865e-08 2.8144159003318237e-08 -1.914225322252605e-05" pbc="T T T"
Fe       1.81977410       1.28677472       3.15194137       0.00000304       0.00000241       0.00000239
Fe       5.45932203       3.86032333       9.45582349      -0.00000154      -0.00000397       0.00000483
Ge      -0.00000011       0.00000009      -0.00000042       0.00000334      -0.00000080       0.00001546
S        1.88501873       1.33291001       6.30388092      -0.00307858      -0.00217289      -0.00000833
S        5.39407721       3.81418894       6.30388097       0.00307328       0.00217539      -0.00000685
S        4.51681304       1.33290956       4.78441560       0.00154275      -0.00217789      -0.00266278
S        2.76228359       3.81418882       7.82335007      -0.00153220       0.00216568       0.00266051
S        2.76228345       3.81418873       4.78441533      -0.00153947       0.00217783      -0.00266528
S        4.51681237       1.33290945       7.82335000       0.00152951      -0.00216556       0.00266004
