9
Lattice="6.510915829667795 -2.2236381610252908e-08 3.759078971701162 2.1703052985028197 6.138550153239693 3.7590788973761704 -1.1940650867739313e-08 -9.947244797336802e-08 7.5181579640841605" Properties=species:S:1:pos:R:3:forces:R:3 energy=-24.790740966796875 free_energy=-24.790740966796875 stress="5.980632340651937e-05 7.259721157559795e-10 -1.7144551056613722e-10 7.259721157559795e-10 5.980883361189626e-05 5.019589188748341e-09 -1.7144551056613722e-10 5.019589188748341e-09 5.981199865345843e-05" pbc="T T T"
Fe       2.17030551       1.53463715       3.75907883       0.00000077      -0.00000153       0.00000069
Fe       6.51091588       4.60391316      11.27723680      -0.00000029       0.00000258      -0.00000020
Ge       0.00000009      -0.00000005      -0.00000006       0.00000003      -0.00000043      -0.00000096
I        2.25848855       1.59699234       7.51815790       0.00331147       0.00234138       0.00000038
I        6.42273249       4.54155765       7.51815806      -0.00331137      -0.00234182      -0.00000031
I        5.38167166       1.59699220       5.71498731      -0.00165648       0.00234239       0.00286783
I        3.29954929       4.54155770       9.32132860       0.00165513      -0.00234141      -0.00286794
I        3.29954947       4.54155766       5.71498733       0.00165632      -0.00234237       0.00286791
I        5.38167147       1.59699237       9.32132856      -0.00165563       0.00234120      -0.00286746
