9
Lattice="6.017884312164335 2.005822564660366e-08 3.474427077836791 2.0059614554853287 5.673715710422497 3.4744270792464125 -9.27713445729162e-09 -4.833471797461589e-09 6.948854171742066" Properties=species:S:1:pos:R:3:forces:R:3 energy=-29.349197387695312 free_energy=-29.349197387695312 stress="-6.235515320440754e-05 -2.2389741172190725e-09 9.9756522486949e-11 -2.2389741172190725e-09 -6.240767106646672e-05 -1.7569947274864717e-08 9.9756522486949e-11 -1.7569947274864717e-08 -6.239633512450382e-05" pbc="T T T"
Fe       2.00596174       1.41842874       3.47442707      -0.00000071       0.00000039       0.00000058
Fe       6.01788399       4.25528715      10.42328103      -0.00000020       0.00000046      -0.00000085
Ge       0.00000005       0.00000019       0.00000017      -0.00000178      -0.00000031       0.00000164
Br       2.04595914       1.44671146       6.94885410      -0.00140650      -0.00099353       0.00000032
Br       5.97788642       4.22700401       6.94885423       0.00140817       0.00099554      -0.00000024
Br       4.99490470       1.44671158       5.24627971       0.00070361      -0.00099471      -0.00121882
Br       3.02894119       4.22700401       8.65142877      -0.00070245       0.00099263       0.00121658
Br       3.02894109       4.22700419       5.24627953      -0.00070338       0.00099486      -0.00121761
Br       4.99490471       1.44671159       8.65142870       0.00070324      -0.00099531       0.00121860
