9
Lattice="3.9664249801302756 9.496969742247375e-08 2.2900165681682094 1.3221417119873107 3.739581688530863 2.290016633283648 -9.023037966687866e-09 7.336954079636045e-08 4.5800331519647814" Properties=species:S:1:pos:R:3:forces:R:3 energy=-49.259098052978516 free_energy=-49.259098052978516 stress="-2.38675329455873e-05 1.8568537996088708e-07 8.143403107396807e-08 1.8568537996088708e-07 -2.3246269847732037e-05 8.141457641386296e-08 8.143403107396807e-08 8.141457641386296e-08 -2.351275361434091e-05" pbc="T T T"
Fe       1.32214188       0.93489538       2.29001651      -0.00000841      -0.00000193       0.00000512
Fe       3.96642496       2.80468664       6.87004985       0.00000113      -0.00000415      -0.00000092
Ge      -0.00000009      -0.00000006       0.00000016       0.00000345       0.00000886      -0.00001920
O        1.42612646       1.00842393       4.58003311       0.00109041       0.00077474      -0.00000436
O        3.86244021       2.73115812       4.58003324      -0.00109947      -0.00078499      -0.00000564
O        3.25336176       1.00842384       3.52507834      -0.00054717       0.00078452       0.00095856
O        2.03520502       2.73115785       5.63498790       0.00054204      -0.00076842      -0.00094748
O        2.03520499       2.73115779       3.52507836       0.00055420      -0.00078046       0.00095844
O        3.25336164       1.00842399       5.63498805      -0.00053608       0.00077128      -0.00094426
