9
Lattice="6.508548305255667 5.318458712252006e-09 3.7577122377704955 2.169516072268161 6.1363182849803595 3.757712297522699 -6.089586671956947e-08 3.0121377972546044e-08 7.515424581015718" Properties=species:S:1:pos:R:3:forces:R:3 energy=-24.790725708007812 free_energy=-24.790725708007812 stress="-0.00013555960322264582 -1.3148079291980252e-09 1.9676109630495375e-09 -1.3148079291980252e-09 -0.00013556498743128031 -6.593821488820595e-09 1.9676109630495375e-09 -6.593821488820595e-09 -0.00013555577606894076" pbc="T T T"
Fe       2.16951680       1.53407971       3.75771216       0.00000197      -0.00000080       0.00000005
Fe       6.50854794       4.60223851      11.27313716      -0.00000085       0.00000047       0.00000081
Ge       0.00000019       0.00000001      -0.00000018      -0.00000163       0.00000047      -0.00000116
I        2.25939126       1.59763094       7.51542449      -0.00287818      -0.00203587       0.00000050
I        6.41867303       4.53868725       7.51542448       0.00287823       0.00203613      -0.00000082
I        5.37885234       1.59763101       5.71440260       0.00143914      -0.00203580      -0.00249410
I        3.29921177       4.53868734       9.31644661      -0.00143903       0.00203606       0.00249377
I        3.29921177       4.53868730       5.71440253      -0.00143865       0.00203546      -0.00249365
I        5.37885218       1.59763121       9.31644661       0.00143904      -0.00203609       0.00249458
