9
Lattice="5.644940331356469 3.851613750735615e-08 3.259107649471917 1.881646783024682 5.322100711909443 3.259107702139295 -8.759577164067123e-08 2.564524594029626e-09 6.5182154506642185" Properties=species:S:1:pos:R:3:forces:R:3 energy=-36.85272216796875 free_energy=-36.85272216796875 stress="5.8623802033253014e-05 -9.948876389387351e-09 1.0360472479931104e-08 -9.948876389387351e-09 5.863048500032164e-05 7.3343011663951074e-09 1.0360472479931104e-08 7.3343011663951074e-09 5.8646841353038326e-05" pbc="T T T"
Fe       1.88164629       1.33052494       3.25910804      -0.00000309      -0.00000141       0.00000177
Fe       5.64493944       3.99157563       9.77732370      -0.00000451       0.00000065       0.00000325
Ge      -0.00000027       0.00000046       0.00000060       0.00000261      -0.00000183      -0.00000279
Se       2.20119943       1.55648295       6.51821523       0.00016394       0.00011456      -0.00000058
Se       5.32538757       3.76561777       6.51821572      -0.00016266      -0.00011304       0.00000183
Se       4.54434138       1.55648362       5.16540198      -0.00007910       0.00011778       0.00014168
Se       2.98224659       3.76561734       7.87102809       0.00008117      -0.00011399      -0.00014037
Se       2.98224706       3.76561761       5.16540201       0.00008352      -0.00011620       0.00013882
Se       4.54434060       1.55648272       7.87102780      -0.00008178       0.00011355      -0.00014362
