9
Lattice="5.688613668579208 6.413567771226676e-08 3.2843225576764277 1.8962045684176587 5.3632761965839295 3.2843226412359554 1.0972070362977519e-07 1.7992335189600068e-07 6.568644925311041" Properties=species:S:1:pos:R:3:forces:R:3 energy=-32.56069564819336 free_energy=-32.56069564819336 stress="0.0003065735218115151 3.650134772215097e-08 -6.719331224758207e-08 3.650134772215097e-08 0.0003066123463213444 2.060504122880502e-08 -6.719331224758207e-08 2.060504122880502e-08 0.0003066306817345321" pbc="T T T"
Fe       1.89620511       1.34081865       3.28432367       0.00000195      -0.00000761       0.00000507
Fe       5.68861360       4.02245561       9.85296905       0.00000023      -0.00000922       0.00000488
Ge       0.00000005       0.00000004       0.00000020      -0.00000176       0.00000326      -0.00000224
Cl       1.90669311       1.34823535       6.56864435       0.00102283       0.00072474      -0.00000181
Cl       5.67812500       4.01504205       6.56864462      -0.00102433      -0.00071874      -0.00000156
Cl       4.73526770       1.34823665       4.93556631      -0.00050968       0.00072817       0.00088242
Cl       2.84955054       4.01504073       8.20172280       0.00050965      -0.00072198      -0.00088571
Cl       2.84955064       4.01504088       4.93556663       0.00051216      -0.00072536       0.00088660
Cl       4.73526759       1.34823592       8.20172285      -0.00051093       0.00072676      -0.00088754
