9
Lattice="5.687170170198883 -1.9818357085796338e-08 3.2834892295038904 1.8957233655498769 5.361915401880686 3.2834892396043394 1.4097494162421884e-08 2.2338917175055666e-08 6.566978434590203" Properties=species:S:1:pos:R:3:forces:R:3 energy=-32.56071090698242 free_energy=-32.56071090698242 stress="2.007727925956715e-05 -6.844807387551555e-09 -1.1002535771353905e-08 -6.844807387551555e-09 2.0099285393371247e-05 -2.2282138800733264e-08 -1.1002535771353905e-08 -2.2282138800733264e-08 2.0060675524291582e-05" pbc="T T T"
Fe       1.89572304       1.34047970       3.28348872      -0.00000188       0.00000467       0.00000115
Fe       5.68717005       4.02143704       9.85046740       0.00000089       0.00000053      -0.00000088
Ge       0.00000012       0.00000016      -0.00000033      -0.00000133      -0.00000148       0.00000370
Cl       1.90690196       1.34838302       6.56697866      -0.00370003      -0.00261795       0.00000086
Cl       5.67599163       4.01353194       6.56697873       0.00370301       0.00261598      -0.00000006
Cl       4.73371921       1.34838291       4.93491490       0.00185301      -0.00261893      -0.00320508
Cl       2.84917437       4.01353194       8.19904245      -0.00185123       0.00261486       0.00320555
Cl       2.84917451       4.01353186       4.93491476      -0.00185176       0.00261843      -0.00320941
Cl       4.73371926       1.34838308       8.19904236       0.00184930      -0.00261613       0.00320425
