9
Lattice="6.019359430033997 8.742378725389305e-08 3.4752787323565992 2.006453201207371 5.675106352479976 3.4752787748979075 -9.662887180729594e-09 4.526957034370576e-08 6.950557481449805" Properties=species:S:1:pos:R:3:forces:R:3 energy=-29.349184036254883 free_energy=-29.349184036254883 stress="0.0001357387227471918 1.4421771332706612e-08 5.002150249566739e-09 1.4421771332706612e-08 0.0001357467845082283 -1.0214033174804626e-08 5.002150249566739e-09 -1.0214033174804626e-08 0.0001357450382784009" pbc="T T T"
Fe       2.00645388       1.41877665       3.47527895       0.00000265      -0.00000000       0.00000009
Fe       6.01935932       4.25633027      10.42583542      -0.00000103       0.00000098      -0.00000223
Ge      -0.00000014      -0.00000006      -0.00000024      -0.00000134      -0.00000172       0.00000063
Br       2.04531505       1.44625629       6.95055751       0.00272463       0.00192650      -0.00000013
Br       5.98049740       4.22885005       6.95055809      -0.00272236      -0.00192504       0.00000140
Br       4.99670169       1.44625619       5.24657349      -0.00136295       0.00192603       0.00236010
Br       3.02911055       4.22885032       8.65454155       0.00136177      -0.00192686      -0.00235953
Br       3.02911094       4.22885041       5.24657367       0.00136256      -0.00192666       0.00235996
Br       4.99670178       1.44625589       8.65454162      -0.00136397       0.00192675      -0.00236022
