9
Lattice="6.198947658387262 -3.693376832531855e-08 3.5789641222791646 2.066315855316984 5.844424015892182 3.5789641153346885 -2.238071791517129e-08 -2.4330775476244568e-08 7.1579282833228515" Properties=species:S:1:pos:R:3:forces:R:3 energy=-32.606605529785156 free_energy=-32.606605529785156 stress="0.00021269185526762158 -4.5381840507729976e-09 -6.4844480895942525e-09 -4.5381840507729976e-09 0.00021267209376674145 6.291436260852379e-09 -6.4844480895942525e-09 6.291436260852379e-09 0.00021267343254294246" pbc="T T T"
Fe       2.06631639       1.46110605       3.57896316       0.00000152       0.00000067      -0.00000310
Fe       6.19894748       4.38331792      10.73689098      -0.00000022      -0.00000067      -0.00000645
Ge      -0.00000011      -0.00000006      -0.00000014      -0.00000034      -0.00000035       0.00000028
Te       2.30862751       1.63244655       7.15792918      -0.00215214      -0.00152072       0.00000244
Te       5.95663601       4.21197776       7.15792941       0.00215206       0.00152259       0.00000491
Te       5.04463326       1.63244585       5.57829462       0.00107455      -0.00152350      -0.00186306
Te       3.22062949       4.21197739       8.73756230      -0.00107650       0.00152074       0.00186459
Te       3.22063006       4.21197799       5.57829433      -0.00107466       0.00152269      -0.00186433
Te       5.04463386       1.63244641       8.73756226       0.00107575      -0.00152145       0.00186489
