9
Lattice="6.005049156083733 -3.783843620595653e-08 3.467016657311252 2.001683044920875 5.661614518202336 3.4670166078310904 2.8371270149581485e-08 -4.0539048667080935e-08 6.934033265482002" Properties=species:S:1:pos:R:3:forces:R:3 energy=-23.087724685668945 free_energy=-23.087724685668945 stress="-7.748338975943625e-05 -3.157024419664367e-09 -2.5469506503839057e-09 -3.157024419664367e-09 -7.748394273221493e-05 -1.1005846012324128e-08 -2.5469506503839057e-09 -1.1005846012324128e-08 -7.747645577182993e-05" pbc="T T T"
Fe       2.00168265       1.41540338       3.46701643      -0.00000079       0.00000014      -0.00000065
Fe       6.00504940       4.24621080      10.40105033       0.00000021      -0.00000039       0.00000204
Hg      -0.00000007       0.00000021      -0.00000010       0.00000133      -0.00000142      -0.00000109
Br       2.18481527       1.54489760       6.93403327      -0.00057131      -0.00040418       0.00000033
Br       5.82191696       4.11671682       6.93403317       0.00057170       0.00040340      -0.00000041
Br       4.91264145       1.54489789       5.35912200       0.00028607      -0.00040446      -0.00049436
Br       3.09409074       4.11671684       8.50894421      -0.00028606       0.00040480       0.00049597
Br       3.09409083       4.11671659       5.35912227      -0.00028691       0.00040585      -0.00049594
Br       4.91264165       1.54489765       8.50894454       0.00028571      -0.00040360       0.00049406
