9
Lattice="5.66646725473245 1.1196269979047664e-08 3.271536371580693 1.8888224228715254 5.342396611952018 3.271536381849258 -3.8793586585621576e-08 -1.4854865798991217e-08 6.543072810353902" Properties=species:S:1:pos:R:3:forces:R:3 energy=-25.129474639892578 free_energy=-25.129474639892578 stress="-0.0001530611189082265 -8.302700887918846e-11 -3.0162709663272835e-08 -8.302700887918846e-11 -0.00015308658475987613 -1.9034013476471046e-08 -3.0162709663272835e-08 -1.9034013476471046e-08 -0.00015307562716770917" pbc="T T T"
Fe       1.88882250       1.33559916       3.27153631       0.00000182       0.00000017      -0.00000005
Fe       5.66646707       4.00679695       9.81461038      -0.00000172      -0.00000337       0.00000728
Hg       0.00000007      -0.00000010      -0.00000029      -0.00000058       0.00000233       0.00000165
Cl       2.02058719       1.42877081       6.54307280      -0.00176769      -0.00124934      -0.00000025
Cl       5.53470262       3.91362589       6.54307220       0.00176615       0.00124939      -0.00000301
Cl       4.65617367       1.42877119       5.02141580       0.00088502      -0.00124981      -0.00153250
Cl       2.89911565       3.91362591       8.06472961      -0.00088373       0.00124860       0.00152838
Cl       2.89911623       3.91362592       5.02141589      -0.00088249       0.00125082      -0.00153092
Cl       4.65617358       1.42877076       8.06472951       0.00088337      -0.00124891       0.00152987
