9
Lattice="4.864302012608551 8.050675258015156e-08 2.808406119691727 1.6214340243528753 4.586108222427176 2.808406216257855 -1.6988939663291448e-07 -1.8610822893694677e-09 5.616812533640532" Properties=species:S:1:pos:R:3:forces:R:3 energy=-33.49272155761719 free_energy=-33.49272155761719 stress="4.495057510212064e-05 -7.769276777480627e-08 4.7309111295135153e-08 -7.769276777480627e-08 4.504481330513954e-05 3.9199143486712273e-08 4.7309111295135153e-08 3.9199143486712273e-08 4.490856736083515e-05" pbc="T T T"
Fe       1.62143320       1.14652574       2.80840672      -0.00000444      -0.00001019       0.00000542
Fe       4.86430260       3.43958150       8.42521786       0.00000632       0.00000197      -0.00000909
Hg       0.00000017       0.00000011       0.00000017       0.00000036      -0.00000105      -0.00000498
F        1.72703540       1.22119844       5.61681242       0.00130206       0.00091994      -0.00000200
F        4.75870038       3.36491040       5.61681301      -0.00130448      -0.00091764       0.00000354
F        4.00078426       1.22119829       4.30406276      -0.00065176       0.00092179       0.00112981
F        2.48495179       3.36491022       6.92956177       0.00065009      -0.00091469      -0.00112763
F        2.48495089       3.36491013       4.30406312       0.00064805      -0.00091940       0.00113261
F        4.00078479       1.22119851       6.92956162      -0.00064622       0.00091934      -0.00112775
