9
Lattice="6.6145231529707 -7.23209399313076e-08 3.818896662631455 2.204841074895741 6.236232108875005 3.8188965031262363 7.587286368460224e-08 -1.4170293847474264e-07 7.637793193847277" Properties=species:S:1:pos:R:3:forces:R:3 energy=-19.561613082885742 free_energy=-19.561613082885742 stress="-0.0001308500941377133 2.044139968404579e-09 5.2312025822232044e-09 2.044139968404579e-09 -0.00013086381659377366 -5.3161537394430525e-09 5.2312025822232044e-09 -5.3161537394430525e-09 -0.00013086046965327114" pbc="T T T"
Fe       2.20484094       1.55905821       3.81889650      -0.00000026       0.00000180      -0.00000003
Fe       6.61452303       4.67717410      11.45668999      -0.00000131       0.00000035       0.00000020
Hg      -0.00000006       0.00000003      -0.00000002      -0.00000058      -0.00000080       0.00000126
I        2.39491270       1.69345862       7.63779319      -0.00621653      -0.00439723       0.00000009
I        6.42445172       4.54277315       7.63779326       0.00621772       0.00439599       0.00000004
I        5.41706718       1.69345893       5.89295145       0.00310965      -0.00439620      -0.00538404
I        3.40229708       4.54277284       9.38263477      -0.00310835       0.00439529       0.00538464
I        3.40229753       4.54277294       5.89295154      -0.00310881       0.00439636      -0.00538534
I        5.41706713       1.69345877       9.38263465       0.00310852      -0.00439566       0.00538316
