9
Lattice="5.710757890987203 -1.4685201954789643e-08 3.2971076883878827 1.9035859330410885 5.384154441198693 3.2971077174447205 3.7041924422125074e-08 6.17798157610141e-08 6.594215312617251" Properties=species:S:1:pos:R:3:forces:R:3 energy=-30.701522827148438 free_energy=-30.701522827148438 stress="-3.088732773903757e-05 3.910977142140837e-08 -1.2658023518241635e-09 3.910977142140837e-08 -3.0807805160293356e-05 -1.1688041645641079e-08 -1.2658023518241635e-09 -1.1688041645641079e-08 -3.0765964766032994e-05" pbc="T T T"
Fe       1.90358690       1.34603818       3.29710773       0.00000114      -0.00000272       0.00000119
Fe       5.71075748       4.03811618       9.89132340       0.00000183       0.00000135       0.00000086
In      -0.00000024      -0.00000005       0.00000003       0.00000253       0.00000070      -0.00000251
Cl       1.99907029       1.41355639       6.59421546      -0.00023869      -0.00017129      -0.00000110
Cl       5.61527367       3.97059853       6.59421519       0.00023526       0.00016901       0.00000016
Cl       4.71122258       1.41355617       5.02835334       0.00011598      -0.00016612      -0.00020583
Cl       2.90312104       3.97059808       8.16007727      -0.00011896       0.00016998       0.00020774
Cl       2.90312131       3.97059823       5.02835329      -0.00011791       0.00016801      -0.00020748
Cl       4.71122243       1.41355622       8.16007718       0.00011891      -0.00016898       0.00020711
