9
Lattice="6.045967981646287 -4.338187960994697e-08 3.4906412802988274 2.0153226451123425 5.700193274890627 3.4906412361931456 4.311907746797252e-08 -2.3528402363324198e-08 6.98128248591322" Properties=species:S:1:pos:R:3:forces:R:3 energy=-27.850370407104492 free_energy=-27.850370407104492 stress="-2.1770365492557175e-05 6.008085584596756e-09 3.5287182065246725e-09 6.008085584596756e-09 -2.1761781681561843e-05 -5.387324808481253e-09 3.5287182065246725e-09 -5.387324808481253e-09 -2.1770811144961044e-05" pbc="T T T"
Fe       2.01532246       1.42504782       3.49064112      -0.00000077      -0.00000032      -0.00000010
Fe       6.04596826       4.27514524      10.47192338       0.00000003       0.00000053       0.00000005
In       0.00000019       0.00000003      -0.00000015      -0.00000487       0.00000240       0.00000147
Br       2.14109530       1.51398269       6.98128252      -0.00016184      -0.00011364       0.00000016
Br       5.92019544       4.18621034       6.98128254       0.00016229       0.00011645      -0.00000018
Br       4.97542027       1.51398286       5.34488433       0.00008223      -0.00011586      -0.00014268
Br       3.08587006       4.18621060       8.61768127      -0.00007886       0.00011221       0.00013641
Br       3.08587038       4.18621034       5.34488414      -0.00008047       0.00011452      -0.00013882
Br       4.97542035       1.51398293       8.61768089       0.00008234      -0.00011629       0.00014348
