9
Lattice="6.6516274417949255 6.840736252005204e-08 3.8403188179704713 2.217209214316287 6.271214376625704 3.8403188135428916 -4.765124501868475e-09 -8.792076855939472e-09 7.680637644194414" Properties=species:S:1:pos:R:3:forces:R:3 energy=-23.471879959106445 free_energy=-23.471879959106445 stress="-5.070775296189822e-05 3.9701696791238916e-11 2.182073188805589e-09 3.9701696791238916e-11 -5.0694241508608684e-05 -2.3114761216191937e-09 2.182073188805589e-09 -2.3114761216191937e-09 -5.070989936939441e-05" pbc="T T T"
Fe       2.21720916       1.56780392       3.84031837      -0.00000081       0.00000063      -0.00000007
Fe       6.65162769       4.70341011      11.52095653       0.00000036      -0.00000137      -0.00000003
In       0.00000024      -0.00000002      -0.00000006      -0.00000058       0.00000022      -0.00000133
I        2.33860033       1.65364080       7.68063788      -0.00301947      -0.00213362       0.00000070
I        6.53023605       4.61757376       7.68063788       0.00301935       0.00213360      -0.00000046
I        5.48232710       1.65364020       5.86560614       0.00150961      -0.00213421      -0.00261405
I        3.38650964       4.61757405       9.49566896      -0.00150935       0.00213504       0.00261405
I        3.38650937       4.61757439       5.86560629      -0.00150900       0.00213549      -0.00261396
I        5.48232705       1.65364057       9.49566908       0.00150988      -0.00213572       0.00261518
