9
Lattice="4.616635060635937 1.8404226983517818e-06 2.6654146291985428 1.5388799444290926 4.352606270413725 2.665414879105539 8.768679792748748e-07 9.261114276479941e-07 5.3308277396166375" Properties=species:S:1:pos:R:3:forces:R:3 energy=-58.25321960449219 free_energy=-58.25321960449219 stress="-3.9133865357143804e-06 -3.2957157714008645e-07 2.771916172150668e-07 -3.2957157714008645e-07 -4.438417818164453e-06 3.948252356167359e-07 2.771916172150668e-07 3.948252356167359e-07 -4.302615707274526e-06" pbc="T T T"
Fe       1.53887857       1.08815415       2.66541511       0.00001674      -0.00002960      -0.00001112
Fe       4.61663808       3.26445435       7.99624221      -0.00000759       0.00002103       0.00002338
Mn      -0.00000669       0.00000104      -0.00000290       0.00066296      -0.00015136       0.00030520
O        1.52137234       1.07577399       5.33082139      -0.00011086      -0.00016451       0.00003232
O        4.63414806       3.27683983       5.33083927      -0.00039172      -0.00035405       0.00001773
O        3.85595274       1.07577589       3.98295616      -0.00002527       0.00013041       0.00025725
O        2.29956118       3.27683310       6.67869668       0.00011051      -0.00002658       0.00002849
O        2.29957051       3.27683572       3.98296253      -0.00007021       0.00019145      -0.00020885
O        3.85594834       1.07576501       6.67869928      -0.00018501       0.00038397      -0.00044370
