9
Lattice="5.579773067371145 3.5099335779816614e-08 3.2214835687229275 1.859924453229263 5.26066025028399 3.22148345727081 1.6828156488759495e-07 -1.7507385069150105e-08 6.442966845973667" Properties=species:S:1:pos:R:3:forces:R:3 energy=-37.54805374145508 free_energy=-37.54805374145508 stress="0.00016902941570151597 9.706266901332583e-09 -2.479032268354331e-08 9.706266901332583e-09 0.0001690228091320023 -1.0208240475151342e-08 -2.479032268354331e-08 -1.0208240475151342e-08 0.00016911907005123794" pbc="T T T"
Fe       1.85992402       1.31516584       3.22148271      -0.00000225       0.00000618      -0.00000226
Fe       5.57977673       3.94549542       9.66444990       0.00002067       0.00000308      -0.00000403
Mn      -0.00000023       0.00000004      -0.00000013       0.00000089      -0.00000067      -0.00000094
Cl       1.87138348       1.32326822       6.44296716       0.00123769       0.00087689       0.00000231
Cl       5.56831378       3.93739218       6.44296694      -0.00124206      -0.00087875       0.00000098
Cl       4.64408133       1.32326776       4.84214993      -0.00062034       0.00087400       0.00107517
Cl       2.79561530       3.93739177       8.04378439       0.00061454      -0.00087977      -0.00107274
Cl       2.79561502       3.93739184       4.84215009       0.00061183      -0.00087630       0.00107469
Cl       4.64408140       1.32326791       8.04378452      -0.00062087       0.00087551      -0.00107325
