9
Lattice="5.986827442470604 -6.258450160216563e-08 3.4564965650178396 1.9956090914300764 5.644435183615248 3.4564965599167765 3.503587154439438e-08 1.8526613785091575e-08 6.912993069351753" Properties=species:S:1:pos:R:3:forces:R:3 energy=-27.424636840820312 free_energy=-27.424636840820312 stress="-0.00013421618496067822 1.319214604222907e-08 -9.061678518662575e-09 1.319214604222907e-08 -0.00013410573592409492 -1.3107576357640482e-08 -9.061678518662575e-09 -1.3107576357640482e-08 -0.0001341917522950098" pbc="T T T"
Fe       1.99560919       1.41110913       3.45649609       0.00000027       0.00000116      -0.00000203
Fe       5.98682736       4.23332604      10.36948971      -0.00000141      -0.00000040       0.00000083
Mg      -0.00000012      -0.00000002      -0.00000022       0.00000250      -0.00000195       0.00000227
Br       2.09691565       1.48274342       6.91299300      -0.00296807      -0.00209711       0.00000301
Br       5.88552110       4.16169184       6.91299300       0.00296722       0.00209780       0.00000296
Br       4.93836963       1.48274327       5.27247881       0.00148453      -0.00209863      -0.00256926
Br       3.04406676       4.16169214       8.55350783      -0.00148087       0.00209263       0.00256750
Br       3.04406716       4.16169182       5.27247882      -0.00148467       0.00209966      -0.00257146
Br       4.93836958       1.48274292       8.55350771       0.00148044      -0.00209324       0.00256607
