9
Lattice="5.939703065230716 8.608681516243921e-08 3.429289266799483 1.9799010909382195 5.600006214955436 3.429289287530033 4.266973355881476e-09 2.8406828692962937e-08 6.858578526208361" Properties=species:S:1:pos:R:3:forces:R:3 energy=-38.15122985839844 free_energy=-38.15122985839844 stress="0.00022050586994737387 -2.650151920136068e-08 -2.8003801944009865e-08 -2.650151920136068e-08 0.00022048795653972775 -6.418541431685298e-08 -2.8003801944009865e-08 -6.418541431685298e-08 0.00022051180712878704" pbc="T T T"
Fe       1.97990151       1.40000163       3.42928875       0.00000306      -0.00000101      -0.00000239
Fe       5.93970333       4.20000422      10.28786818       0.00000258      -0.00000351       0.00000197
Mn       0.00000004       0.00000004       0.00000012      -0.00000119       0.00000042      -0.00000387
Te       2.05693990       1.45447577       6.85857852      -0.00681767      -0.00481792      -0.00000178
Te       5.86266414       4.14553016       6.85857814       0.00681570       0.00482036      -0.00000024
Te       4.91123345       1.45447659       5.21065097       0.00340943      -0.00481789      -0.00590426
Te       3.00837095       4.14553003       8.50650565      -0.00341082       0.00481766       0.00590354
Te       3.00837048       4.14553002       5.21065177      -0.00341266       0.00482315      -0.00590137
Te       4.91123282       1.45447686       8.50650617       0.00341156      -0.00482118       0.00590843
