9
Lattice="5.984530882180398 9.814147866043199e-08 3.4551706626169665 1.9948436406876224 5.642270096817522 3.4551707998551984 -1.684503738323309e-08 1.561705582872323e-07 6.91034135441043" Properties=species:S:1:pos:R:3:forces:R:3 energy=-34.2786750793457 free_energy=-34.2786750793457 stress="0.0001034130182233639 2.910179430770654e-09 -1.699134521970791e-08 2.910179430770654e-09 0.00010338393622078001 2.0706803383063743e-08 -1.699134521970791e-08 2.0706803383063743e-08 0.00010337550338590518" pbc="T T T"
Fe       1.99484397       1.41056685       3.45517097       0.00000209      -0.00000238       0.00000127
Fe       5.98453133       4.23170404      10.36551448       0.00000154       0.00000388       0.00000994
Mn       0.00000005       0.00000002      -0.00000033      -0.00000172      -0.00000223       0.00000130
Br       1.94328010       1.37410621       6.91034123       0.00110268       0.00077607      -0.00000039
Br       6.03609387       4.26816403       6.91034073      -0.00109911      -0.00077461      -0.00000310
Br       5.01289084       1.37410693       5.13810032      -0.00054931       0.00077742       0.00094912
Br       2.96648335       4.26816332       8.68258145       0.00054581      -0.00077796      -0.00095214
Br       2.96648340       4.26816345       5.13810071       0.00054783      -0.00077639       0.00095091
Br       5.01289121       1.37410652       8.68258175      -0.00054986       0.00077614      -0.00095677
