9
Lattice="5.345901703316045 7.406580838986441e-08 3.086457841621076 1.781967299546873 5.040164664395826 3.0864578497993147 4.04704979348143e-08 3.863324394405588e-08 6.172915613145187" Properties=species:S:1:pos:R:3:forces:R:3 energy=-41.82463836669922 free_energy=-41.82463836669922 stress="-0.0004610859032254666 1.5156082611156307e-08 -7.297795256988593e-09 1.5156082611156307e-08 -0.0004610778414644301 1.4529592640144529e-08 -7.297795256988593e-09 1.4529592640144529e-08 -0.00046107100206427276" pbc="T T T"
Fe       1.78196719       1.26004088       3.08645805      -0.00000019      -0.00000215       0.00000161
Fe       5.34590220       3.78012337       9.25937403       0.00000040      -0.00000085       0.00000199
Mn      -0.00000003       0.00000011       0.00000011       0.00000171      -0.00000021       0.00000009
Se       1.96476216       1.38929675       6.17291502       0.00133392       0.00094241      -0.00000134
Se       5.16310646       3.65086774       6.17291509      -0.00133142      -0.00094074      -0.00000203
Se       4.36352058       1.38929711       4.78799201      -0.00066593       0.00094059       0.00115317
Se       2.76434851       3.65086793       7.55783917       0.00066659      -0.00094306      -0.00115395
Se       2.76434855       3.65086808       4.78799234       0.00066356      -0.00094035       0.00115463
Se       4.36352059       1.38929717       7.55783943      -0.00066890       0.00094417      -0.00115412
