9
Lattice="5.57888132656839 1.3120678467860153e-07 3.220968653661006 1.8596272268787915 5.259819417501706 3.2209686634995083 1.3208769105793361e-07 1.0544973409373385e-07 6.441937078539427" Properties=species:S:1:pos:R:3:forces:R:3 energy=-37.54806137084961 free_energy=-37.54806137084961 stress="-3.312204853500589e-06 2.795725251303338e-08 -2.4951864574518368e-08 2.795725251303338e-08 -3.267024794695317e-06 -2.87917210073374e-08 -2.4951864574518368e-08 -2.87917210073374e-08 -3.3195562991750194e-06" pbc="T T T"
Fe       1.85962685       1.31495517       3.22096969      -0.00000191       0.00000129       0.00000539
Fe       5.57888250       3.94486320       9.66290324       0.00000707      -0.00000976      -0.00001603
Mn      -0.00000001       0.00000001       0.00000092      -0.00000035      -0.00000023      -0.00001191
Cl       1.87136597       1.32325637       6.44193686      -0.00042544      -0.00029670      -0.00000187
Cl       5.56714204       3.93656398       6.44193802       0.00042453       0.00030051       0.00000397
Cl       4.64319832       1.32325533       4.84161920       0.00020706      -0.00029403      -0.00036005
Cl       2.79531059       3.93656406       8.04225523      -0.00021276       0.00030329       0.00036935
Cl       2.79530964       3.93656415       4.84161912      -0.00021455       0.00029366      -0.00035881
Cl       4.64319885       1.32325637       8.04225528       0.00021634      -0.00029813       0.00037011
