9
Lattice="6.389989348957893 9.254809319304315e-08 3.689262213736855 2.1299965114928967 6.024539900840167 3.689262257756747 5.033515860688141e-08 8.950547904988472e-08 7.378524340290645" Properties=species:S:1:pos:R:3:forces:R:3 energy=-30.130481719970703 free_energy=-30.130481719970703 stress="-8.160981087712571e-05 1.629347767817535e-09 -1.1612554473572345e-08 1.629347767817535e-09 -8.160116703948006e-05 3.989677477278519e-09 -1.1612554473572345e-08 3.989677477278519e-09 -8.15867751953192e-05" pbc="T T T"
Fe       2.12999587       1.50613510       3.68926165      -0.00000236      -0.00000085      -0.00000181
Fe       6.38998838       4.51840428      11.06778622      -0.00000397      -0.00000088      -0.00000082
Mn       0.00000019      -0.00000008      -0.00000010       0.00000008      -0.00000033       0.00000484
I        2.11252897       1.49378316       7.37852459      -0.00119165      -0.00084390       0.00000205
I        6.40745738       4.53075686       7.37852438       0.00119340       0.00084367       0.00000013
I        5.33372506       1.49378380       5.51876605       0.00059881      -0.00084399      -0.00103459
I        3.18626095       4.53075708       9.23828341      -0.00059400       0.00084106       0.00103234
I        3.18626117       4.53075670       5.51876603      -0.00059643       0.00084518      -0.00103442
I        5.33372571       1.49378348       9.23828311       0.00059613      -0.00084000       0.00103205
