9
Lattice="4.506800915065276 4.611755396544075e-09 2.602002764000132 1.5022669619114115 4.249052624950841 2.6020027884653993 -2.751056972412321e-08 1.051082018075063e-08 5.204005575649987" Properties=species:S:1:pos:R:3:forces:R:3 energy=-43.17438888549805 free_energy=-43.17438888549805 stress="5.888291525479872e-06 -2.1377598358185423e-08 -1.2008410266162173e-08 -2.1377598358185423e-08 5.930308816459728e-06 5.260997681943991e-08 -1.2008410266162173e-08 5.260997681943991e-08 5.915309429838089e-06" pbc="T T T"
Fe       1.50226559       1.06226252       2.60200373      -0.00001177      -0.00000421       0.00001483
Fe       4.50680011       3.18678900       7.80600888      -0.00001057      -0.00000578       0.00000478
Mg      -0.00000007       0.00000033      -0.00000008       0.00000489      -0.00000333       0.00000021
F        1.52486614       1.07824268       5.20400539      -0.00307421      -0.00217823      -0.00000373
F        4.48420235       3.17080989       5.20400565       0.00307290       0.00217287      -0.00000245
F        3.74436845       1.07824353       3.92257509       0.00154585      -0.00217141      -0.00266081
F        2.26470008       3.17081033       6.48543560      -0.00153639       0.00218321       0.00266025
F        2.26470001       3.17080890       3.92257465      -0.00153598       0.00217820      -0.00266950
F        3.74436859       1.07824322       6.48543581       0.00154515      -0.00217115       0.00265658
