9
Lattice="5.571045408110152 -1.0385215915380544e-07 3.216444475934811 1.8570150604870257 5.252431793518114 3.2164444372008876 -1.2981587421587437e-09 -4.8357148245295376e-08 6.432888954118117" Properties=species:S:1:pos:R:3:forces:R:3 energy=-30.97057342529297 free_energy=-30.97057342529297 stress="-8.263868949143216e-05 -3.666844605731967e-08 -8.36832736439419e-09 -3.666844605731967e-08 -8.263531344709918e-05 3.280405946881615e-10 -8.36832736439419e-09 3.280405946881615e-10 -8.26661562314257e-05" pbc="T T T"
Fe       1.85701503       1.31310747       3.21644416      -0.00000099      -0.00000268      -0.00000137
Fe       5.57104529       3.93932363       9.64933279       0.00000130      -0.00000033      -0.00000338
Mg      -0.00000006       0.00000015      -0.00000009       0.00000018      -0.00000185      -0.00000142
Cl       1.92348688       1.36011040       6.43288878      -0.00065285      -0.00046196       0.00000086
Cl       5.50457332       3.89232152       6.43288888       0.00065405       0.00046349       0.00000104
Cl       4.60930217       1.36011062       4.88223348       0.00032780      -0.00046458      -0.00056771
Cl       2.81875880       3.89232091       7.98354497      -0.00032826       0.00046557       0.00057058
Cl       2.81875856       3.89232100       4.88223358      -0.00032985       0.00046508      -0.00056833
Cl       4.60930187       1.36011084       7.98354493       0.00032871      -0.00046271       0.00057000
