9
Lattice="6.575103361120588 8.287828137817868e-09 3.7961375401258106 2.191701060974184 6.199067065826202 3.7961376565424922 -1.0073758699355102e-07 7.134845126593381e-08 7.592275254734333" Properties=species:S:1:pos:R:3:forces:R:3 energy=-23.33318328857422 free_energy=-23.33318328857422 stress="-0.00010170248424401507 3.1226747410073585e-08 3.098135437085148e-08 3.1226747410073585e-08 -0.00010169573943130672 -1.143145356152786e-09 3.098135437085148e-08 -1.143145356152786e-09 -0.00010177536023547873" pbc="T T T"
Fe       2.19170034       1.54976639       3.79613803      -0.00000224      -0.00000189       0.00000127
Fe       6.57510402       4.64930097      11.38841296       0.00000365       0.00000304       0.00000123
Mg      -0.00000033       0.00000016      -0.00000029       0.00000276       0.00000223       0.00000537
I        2.32983645       1.64744317       7.59227544      -0.00751463      -0.00531267       0.00000036
I        6.43696799       4.55162409       7.59227526       0.00751242       0.00531176      -0.00000270
I        5.41018488       1.64744311       5.81383539       0.00375816      -0.00531232      -0.00650647
I        3.35661929       4.55162442       9.37071469      -0.00375806       0.00531068       0.00650549
I        3.35661938       4.55162364       5.81383518      -0.00375782       0.00531054      -0.00650771
I        5.41018514       1.64744260       9.37071514       0.00375579      -0.00531140       0.00650312
