9
Lattice="4.618161326701964 -1.0191288028187423e-07 2.6662966576792746 1.5393870805122638 4.354043765020495 2.6662965404264884 7.92842464732324e-08 -8.75423083663479e-08 5.332593178034213" Properties=species:S:1:pos:R:3:forces:R:3 energy=-47.37142562866211 free_energy=-47.37142562866211 stress="9.164967923425138e-05 4.01921624870738e-08 -2.256956399548926e-08 4.01921624870738e-08 9.161306661553681e-05 5.2801997441065396e-08 -2.256956399548926e-08 5.2801997441065396e-08 9.155208681477234e-05" pbc="T T T"
Fe       1.53938710       1.08851008       2.66629612       0.00000090      -0.00000597      -0.00000267
Fe       4.61816172       3.26553274       7.99888968       0.00000085      -0.00000100      -0.00000117
Mn       0.00000005      -0.00000004       0.00000046      -0.00000410      -0.00000993      -0.00000773
F        1.53920734       1.08838405       5.33259327      -0.00012489      -0.00008677       0.00000337
F        4.61834069       3.26565983       5.33259306       0.00013249       0.00009405       0.00000096
F        3.84855681       1.08838333       3.99928869       0.00006054      -0.00008712      -0.00010546
F        2.30899091       3.26566021       6.66589735      -0.00006299       0.00009119       0.00011283
F        2.30899119       3.26566072       3.99928938      -0.00006434       0.00009269      -0.00010642
F        3.84855807       1.08838333       6.66589761       0.00006164      -0.00008713       0.00010639
