9
Lattice="5.262616475667036 1.2027437085207624e-07 3.0383732477652394 1.754205666566829 4.9616423267597485 3.038373141621639 1.1675816397124047e-07 -4.743836279128398e-08 6.076746293299377" Properties=species:S:1:pos:R:3:forces:R:3 energy=-45.21431350708008 free_energy=-45.21431350708008 stress="-2.0157925973762758e-05 2.191645087634697e-08 2.537243837252845e-08 2.191645087634697e-08 -2.016224607359618e-05 -1.0763282709547184e-08 2.537243837252845e-08 -1.0763282709547184e-08 -2.025006506300997e-05" pbc="T T T"
Fe       1.75420561       1.24040964       3.03837355       0.00000090      -0.00000908       0.00000352
Fe       5.26261777       3.72123100       9.11512034       0.00000621      -0.00000460       0.00000271
Mn      -0.00000008       0.00000013      -0.00000012      -0.00000223      -0.00000103      -0.00000248
S        1.80510012       1.27639902       6.07674668      -0.00400752      -0.00282693       0.00000013
S        5.21172143       3.68524367       6.07674586       0.00400943       0.00283498      -0.00000245
S        4.36006613       1.27639847       4.60163532       0.00199759      -0.00282967      -0.00346905
S        2.65675608       3.68524480       7.55185664      -0.00200275       0.00283653       0.00346661
S        2.65675567       3.68524436       4.60163613      -0.00200501       0.00283372      -0.00346762
S        4.36006651       1.27639861       7.55185648       0.00200304      -0.00283366       0.00346822
