9
Lattice="6.391066588041154 4.890174672938278e-08 3.6898840988983803 2.1303556557270853 6.025555249642431 3.6898839598580695 1.3204457603498234e-07 -7.691930318600697e-08 7.379767969088771" Properties=species:S:1:pos:R:3:forces:R:3 energy=-30.130407333374023 free_energy=-30.130407333374023 stress="-0.00013984176621306688 -3.592531783169761e-08 1.4319973651311102e-08 -3.592531783169761e-08 -0.00013982763630338013 -1.1967881796692836e-08 1.4319973651311102e-08 -1.1967881796692836e-08 -0.0001397978630848229" pbc="T T T"
Fe       2.13035727       1.50638759       3.68988330       0.00000521      -0.00000401      -0.00000249
Fe       6.39106669       4.51916773      11.06965372       0.00000049       0.00000554       0.00000619
Mn       0.00000047      -0.00000103       0.00000048      -0.00000787       0.00001915      -0.00000947
I        2.10918633       1.49141943       7.37976810       0.00646660       0.00457285       0.00000069
I        6.41223651       4.53413587       7.37976737      -0.00647408      -0.00457554      -0.00000250
I        5.33647273       1.49141985       5.51649334      -0.00323367       0.00457034       0.00559684
I        3.18494850       4.53413569       9.24304319       0.00323556      -0.00457591      -0.00560609
I        3.18494842       4.53413566       5.51649260       0.00323898      -0.00457814       0.00560869
I        5.33647249       1.49142007       9.24304210      -0.00323121       0.00456560      -0.00559202
