9
Lattice="3.7973063295514047 2.9449346219219717e-06 2.192397746705267 1.2657674327266477 3.5801411557309994 2.1924048830075376 2.819272058360337e-06 1.0733882807948448e-05 4.384790609847161" Properties=species:S:1:pos:R:3:forces:R:3 energy=-44.474090576171875 free_energy=-44.474090576171875 stress="0.0006746660219505429 -1.4056086001801305e-05 9.177769243251532e-06 -1.4056086001801305e-05 0.0006912124808877707 3.4061173209920526e-05 9.177769243251532e-06 3.4061173209920526e-05 0.0007918773335404694" pbc="T T T"
Fe       1.26570235       0.89504448       2.19260395       0.00147129      -0.00020711      -0.00504575
Fe       3.79736942       2.68519839       6.57750282      -0.00139255      -0.00190235      -0.00730149
Mn       0.00000179      -0.00003768      -0.00022513       0.00007683       0.00055941       0.00382262
F        1.30652113       0.92385211       4.38476414       0.00059104       0.00061703       0.00166421
F        3.75654016       2.65628863       4.38480517      -0.00060749      -0.00031400       0.00096827
F        3.14406610       0.92381172       3.32379912      -0.00001419       0.00078630       0.00258827
F        1.91908187       2.65623723       5.44564436      -0.00021267       0.00005984       0.00064301
F        1.91900384       2.65630995       3.32382333       0.00034046       0.00016570       0.00228333
F        3.14401986       0.92391426       5.44565511      -0.00025392       0.00023675       0.00037575
