9
Lattice="5.896116231753717 -9.858689170120884e-09 3.404124201190755 1.965372129399067 5.558911511985013 3.4041240947689526 1.0042547838218755e-07 -5.932803233352161e-08 6.808248228439446" Properties=species:S:1:pos:R:3:forces:R:3 energy=-35.000274658203125 free_energy=-35.000274658203125 stress="-2.4722932721488178e-05 3.239020784917557e-08 -9.383712695765212e-10 3.239020784917557e-08 -2.470738581905607e-05 6.997515455964276e-09 -9.383712695765212e-10 6.997515455964276e-09 -2.4751216187723912e-05" pbc="T T T"
Fe       1.96537032       1.38972853       3.40412429      -0.00001193       0.00000446       0.00000184
Fe       5.89611607       4.16918332      10.21237575      -0.00000260       0.00000019       0.00001819
Ni       0.00000031       0.00000097      -0.00000177      -0.00000430      -0.00001000       0.00002075
Te       2.07017174       1.46383241       6.80824744      -0.00062865      -0.00044628      -0.00000448
Te       5.79131605       4.09507825       6.80824647       0.00063775       0.00044989      -0.00001016
Te       4.86103181       1.46383287       5.19694632       0.00032513      -0.00044597      -0.00054874
Te       3.00045770       4.09507887       8.41955124      -0.00031640       0.00044489       0.00054151
Te       3.00045888       4.09507862       5.19694532      -0.00031516       0.00044825      -0.00055701
Te       4.86103095       1.46383193       8.41955108       0.00031613      -0.00044536       0.00053793
