9
Lattice="6.321387827702612 -8.291570408095845e-08 3.6496548886618707 2.107129170589352 5.959861723492519 3.649654935666051 -1.2617606075608777e-07 -3.165187973765959e-08 7.299309995867072" Properties=species:S:1:pos:R:3:forces:R:3 energy=-25.70060157775879 free_energy=-25.70060157775879 stress="-8.531856292393059e-05 -4.084054872066645e-09 3.1572835457183146e-09 -4.084054872066645e-09 -8.531894854968414e-05 2.514499719552532e-09 3.1572835457183146e-09 2.514499719552532e-09 -8.531606727046892e-05" pbc="T T T"
Fe       2.10712781       1.48996514       3.64965533      -0.00000467      -0.00000162       0.00000301
Fe       6.32138802       4.46989524      10.94896621       0.00000164      -0.00000408       0.00000422
Ni      -0.00000003      -0.00000012      -0.00000021       0.00000072       0.00000010      -0.00000004
I        2.14307113       1.51538011       7.29930982      -0.00235695      -0.00166590      -0.00000108
I        6.28544593       4.44448169       7.29930927       0.00235617       0.00166611      -0.00000178
I        5.24985276       1.51538078       5.50560872       0.00118017      -0.00166404      -0.00204200
I        3.17866426       4.44448169       9.09301056      -0.00117884       0.00166681       0.00203892
I        3.17866487       4.44448169       5.50560885      -0.00117843       0.00166767      -0.00204080
I        5.24985270       1.51538016       9.09301071       0.00118013      -0.00166500       0.00203937
