9
Lattice="4.555301035878488 3.623948735230458e-08 2.6300042049733245 1.5184337176617453 4.294778829789134 2.630004196540516 3.2751183271676723e-09 -8.012138230010043e-09 5.260008404273981" Properties=species:S:1:pos:R:3:forces:R:3 energy=-40.97383117675781 free_energy=-40.97383117675781 stress="0.0001455248420825228 5.25256496075599e-08 2.6309596279361358e-08 5.25256496075599e-08 0.0001456056343158707 1.6961704929485677e-08 2.6309596279361358e-08 1.6961704929485677e-08 0.00014555672532878816" pbc="T T T"
Fe       1.51843404       1.07369511       2.63000451       0.00000233       0.00000415       0.00000084
Fe       4.55530032       3.22108615       7.89001243      -0.00000696       0.00001829      -0.00000163
Ni       0.00000007      -0.00000007       0.00000005      -0.00000218       0.00000013      -0.00000113
F        1.53221464       1.08343854       5.26000817      -0.00057758      -0.00041859      -0.00000177
F        4.54152079       3.21133938       5.26000859       0.00058204       0.00041056       0.00000125
F        3.78919377       1.08343848       3.95694057       0.00028823      -0.00041457      -0.00050064
F        2.28454086       3.21133982       6.56307649      -0.00028726       0.00040900       0.00050262
F        2.28454093       3.21133965       3.95694023      -0.00028642       0.00040808      -0.00050203
F        3.78919362       1.08343836       6.56307614       0.00028763      -0.00041715       0.00050241
