9
Lattice="5.333230005573649 -7.415418643173951e-08 3.0791418502693713 1.7777433416899149 5.028217254123696 3.0791417179200486 9.733340747502272e-08 -9.326903106161849e-08 6.158283531952292" Properties=species:S:1:pos:R:3:forces:R:3 energy=-37.766170501708984 free_energy=-37.766170501708984 stress="-1.0178449883824214e-05 -7.487885866908073e-09 -4.3008469674532535e-08 -7.487885866908073e-09 -1.0192535228270572e-05 -2.6450786450027408e-08 -4.3008469674532535e-08 -2.6450786450027408e-08 -1.0184130587731488e-05" pbc="T T T"
Fe       1.77774577       1.25705128       3.07914031       0.00001295      -0.00001633      -0.00001282
Fe       5.33323064       3.77116170       9.23741854       0.00000546      -0.00000899      -0.00004128
Ni      -0.00000031       0.00000045       0.00000073      -0.00000004      -0.00000175       0.00000213
Se       1.95722239       1.38396745       6.15828288      -0.00067410      -0.00046518      -0.00000003
Se       5.15374856       3.64425280       6.15828524       0.00066090       0.00048427       0.00001170
Se       4.35461762       1.38396579       4.77414850       0.00033249      -0.00047427      -0.00056669
Se       2.75635699       3.64425144       7.54242205      -0.00032389       0.00047293       0.00059372
Se       2.75635421       3.64425139       4.77414897      -0.00034267       0.00047860      -0.00057113
Se       4.35461791       1.38396607       7.54242119       0.00032891      -0.00046925       0.00058454
