9
Lattice="6.69708103866151 7.86181175461562e-09 3.866561527372911 2.232360347921547 6.314068575074339 3.8665615372648867 -6.574700227588917e-09 7.466139380972107e-09 7.733123066133531" Properties=species:S:1:pos:R:3:forces:R:3 energy=-31.534976959228516 free_energy=-31.534976959228516 stress="0.00018170416296925396 -3.4794100933766003e-09 -8.502762383066909e-10 -3.4794100933766003e-09 0.00018170486146118492 -2.7753538356378726e-10 -8.502762383066909e-10 -2.7753538356378726e-10 0.000181704803253524" pbc="T T T"
Fe       2.23236038       1.57851721       3.86656154       0.00000025       0.00000040       0.00000102
Fe       6.69708100       4.73555138      11.59968463      -0.00000062      -0.00000085      -0.00000055
Nb      -0.00000006       0.00000001      -0.00000014      -0.00000036      -0.00000095       0.00000252
I        2.25668222       1.59571532       7.73312306       0.00196198       0.00138829      -0.00000033
I        6.67275919       4.71835325       7.73312306      -0.00196126      -0.00138754      -0.00000001
I        5.56873991       1.59571538       5.82090571      -0.00098016       0.00138699       0.00169896
I        3.36070146       4.71835327       9.64534045       0.00098121      -0.00138831      -0.00169988
I        3.36070150       4.71835319       5.82090574       0.00098062      -0.00138704       0.00169901
I        5.56873994       1.59571533       9.64534047      -0.00098175       0.00138895      -0.00170075
