9
Lattice="5.898098929706401 2.6867056807205984e-08 3.405269151249441 1.9660329614228684 5.560781368117295 3.405269221356759 -2.5433656365293015e-08 6.787922147396343e-08 6.8105383465513" Properties=species:S:1:pos:R:3:forces:R:3 energy=-29.563814163208008 free_energy=-29.563814163208008 stress="6.707204011036083e-05 -1.7155295850557195e-08 -1.0923139726060072e-08 -1.7155295850557195e-08 6.703808321617544e-05 1.4406306148018189e-09 -1.0923139726060072e-08 1.4406306148018189e-09 6.708690489176661e-05" pbc="T T T"
Fe       1.96603323       1.39019468       3.40526940       0.00000086      -0.00000240       0.00000049
Fe       5.89809920       4.17058668      10.21580698       0.00000178       0.00000193      -0.00000184
Ni       0.00000019       0.00000008      -0.00000012      -0.00000332      -0.00000113       0.00000356
Br       1.96047774       1.38626719       6.81053830      -0.00279841      -0.00197926       0.00000084
Br       5.90365376       4.17451418       6.81053857       0.00280099       0.00198241       0.00000131
Br       4.91785974       1.38626739       5.10309307       0.00139985      -0.00198159      -0.00242674
Br       2.94627181       4.17451420       8.51798391      -0.00139977       0.00197905       0.00242318
Br       2.94627179       4.17451414       5.10309295      -0.00140135       0.00198178      -0.00242491
Br       4.91786000       1.38626732       8.51798387       0.00139967      -0.00198060       0.00242423
