9
Lattice="3.02120525970038 0.37439877439866165 1.6072623041886462 0.27714911497338623 1.6593209390924442 3.1932241628060725 -0.5312447009547877 0.2185904303658978 3.3329026555281556" Properties=species:S:1:pos:R:3:forces:R:3 energy=-5645648896.0 free_energy=-5645648896.0 stress="4481194496.0 -151103296.0 -32349516.0 -151103296.0 4666396672.0 -54938228.0 -32349516.0 -54938228.0 4926226944.0" pbc="T T T"
Fe       1.84765627       1.36555718       4.12929007 -584085376.00000000 2632736768.00000000 25235456.00000000
Fe       0.26382791       1.19490074       8.21245059 -1084492288.00000000 -752767040.00000000 -6955366400.00000000
Ni       0.48321670       0.10257308       0.46161173 3117676288.00000000 -3188823552.00000000 2845585152.00000000
O        3.67182904       1.21767744       4.58925607 -2334685696.00000000 795742080.00000000 -2151905792.00000000
O        0.52716226       1.47775120       4.62496905 -1636482688.00000000 1662201856.00000000 2705220096.00000000
O        2.64511572       0.42203389       3.51234097 3619889408.00000000 -1170767744.00000000 -1277558016.00000000
O        1.24814871       1.33789337       6.19141883 2683330560.00000000 -1346452224.00000000 -148632448.00000000
O        0.29442367       0.93402040       3.90621634 -882780416.00000000 -1515966720.00000000 2458806528.00000000
O        3.31441252       0.48966826       5.61362897 -2898372608.00000000 2884096768.00000000 2498614272.00000000
