9
Lattice="5.20371936472139 8.162888422629927e-09 3.0043688720879396 1.7345731211549489 4.906113726505382 3.004368886143377 -8.703797608019537e-09 1.1059750169182628e-08 6.00873775925138" Properties=species:S:1:pos:R:3:forces:R:3 energy=-41.26919937133789 free_energy=-41.26919937133789 stress="2.062504063360393e-05 -4.936732622695672e-08 -2.629365702944142e-08 -4.936732622695672e-08 2.0638564819819294e-05 1.8835901727243254e-08 -2.629365702944142e-08 1.8835901727243254e-08 2.0574994778144173e-05" pbc="T T T"
Fe       1.73457226       1.22652825       3.00436838      -0.00000825      -0.00000069      -0.00000632
Fe       5.20371859       3.67958584       9.01310586      -0.00000684       0.00000505      -0.00001070
Ni       0.00000013       0.00000004      -0.00000028      -0.00000089      -0.00000069       0.00001689
S        1.74044553       1.23067971       6.00873784      -0.00011995      -0.00009100       0.00000166
S        5.19784742       3.67543368       6.00873801       0.00012287       0.00009103       0.00000230
S        4.33349739       1.23068062       4.51163894       0.00006984      -0.00009397      -0.00010961
S        2.60479587       3.67543278       7.50583742      -0.00005840       0.00008491       0.00010800
S        2.60479519       3.67543332       4.51163883      -0.00006424       0.00009017      -0.00010785
S        4.33349753       1.23068080       7.50583709       0.00006583      -0.00008491       0.00010565
