9
Lattice="5.900031474732157 -3.321695213050174e-08 3.4063848568938946 1.9666771535984087 5.5626030223004745 3.4063848106973142 -5.476343703329379e-08 -9.530264366655342e-08 6.812769808640838" Properties=species:S:1:pos:R:3:forces:R:3 energy=-29.563772201538086 free_energy=-29.563772201538086 stress="0.00038913561729714274 -1.0460053267991043e-08 2.1851720433119226e-09 -1.0460053267991043e-08 0.0003891781088896096 -8.560175679406257e-09 2.1851720433119226e-09 -8.560175679406257e-09 0.0003891100350301713" pbc="T T T"
Fe       1.96667657       1.39064927       3.40638525      -0.00000156      -0.00000496       0.00000047
Fe       5.90003059       4.17195198      10.21915322      -0.00000358      -0.00000229      -0.00000389
Ni       0.00000017       0.00000016      -0.00000006      -0.00000041       0.00000038       0.00000609
Br       1.96037403       1.38619383       6.81276986      -0.00020668      -0.00014625       0.00000116
Br       5.90633455       4.17640949       6.81277009       0.00020888       0.00015026       0.00000305
Br       4.91984466       1.38619392       5.10411884       0.00010489      -0.00014944      -0.00017916
Br       2.94686430       4.17640966       8.52142106      -0.00010032       0.00014530       0.00017765
Br       2.94686450       4.17640938       5.10411863      -0.00010499       0.00015005      -0.00018194
Br       4.91984495       1.38619385       8.52142109       0.00010363      -0.00014305       0.00017664
