9
Lattice="3.8191895801276186 3.697129829881864e-06 2.20501572703265 1.2730666800024435 3.600772697064085 2.205015725404766 6.28580076990547e-06 4.442740745993489e-06 4.410020566739469" Properties=species:S:1:pos:R:3:forces:R:3 energy=-42.50000762939453 free_energy=-42.50000762939453 stress="0.00010267445759382099 -4.4013104343321174e-06 -2.6147927201236598e-05 -4.4013104343321174e-06 7.964293035911396e-05 -1.75468794623157e-05 -2.6147927201236598e-05 -1.75468794623157e-05 8.977529068943113e-05" pbc="T T T"
Fe       1.27319447       0.90012972       2.20496979       0.00129566      -0.00069201      -0.00023985
Fe       3.81937988       2.70045924       6.61519717       0.00172277      -0.00116768       0.00135569
Ni      -0.00003011       0.00001896      -0.00001096      -0.00059451       0.00031016      -0.00024025
F        1.31375051       0.92902739       4.40990180       0.00038981       0.00078952      -0.00247607
F        3.77841826       2.67182709       4.41012001      -0.00110042       0.00015295       0.00202977
F        3.16238285       0.92903128       3.34283514       0.00164825       0.00072992       0.00159097
F        1.92977642       2.67180573       5.47716205      -0.00260234      -0.00027502      -0.00224960
F        1.93003180       2.67179942       3.34270998       0.00202262      -0.00057757      -0.00069022
F        3.16214479       0.92902567       5.47732277      -0.00278133       0.00073063       0.00091553
