9
Lattice="4.816384098741768 6.09779568060651e-08 2.780740590887731 1.6054613866750775 4.540930487946902 2.780740655082295 -6.628053429369111e-08 3.1754565002216446e-08 5.561481296576662" Properties=species:S:1:pos:R:3:forces:R:3 energy=-50.4119758605957 free_energy=-50.4119758605957 stress="-0.00037626290577463806 -4.161538669222864e-09 2.794716102982875e-08 -4.161538669222864e-09 -0.00037626910489052534 -3.3114588404714596e-08 2.794716102982875e-08 -3.3114588404714596e-08 -0.0003762809792533517" pbc="T T T"
Fe       1.60546125       1.13523252       2.78074047      -0.00000016      -0.00000084      -0.00000002
Fe       4.81638401       3.40569833       8.34222252      -0.00000094       0.00000221       0.00000059
Nb      -0.00000010      -0.00000002      -0.00000005       0.00000110       0.00000336      -0.00000176
F        1.63168975       1.15377852       5.56148129       0.00711507       0.00503007       0.00000034
F        4.79015562       3.38715192       5.56148085      -0.00711739      -0.00503176      -0.00000071
F        4.00053932       1.15377873       4.19382546      -0.00355843       0.00503197       0.00616431
F        2.42130622       3.38715183       6.92913716       0.00355864      -0.00503245      -0.00616437
F        2.42130631       3.38715155       4.19382531       0.00355837      -0.00503233       0.00616229
F        4.00053942       1.15377905       6.92913736      -0.00355664       0.00503001      -0.00616091
