9
Lattice="5.725295917079626 1.1192608594939508e-07 3.3055011651244253 1.908432045890526 5.3978608129861225 3.3055012205401764 -8.220420074501918e-08 9.742999780163772e-09 6.611002472630743" Properties=species:S:1:pos:R:3:forces:R:3 energy=-39.373069763183594 free_energy=-39.373069763183594 stress="4.716321927844547e-05 2.927716558076554e-08 1.8242619859165643e-08 2.927716558076554e-08 4.7096938942559063e-05 2.9569815485075424e-09 1.8242619859165643e-08 2.9569815485075424e-09 4.705257742898539e-05" pbc="T T T"
Fe       1.90843214       1.34946534       3.30550138       0.00000051       0.00000047       0.00000043
Fe       5.72529521       4.04839473       9.91650397      -0.00000520      -0.00000243       0.00000085
Nb       0.00000001       0.00000023      -0.00000022       0.00000309       0.00000225       0.00000108
Cl       1.96828114       1.39178523       6.61100245      -0.00733477      -0.00518589      -0.00000018
Cl       5.66544711       4.00607615       6.61100233       0.00733104       0.00518446      -0.00000001
Cl       4.74115553       1.39178500       5.01008252       0.00366756      -0.00518389      -0.00635064
Cl       2.89257245       4.00607613       8.21192236      -0.00366437       0.00518353       0.00634864
Cl       2.89257235       4.00607603       5.01008242      -0.00366420       0.00518334      -0.00634944
Cl       4.74115559       1.39178496       8.21192219       0.00366634      -0.00518173       0.00634946
