9
Lattice="6.1901960686025586 -2.0774229799529534e-08 3.5739113357767627 2.063398714809535 5.836172683181642 3.573911258074355 3.739727379188202e-08 -6.87217502940474e-08 7.14782260677955" Properties=species:S:1:pos:R:3:forces:R:3 energy=-35.96875762939453 free_energy=-35.96875762939453 stress="0.00016972774756141007 2.607255922271179e-08 3.894106370694317e-09 2.607255922271179e-08 0.0001697138068266213 -3.2368649982572606e-09 3.894106370694317e-09 -3.2368649982572606e-09 0.00016965398390311748" pbc="T T T"
Fe       2.06339877       1.45904319       3.57391150       0.00000038       0.00000118       0.00000063
Fe       6.19019604       4.37712934      10.72173420      -0.00000088      -0.00000148       0.00000078
Nb       0.00000025      -0.00000005       0.00000024      -0.00000144       0.00000054      -0.00000134
Br       2.08879389       1.47700032       7.14782247      -0.00256795      -0.00181523      -0.00000051
Br       6.16480075       4.35917229       7.14782244       0.00256896       0.00181668      -0.00000047
Br       5.14579912       1.47700036       5.38285975       0.00128216      -0.00181364      -0.00222023
Br       3.10779568       4.35917229       8.91278525      -0.00128204       0.00181336       0.00222006
Br       3.10779573       4.35917220       5.38285980      -0.00128252       0.00181387      -0.00222035
Br       5.14579907       1.47700041       8.91278514       0.00128330      -0.00181523       0.00222147
