9
Lattice="6.49647610803022 2.6169958438818685e-08 3.7507424176081647 2.1654920188810634 6.124936670184569 3.7507424900118744 -4.304478737608425e-08 5.823878437058458e-08 7.501484909772077" Properties=species:S:1:pos:R:3:forces:R:3 energy=-24.63040542602539 free_energy=-24.63040542602539 stress="0.0001319736911682412 -7.969364723692252e-09 2.4966895217914953e-09 -7.969364723692252e-09 0.00013197105727158487 -4.08513534111421e-09 2.4966895217914953e-09 -4.08513534111421e-09 0.00013197079533711076" pbc="T T T"
Fe       2.16549251       1.53123482       3.75074188       0.00000077       0.00000103      -0.00000153
Fe       6.49647613       4.59370202      11.25222697       0.00000132      -0.00000178      -0.00000177
P       -0.00000013       0.00000005       0.00000013      -0.00000044       0.00000002      -0.00000018
I        2.22498698       1.57330358       7.50148517       0.00187952       0.00133016       0.00000160
I        6.43698099       4.55163325       7.50148522      -0.00188041      -0.00132965       0.00000100
I        5.38398241       1.57330348       5.67763829      -0.00093998       0.00132958       0.00162732
I        3.27798549       4.55163314       9.32533168       0.00093989      -0.00132943      -0.00162740
I        3.27798566       4.55163279       5.67763815       0.00093965      -0.00132968       0.00162730
I        5.38398231       1.57330387       9.32533178      -0.00094027       0.00132971      -0.00162616
