9
Lattice="5.814737247672137 -1.6761180056262792e-08 3.357140135443745 1.938245701221915 5.4821870177778145 3.357140191214945 3.336796200547968e-08 9.19002562391597e-08 6.714280213092444" Properties=species:S:1:pos:R:3:forces:R:3 energy=-30.33579444885254 free_energy=-30.33579444885254 stress="0.0001572397886775434 -2.2660904264171222e-08 -2.0437779468807094e-08 -2.2660904264171222e-08 0.00015727999561931938 1.698675688999174e-08 -2.0437779468807094e-08 1.698675688999174e-08 0.00015729619190096855" pbc="T T T"
Fe       1.93824595       1.37054711       3.35713980       0.00000069       0.00000234      -0.00000304
Fe       5.81473749       4.11164048      10.07141969       0.00000009       0.00000027      -0.00000507
Pb      -0.00000039      -0.00000028       0.00000053       0.00000679       0.00000583      -0.00001517
Cl       2.04599347       1.44673573       6.71428037      -0.00561935      -0.00397396       0.00000109
Cl       5.70698979       4.03545113       6.71428043       0.00561175       0.00396684       0.00000124
Cl       4.79174043       1.44673576       5.12902264       0.00280619      -0.00397056      -0.00486034
Cl       2.96124258       4.03545095       8.29953805      -0.00281131       0.00397606       0.00487077
Cl       2.96124226       4.03545128       5.12902243      -0.00280543       0.00396711      -0.00485906
Cl       4.79174042       1.44673624       8.29953817       0.00281046      -0.00397393       0.00486925
