9
Lattice="3.7481791975600802 -1.501189700224906 2.2828842040033845 0.695114830229875 1.0083971907499811 1.781929140768459 -0.23355889668071583 -2.082292296121842 4.382848397000864" Properties=species:S:1:pos:R:3:forces:R:3 energy=-2860316.5 free_energy=-2860316.5 stress="-171991.328125 25044.71484375 45932.984375 25044.71484375 -88536.28125 83354.921875 45932.984375 83354.921875 98474.7734375" pbc="T T T"
Fe       0.79520890      -0.43606484       2.06153713 4816489.50000000 9920003.00000000 -11294127.00000000
Fe       3.86945533      -1.27018999       5.38810330 1832921.87500000 1710464.87500000 -7080392.50000000
P        0.41911958       2.33015802      -1.65448128 -2529854.25000000 -1986338.50000000 6187930.00000000
F        2.38360545       0.20507797       2.82612440 -1816423.75000000 -103128.46875000 -264168.84375000
F        3.73157282      -0.27673857       2.40908755  480819.25000000 -326376.31250000 -1539837.12500000
F        3.70513564      -0.42200912       2.40608482  276803.25000000 -292034.75000000 1589359.12500000
F        1.51355525       0.62880341       3.86019980 -4252372.00000000 -8383752.00000000 13040271.00000000
F        2.45774212       1.14132883       0.97005306 1356198.25000000    8973.65625000 -569740.62500000
F        2.51532289      -1.24302636       4.21802661 -164587.56250000 -547811.37500000  -69290.57812500
