9
Lattice="5.764227637027998 1.1652281406950554e-07 3.327978639691427 1.9214092804882612 5.434566764225254 3.3279787119407604 -1.7069863737107123e-07 -3.2215175394294115e-08 6.655957575041535" Properties=species:S:1:pos:R:3:forces:R:3 energy=-31.017330169677734 free_energy=-31.017330169677734 stress="-5.20709108968731e-05 -2.672987342577926e-08 -3.255357983178442e-09 -2.672987342577926e-08 -5.211627285461873e-05 -3.717631358313156e-08 -3.255357983178442e-09 -3.717631358313156e-08 -5.19898567290511e-05" pbc="T T T"
Fe       1.92140849       1.35863889       3.32797796      -0.00000282      -0.00001135      -0.00000326
Fe       5.76422860       4.07592722       9.98393325       0.00000691       0.00000752      -0.00001020
P        0.00000014       0.00000141       0.00000054      -0.00000092      -0.00000028       0.00000379
Cl       1.90170921       1.34471093       6.65595764      -0.00194233      -0.00137462       0.00000252
Cl       5.78392654       4.08985549       6.65595833       0.00193967       0.00137607       0.00000405
Cl       4.81337312       1.34471099       4.97490800       0.00097214      -0.00137533      -0.00168068
Cl       2.87226389       4.08985504       8.33700707      -0.00096966       0.00137326       0.00168208
Cl       2.87226352       4.08985592       4.97490916      -0.00097458       0.00137964      -0.00168236
Cl       4.81337349       1.34471148       8.33700775       0.00097158      -0.00137473       0.00168420
