9
Lattice="5.446883334512354 8.65164744789357e-08 3.1447595773429784 1.8156277887211074 5.135370927123028 3.144759700350114 1.9049587485666827e-08 1.641224456823255e-07 6.289519121691137" Properties=species:S:1:pos:R:3:forces:R:3 energy=-39.91913986206055 free_energy=-39.91913986206055 stress="-5.865640105184866e-06 3.3577808977725e-08 1.9316370725164234e-09 3.3577808977725e-08 -5.8925866142089944e-06 4.727050395558763e-08 1.9316370725164234e-09 4.727050395558763e-08 -5.9126450651092455e-06" pbc="T T T"
Fe       1.81562959       1.28384268       3.14475880       0.00001587      -0.00000176      -0.00001160
Fe       5.44688291       3.85152673       9.43428235      -0.00000671      -0.00001469       0.00003572
P       -0.00000016       0.00000009       0.00000019      -0.00000252       0.00000109       0.00000020
S        1.76167745       1.24569472       6.28951890       0.00030053       0.00021666      -0.00000219
S        5.50083318       3.88967658       6.28951736      -0.00030077      -0.00020850      -0.00001882
S        4.56604561       1.24569558       4.67041726      -0.00014114       0.00022501       0.00025558
S        2.69646631       3.88967716       7.90862022       0.00014681      -0.00021398      -0.00026655
S        2.69646753       3.88967651       4.67041640       0.00016105      -0.00021797       0.00025868
S        4.56604200       1.24569465       7.90862233      -0.00017279       0.00021410      -0.00025177
