9
Lattice="6.436121053703112 -5.682714744865631e-08 3.7158962584231463 2.1453736712496085 6.0680330779867 3.7158961886923265 8.848275627378004e-08 -2.2835755900203582e-08 7.431792363589681" Properties=species:S:1:pos:R:3:forces:R:3 energy=-26.314434051513672 free_energy=-26.314434051513672 stress="-8.893149060895666e-05 -4.113755114332207e-09 2.2113262332368322e-08 -4.113755114332207e-09 -8.894051279639825e-05 -2.177618263488057e-08 2.2113262332368322e-08 -2.177618263488057e-08 -8.894311031326652e-05" pbc="T T T"
Fe       2.14537555       1.51700709       3.71589629       0.00000543      -0.00000289       0.00000035
Fe       6.43611953       4.55102549      11.14768856      -0.00000525       0.00000215       0.00000121
Pt       0.00000014       0.00000002       0.00000002      -0.00000205       0.00000174      -0.00000028
I        2.17818168       1.54020654       7.43179248      -0.00233577      -0.00165362      -0.00000034
I        6.40331289       4.52782658       7.43179224       0.00233551       0.00165553      -0.00000043
I        5.34703006       1.54020696       5.60225670       0.00116742      -0.00165281      -0.00202494
I        3.23446477       4.52782637       9.26132830      -0.00116623       0.00165191       0.00202283
I        3.23446491       4.52782589       5.60225653      -0.00116803       0.00165373      -0.00202613
I        5.34702974       1.54020711       9.26132809       0.00116889      -0.00165576       0.00202776
