9
Lattice="5.99813649352246 3.826688004012663e-08 3.463025750662206 1.9993788437910454 5.655097577722433 3.463025791298646 -7.953787953310011e-08 -6.472479048884107e-09 6.926051639088043" Properties=species:S:1:pos:R:3:forces:R:3 energy=-28.560251235961914 free_energy=-28.560251235961914 stress="-8.82140375324525e-05 -4.772291450905186e-09 9.13372311117655e-09 -4.772291450905186e-09 -8.820806397125125e-05 1.3738279402986109e-09 9.13372311117655e-09 1.3738279402986109e-09 -8.82019885466434e-05" pbc="T T T"
Fe       1.99937955       1.41377450       3.46302588       0.00000169      -0.00000012       0.00000042
Fe       5.99813527       4.24132233      10.38907697      -0.00000338      -0.00000246      -0.00000072
P       -0.00000004      -0.00000005       0.00000056      -0.00000042       0.00000005       0.00000001
Br       2.06627531       1.46107741       6.92605159       0.00128854       0.00091101       0.00000018
Br       5.93124008       4.19402024       6.92605149      -0.00128782      -0.00091042      -0.00000022
Br       4.96499854       1.46107774       5.25247252      -0.00064399       0.00091151       0.00111476
Br       3.03251690       4.19402017       8.59963047       0.00064440      -0.00090964      -0.00111412
Br       3.03251656       4.19402030       5.25247285       0.00064438      -0.00091023       0.00111426
Br       4.96499884       1.46107778       8.59963045      -0.00064351       0.00091024      -0.00111455
