9
Lattice="4.839877343314136 1.713977644823674e-08 2.7943047776994234 1.6132925197812429 4.563080010883357 2.794304680963808 1.587675042493649e-07 -6.210868237732101e-09 5.588609280405398" Properties=species:S:1:pos:R:3:forces:R:3 energy=-40.620033264160156 free_energy=-40.620033264160156 stress="0.0001564156700624153 1.8323990502722154e-07 -4.073024939543757e-08 1.8323990502722154e-07 0.0001562486868351698 9.41527655839991e-09 -4.073024939543757e-08 9.41527655839991e-09 0.00015613816503901035" pbc="T T T"
Fe       1.61329284       1.14076901       2.79430455      -0.00000045      -0.00000318      -0.00000150
Fe       4.83987786       3.42231087       8.38291443       0.00000342       0.00000326       0.00000193
Pt       0.00000002       0.00000020      -0.00000002       0.00000075      -0.00000555      -0.00000167
F        1.62563612       1.14949917       5.58860941      -0.00378597      -0.00267598      -0.00000005
F        4.82753368       3.41358097       5.58860924       0.00378782       0.00267899      -0.00000092
F        4.02705951       1.14949773       4.20214742       0.00188631      -0.00267172      -0.00327039
F        2.42611095       3.41358185       6.97507135      -0.00189146       0.00267562       0.00327182
F        2.42611063       3.41358224       4.20214711      -0.00188622       0.00267223      -0.00326949
F        4.02705857       1.14949792       6.97507167       0.00188607      -0.00267375       0.00327039
