9
Lattice="6.406157190120701 -1.3987892731829765e-07 3.6985967293600233 2.1353855024358808 6.039783156786243 3.6985968951608945 -1.3014335998907233e-07 1.1103848806499166e-07 7.397193684134931" Properties=species:S:1:pos:R:3:forces:R:3 energy=-25.25473976135254 free_energy=-25.25473976135254 stress="-0.0001319191069342196 -1.2635193336052453e-08 1.2145591199441697e-08 -1.2635193336052453e-08 -0.00013191450852900743 -5.353564258570032e-09 1.2145591199441697e-08 -5.353564258570032e-09 -0.00013189896708354354" pbc="T T T"
Fe       2.13538616       1.50994650       3.69859663       0.00000198       0.00000248      -0.00000027
Fe       6.40615686       4.52983679      11.09579080       0.00000027      -0.00000240      -0.00000000
Pd       0.00000014       0.00000015       0.00000088       0.00000001      -0.00000007      -0.00000915
I        2.19324664       1.55085981       7.39719377      -0.00357311      -0.00252553       0.00000043
I        6.34829562       4.48892323       7.39719327       0.00357303       0.00252626      -0.00000032
I        5.30953353       1.55086000       5.59800458       0.00178589      -0.00252602      -0.00309435
I        3.23200927       4.48892259       9.19638237      -0.00178902       0.00252945       0.00309877
I        3.23200897       4.48892316       5.59800463      -0.00178725       0.00252543      -0.00309442
I        5.30953303       1.55086028       9.19638228       0.00178822      -0.00252961       0.00309936
