9
Lattice="5.46937278375306 9.137611310621046e-08 3.1577439044552746 1.8231243315673096 5.156574213985644 3.157743931880448 -2.1005366132578847e-08 1.8735814324243408e-08 6.315487845292878" Properties=species:S:1:pos:R:3:forces:R:3 energy=-38.28480911254883 free_energy=-38.28480911254883 stress="-9.304047853220254e-05 1.928489812286216e-09 -1.6206214148439813e-09 1.928489812286216e-09 -9.302261605625972e-05 2.967389889363403e-09 -1.6206214148439813e-09 2.967389889363403e-09 -9.303324623033404e-05" pbc="T T T"
Fe       1.82312459       1.28914308       3.15774389       0.00000139      -0.00000203      -0.00000004
Fe       5.46937312       3.86743129       9.47323138       0.00000149       0.00000166      -0.00000135
P       -0.00000036      -0.00000053       0.00000037       0.00000229       0.00000263      -0.00000308
Se       2.10677140       1.48971253       6.31548765      -0.00106877      -0.00075504       0.00000061
Se       5.18572533       3.66686180       6.31548766       0.00107083       0.00075778       0.00000112
Se       4.41598700       1.48971268       4.98226187       0.00053294      -0.00075832      -0.00092560
Se       2.87651006       3.66686198       7.64871422      -0.00053570       0.00075549       0.00092667
Se       2.87651012       3.66686196       4.98226159      -0.00053714       0.00075546      -0.00092506
Se       4.41598712       1.48971252       7.64871412       0.00053275      -0.00075752       0.00092661
