9
Lattice="5.059021493148951 1.786380381095449e-07 2.9208274710068376 1.6863405880794968 4.769691769834277 2.9208276062079195 -5.8503676105798546e-08 1.2421849173020838e-07 5.8416550433450105" Properties=species:S:1:pos:R:3:forces:R:3 energy=-40.22829055786133 free_energy=-40.22829055786133 stress="-0.00025934228324331343 1.8891727293635086e-08 -1.8519635602842754e-08 1.8891727293635086e-08 -0.0002591518859844655 -9.097980702144071e-10 -1.8519635602842754e-08 -9.097980702144071e-10 -0.0002592901000753045" pbc="T T T"
Fe       1.68634075       1.19242256       2.92082731       0.00000154      -0.00000200      -0.00000069
Fe       5.05902040       3.57726994       8.76248319      -0.00000419       0.00000396       0.00000393
Pb      -0.00000011       0.00000012       0.00000033      -0.00000236      -0.00000326      -0.00001265
F        1.73008279       1.22335287       5.84165523      -0.00011063      -0.00008132       0.00000012
F        5.01527948       3.54633901       5.84165485       0.00011408       0.00008227      -0.00000242
F        4.19398039       1.22335319       4.41912310       0.00005485      -0.00007800      -0.00009483
F        2.55138206       3.54633863       7.26418701      -0.00005892       0.00008454       0.00010203
F        2.55138248       3.54633852       4.41912293      -0.00005169       0.00007826      -0.00009684
F        4.19397978       1.22335337       7.26418686       0.00005719      -0.00008458       0.00010130
