9
Lattice="4.736254283348835 -3.413518372589484e-07 2.7344778624258668 1.5787511696229901 4.465382931244308 2.7344777521467725 -1.075067913271213e-08 -1.426656379354596e-07 5.468955743472468" Properties=species:S:1:pos:R:3:forces:R:3 energy=-39.7547721862793 free_energy=-39.7547721862793 stress="8.609373617218807e-05 -9.036977388632295e-08 1.2597911336342804e-07 -9.036977388632295e-08 8.634047844680026e-05 4.632893180200881e-08 1.2597911336342804e-07 4.632893180200881e-08 8.605515176896006e-05" pbc="T T T"
Fe       1.57875032       1.11634299       2.73447856      -0.00000376      -0.00001785       0.00000698
Fe       4.73625628       3.34903881       8.20343127       0.00001215       0.00001430      -0.00001801
Pd      -0.00000005       0.00000008      -0.00000026       0.00000133      -0.00000215       0.00002121
F        1.63346882       1.15503554       5.46895479      -0.00696819      -0.00493161      -0.00000372
F        4.68153637       3.31034747       5.46895722       0.00696498       0.00493269       0.00000729
F        3.91951929       1.15503551       4.14910372       0.00348641      -0.00493807      -0.00603696
F        2.39548590       3.31034675       6.78880795      -0.00348403       0.00493218       0.00603040
F        2.39548452       3.31034669       4.14910487      -0.00349770       0.00494232      -0.00603737
F        3.91952033       1.15503597       6.78880704       0.00348891      -0.00493179       0.00603008
