9
Lattice="5.983101065129191 -4.339910282184452e-08 3.454345070181494 1.9943670040416814 5.640921727593585 3.454345029912987 7.4239614082541e-09 -4.406913083136331e-08 6.9086901275043235" Properties=species:S:1:pos:R:3:forces:R:3 energy=-30.080780029296875 free_energy=-30.080780029296875 stress="4.9305301217827946e-05 -6.081404535507318e-08 2.5578266615866596e-08 -6.081404535507318e-08 4.938069832860492e-05 -1.6413832071293655e-08 2.5578266615866596e-08 -1.6413832071293655e-08 4.94506093673408e-05" pbc="T T T"
Fe       1.99436708       1.41023008       3.45434545       0.00000053       0.00000015      -0.00000109
Fe       5.98310081       4.23069101      10.36303517       0.00000074      -0.00000061       0.00000083
Pt      -0.00000010      -0.00000003       0.00000049       0.00000531      -0.00000055      -0.00001981
Br       1.98873216       1.40624608       6.90869002       0.00251083       0.00177501       0.00000115
Br       5.98873592       4.23467575       6.90869003      -0.00251618      -0.00177938       0.00000059
Br       4.98873496       1.40624616       5.17663741      -0.00125720       0.00177898       0.00217836
Br       2.98873326       4.23467548       8.64074239       0.00125235      -0.00176868      -0.00216688
Br       2.98873328       4.23467550       5.17663751       0.00125496      -0.00177419       0.00217447
Br       4.98873497       1.40624652       8.64074243      -0.00125149       0.00176926      -0.00216767
