9
Lattice="6.102635738849787 -4.827660063556552e-09 3.5233583701770788 2.034211918606031 5.75362017796347 3.5233583524968997 1.3130669117710925e-08 -1.2368918322224112e-08 7.046716717611159" Properties=species:S:1:pos:R:3:forces:R:3 energy=-27.818626403808594 free_energy=-27.818626403808594 stress="-6.852652586530894e-05 5.933519453549252e-09 9.367577824548334e-09 5.933519453549252e-09 -6.851946091046557e-05 -1.9761597913614537e-10 9.367577824548334e-09 -1.9761597913614537e-10 -6.854311504866928e-05" pbc="T T T"
Fe       2.03421198       1.43840512       3.52335857       0.00000006      -0.00000049       0.00000008
Fe       6.10263539       4.31521506      10.57007479      -0.00000156       0.00000031      -0.00000078
Pb      -0.00000013       0.00000004      -0.00000010       0.00000231       0.00000087       0.00000108
Br       2.17690976       1.53930772       7.04671678      -0.00056621      -0.00039987      -0.00000042
Br       5.95993796       4.21431253       7.04671680       0.00056505       0.00039898       0.00000079
Br       5.01418109       1.53930752       5.40861735       0.00028339      -0.00040066      -0.00048938
Br       3.12266687       4.21431250       8.68481604      -0.00028194       0.00039965       0.00048929
Br       3.12266685       4.21431251       5.40861741      -0.00028343       0.00040072      -0.00049032
Br       5.01418089       1.53930767       8.68481611       0.00028253      -0.00039952       0.00048982
