9
Lattice="1.5434081132465725 -0.608837549244422 1.7108439689437818 0.01260402811124083 3.3571259727822014 1.5533316180034393 -0.4838379095406096 -0.7690865790637472 2.935391337607294" Properties=species:S:1:pos:R:3:forces:R:3 energy=-33983463424.0 free_energy=-33983463424.0 stress="0.0 -201463456.0 -311264320.0 -201463456.0 0.0 -3421648896.0 -311264320.0 -3421648896.0 0.0" pbc="T T T"
Fe       1.65862819       0.66049446       0.15547776 -2841309184.00000000 -21707059200.00000000 7809245184.00000000
Fe       1.73644224       0.26006384       1.79488413 54216564736.00000000 1736322816.00000000 -2129854848.00000000
P       -0.03724202       0.81856780      -1.32831048 -4721137664.00000000 34658299904.00000000 -18559447040.00000000
O        1.16277375       1.13657135       0.14998420 -72991776768.00000000 -57799778304.00000000 -25423982592.00000000
O        1.71206957       2.91167493      -1.70213371 -1807847168.00000000 -3413722880.00000000 8905286656.00000000
O        2.78074605       1.05665479       1.53167298 -13903654912.00000000 -64796934144.00000000 28008466432.00000000
O        1.11523282       0.94547305       0.08215887 -61135622144.00000000 38531821568.00000000 -45771694080.00000000
O        2.69305253       1.98933992       0.77050180 7378087936.00000000 -180654080.00000000 -6883695104.00000000
O        1.05644606       0.98876361       0.10264041 95806734336.00000000 72971689984.00000000 54045650944.00000000
