9
Lattice="5.601065752173534 7.314211856749296e-09 3.233776812705319 1.8670219126222722 5.280735474697588 3.233776832909348 1.209497910233245e-08 3.3297197314092804e-08 6.467553604461546" Properties=species:S:1:pos:R:3:forces:R:3 energy=-31.931493759155273 free_energy=-31.931493759155273 stress="-0.00021840953559149057 -3.5022400535211773e-09 2.239174357043794e-08 -3.5022400535211773e-09 -0.00021842680871486664 -1.1286404699717423e-08 2.239174357043794e-08 -1.1286404699717423e-08 -0.000218441360630095" pbc="T T T"
Fe       1.86702196       1.32018403       3.23377655       0.00000007       0.00000167      -0.00000134
Fe       5.60106572       3.96055182       9.70133069       0.00000006       0.00000133       0.00000262
Pd       0.00000022       0.00000005      -0.00000087      -0.00000562      -0.00000466       0.00002754
Cl       1.89142790       1.33744167       6.46755378      -0.00383354      -0.00271109      -0.00000018
Cl       5.57665945       3.94329368       6.46755369       0.00383928       0.00271482      -0.00000252
Cl       4.65535173       1.33744159       4.87180167       0.00192114      -0.00271717      -0.00332829
Cl       2.81273596       3.94329391       8.06330598      -0.00191560       0.00270709       0.00331523
Cl       2.81273598       3.94329368       4.87180164      -0.00192092       0.00271894      -0.00333058
Cl       4.65535180       1.33744165       8.06330593       0.00191493      -0.00271097       0.00331736
