9
Lattice="5.694563348472592 7.945156426187865e-08 3.287757920498081 1.898187839325448 5.368886204107665 3.287757952378921 -4.472375998152667e-08 7.421399000075378e-09 6.575515918459997" Properties=species:S:1:pos:R:3:forces:R:3 energy=-32.78318786621094 free_energy=-32.78318786621094 stress="-5.119874913361855e-05 -2.4221129990564805e-08 1.2791711689885688e-08 -2.4221129990564805e-08 -5.113903898745775e-05 2.0541181200428582e-08 1.2791711689885688e-08 2.0541181200428582e-08 -5.1118156989105046e-05" pbc="T T T"
Fe       1.89818781       1.34222218       3.28775762      -0.00000004       0.00000184       0.00000002
Fe       5.69456457       4.02666425       9.86327381       0.00000212      -0.00000133      -0.00000215
Pt      -0.00000030      -0.00000004      -0.00000033      -0.00000047      -0.00000300       0.00000862
Cl       1.89089296       1.33706350       6.57551613      -0.00205591      -0.00145273       0.00000088
Cl       5.70185773       4.03182271       6.57551603       0.00205898       0.00145383      -0.00000203
Cl       4.74911657       1.33706365       4.92531986       0.00102985      -0.00145635      -0.00178239
Cl       2.84363442       4.03182253       8.22571205      -0.00103022       0.00145434       0.00178412
Cl       2.84363411       4.03182267       4.92531995      -0.00103347       0.00145799      -0.00178595
Cl       4.74911671       1.33706368       8.22571209       0.00102919      -0.00145444       0.00177868
