9
Lattice="4.832751531764136 -2.6323649210618315e-07 2.790190395976621 1.6109169235055674 4.556362125193764 2.7901904056196543 -7.711918424612507e-08 -4.27212277072658e-08 5.580380925527613" Properties=species:S:1:pos:R:3:forces:R:3 energy=-50.13893127441406 free_energy=-50.13893127441406 stress="-7.163245027186349e-05 -5.503066446976845e-08 -9.346829443757088e-08 -5.503066446976845e-08 -7.161131361499429e-05 -6.576188837925656e-08 -9.346829443757088e-08 -6.576188837925656e-08 -7.164791168179363e-05" pbc="T T T"
Fe       1.61091787       1.13908911       2.79018932       0.00000821      -0.00000871      -0.00000409
Fe       4.83275207       3.41727235       8.37057359       0.00000196       0.00000651       0.00001314
Sc       0.00000010      -0.00000002       0.00000037      -0.00000309       0.00000051      -0.00000757
F        1.62222988       1.14708937       5.58038063       0.00698356       0.00493910       0.00000133
F        4.82143844       3.40927232       5.58038067      -0.00698381      -0.00493538      -0.00000653
F        4.02163616       1.14708949       4.19508245      -0.00349045       0.00493815       0.00604694
F        2.42203115       3.40927236       6.96567801       0.00348274      -0.00493456      -0.00604929
F        2.42203277       3.40927282       4.19508256       0.00349646      -0.00493424       0.00604954
F        4.02163509       1.14708936       6.96567906      -0.00349563       0.00492863      -0.00604336
