9
Lattice="5.4686165508964555 -6.29702181712906e-08 3.157307349799514 1.822872150351682 5.15586117448019 3.157307304613095 4.140701889185202e-08 -2.606268087827445e-08 6.31461462787998" Properties=species:S:1:pos:R:3:forces:R:3 energy=-37.87747573852539 free_energy=-37.87747573852539 stress="1.1477251973701641e-05 6.447407940868288e-09 -1.3470831561335217e-08 6.447407940868288e-09 1.1491793884488288e-05 -2.335848137136054e-08 -1.3470831561335217e-08 -2.335848137136054e-08 1.147031071013771e-05" pbc="T T T"
Fe       1.82287164       1.28896480       3.15730710      -0.00000254      -0.00000137       0.00000117
Fe       5.46861644       3.86689542       9.47192346      -0.00000041      -0.00000222       0.00000721
Si      -0.00000012       0.00000028       0.00000055       0.00000033      -0.00000131      -0.00000446
Se       2.07944103       1.47038693       6.31461444      -0.00286704      -0.00202997      -0.00000121
Se       5.21204833       3.68547490       6.31461408       0.00286102       0.00202180      -0.00000391
Se       4.42889676       1.47038622       4.95815558       0.00143389      -0.00201985      -0.00248024
Se       2.86259257       3.68547446       7.67107274      -0.00143293       0.00203171       0.00248320
Se       2.86259234       3.68547460       4.95815586      -0.00142711       0.00202687      -0.00248171
Se       4.42889597       1.47038671       7.67107328       0.00143476      -0.00202566       0.00248007
