9
Lattice="5.275058624591054 -1.3930940549053002e-07 3.045556412586935 1.7583527737147375 4.973372359493309 3.0455563602907625 7.83854043113497e-09 -5.850680750330432e-08 6.0911128115971565" Properties=species:S:1:pos:R:3:forces:R:3 energy=-40.04669952392578 free_energy=-40.04669952392578 stress="4.7557758080074564e-05 7.052336492563427e-09 -1.969247520605677e-08 7.052336492563427e-09 4.7665769670857117e-05 1.7538884122814125e-08 -1.969247520605677e-08 1.7538884122814125e-08 4.765700577991083e-05" pbc="T T T"
Fe       1.75835318       1.24334303       3.04555606       0.00000413      -0.00000056      -0.00000281
Fe       5.27505862       3.73002934       9.13666901       0.00000117       0.00000229      -0.00000081
Si       0.00000029       0.00000002       0.00000096      -0.00000295       0.00000053      -0.00001190
S        1.78955892       1.26540932       6.09111297      -0.00300056      -0.00211769      -0.00000262
S        5.24385256       3.70796336       6.09111288       0.00299424       0.00212044      -0.00000317
S        4.38027942       1.26540816       4.59536005       0.00149742      -0.00211585      -0.00259197
S        2.65313272       3.70796248       7.58686519      -0.00150082       0.00212505       0.00260019
S        2.65313173       3.70796361       4.59535927      -0.00149339       0.00211242      -0.00259101
S        4.38027821       1.26540928       7.58686565       0.00150105      -0.00212640       0.00260305
