9
Lattice="6.911329499983164 -2.1299132820186164e-07 3.9902581714598897 2.3037762882718895 6.516064045657542 3.9902581903606116 4.678167291453449e-08 5.6228197971975606e-08 7.980516261891546" Properties=species:S:1:pos:R:3:forces:R:3 energy=-24.74188232421875 free_energy=-24.74188232421875 stress="8.642333705211058e-05 -2.166919976787085e-09 1.3627687422967938e-08 -2.166919976787085e-09 8.641853492008522e-05 -1.8603623530566438e-08 1.3627687422967938e-08 -1.8603623530566438e-08 8.640919259050861e-05" pbc="T T T"
Fe       2.30377599       1.62901564       3.99025828       0.00000126      -0.00000221       0.00000056
Fe       6.91132983       4.88704831      11.97077427      -0.00000157       0.00000237      -0.00000067
Sr      -0.00000010       0.00000043       0.00000027       0.00000103      -0.00000374      -0.00000185
I        2.56792675       1.81579824       7.98051656      -0.00460620      -0.00325736      -0.00000027
I        6.64717896       4.70026532       7.98051625       0.00460748       0.00325763       0.00000006
I        5.62736631       1.81579791       6.21414821       0.00230362      -0.00325728      -0.00398738
I        3.58773975       4.70026576       9.74688404      -0.00230528       0.00326000       0.00399049
I        3.58773993       4.70026547       6.21414833      -0.00230451       0.00325919      -0.00399151
I        5.62736597       1.81579852       9.74688431       0.00230422      -0.00325864       0.00399052
