9
Lattice="2.8672950373071195 -0.5107300804683382 2.1230429302906835 1.0861212710175385 2.7937282192034454 2.06625986113181 -0.6156858999868479 -0.07882077806463932 4.417328276677683" Properties=species:S:1:pos:R:3:forces:R:3 energy=-905.863525390625 free_energy=-905.863525390625 stress="347.0293273925781 20.70289421081543 6.022497653961182 20.70289421081543 253.77391052246094 7.559774398803711 6.022497653961182 7.559774398803711 293.2607421875" pbc="T T T"
Fe       1.04894491       1.11406080       2.64517330   -1371.26354980    -192.72338867    -464.11791992
Fe       3.17426396       1.20831349       6.36747186    -777.55895996     475.22094727     476.77636719
S       -0.23384482      -0.06342124      -0.05264472    -354.80560303     366.93121338     147.85034180
F        0.30955783       1.02246896       4.14094021     106.88186646   -1126.62548828    -129.41183472
F        2.84349863       1.09913721       4.46633016     560.89947510     350.59317017    -192.08578491
F        1.85772680       0.84709854       2.76459162    1597.79382324   -1724.76586914     451.08575439
F        1.21771993       1.48633780       5.66773697     484.58538818     746.91918945     143.96849060
F        1.42785875       2.59466879       3.53665887     824.22583008    1006.23156738    -256.80780029
F        1.67645545      -0.44056507       4.94152988   -1070.75842285      98.21911621    -177.25732422
