9
Lattice="5.82064752287166 -2.5337662090423424e-08 3.360552425911745 1.9402158072885625 5.487759258464898 3.360552442851358 3.735477766007642e-08 4.716051763508695e-08 6.721104787123115" Properties=species:S:1:pos:R:3:forces:R:3 energy=-32.46458435058594 free_energy=-32.46458435058594 stress="0.0001628584141144529 -1.9350760993575022e-08 -4.706305389845511e-08 -1.9350760993575022e-08 0.00016285413585137576 1.6866229302081592e-08 -4.706305389845511e-08 1.6866229302081592e-08 0.00016290758503600955" pbc="T T T"
Fe       1.94021657       1.37193947       3.36055190       0.00000227      -0.00000217      -0.00000262
Fe       5.82064785       4.11581888      10.08165669      -0.00000103      -0.00000115      -0.00000465
Sn      -0.00000010      -0.00000011       0.00000025      -0.00000278       0.00000706      -0.00000558
Cl       1.97365549       1.39558561       6.72110496      -0.00180838      -0.00127682       0.00000100
Cl       5.78720769       4.09217395       6.72110496       0.00180638       0.00127871       0.00000186
Cl       4.83381941       1.39558547       5.06978851       0.00090428      -0.00127819      -0.00156690
Cl       2.92704354       4.09217423       8.37242148      -0.00090385       0.00127731       0.00156474
Cl       2.92704368       4.09217404       5.06978848      -0.00090273       0.00127600      -0.00156087
Cl       4.83381939       1.39558558       8.37242140       0.00090573      -0.00128084       0.00157301
