9
Lattice="5.773194119850096 -1.7078437751220656e-08 3.3331551774777886 1.9243980300460883 5.443019738578919 3.333155166742961 -1.64593895601972e-08 -2.478596579054555e-08 6.666310383464052" Properties=species:S:1:pos:R:3:forces:R:3 energy=-29.232555389404297 free_energy=-29.232555389404297 stress="-6.414401286747307e-05 -2.5154973215535392e-08 9.52276035803834e-09 -2.5154973215535392e-08 -6.417772965505719e-05 3.1797458888149777e-08 9.52276035803834e-09 3.1797458888149777e-08 -6.408633635146543e-05" pbc="T T T"
Fe       1.92439851       1.36075529       3.33315511       0.00000217       0.00000169      -0.00000169
Fe       5.77319412       4.08226458       9.99946532       0.00000069      -0.00000095      -0.00000203
Se      -0.00000018       0.00000008      -0.00000030       0.00000035      -0.00000098       0.00000129
Cl       1.93161186       1.36585594       6.66631044       0.00316100       0.00223704       0.00000055
Cl       5.76598006       4.07716363       6.66631047      -0.00316244      -0.00223644       0.00000103
Cl       4.80738793       1.36585599       5.00598044      -0.00157981       0.00223260       0.00273456
Cl       2.89020410       4.07716366       8.32664037       0.00157929      -0.00223337      -0.00273380
Cl       2.89020411       4.07716376       5.00598052       0.00157858      -0.00223468       0.00273579
Cl       4.80738805       1.36585587       8.32664052      -0.00157984       0.00223516      -0.00273564
