9
Lattice="6.036174274222545 -9.263705155605053e-08 3.4849869307932626 2.012058047665747 5.690959532829023 3.484986855280498 -8.63777241003196e-09 -9.859168852434847e-08 6.969973876547602" Properties=species:S:1:pos:R:3:forces:R:3 energy=-30.39366912841797 free_energy=-30.39366912841797 stress="-1.0555840162851382e-05 -1.912445535268148e-09 -9.485752183735485e-10 -1.912445535268148e-09 -1.0552806088526268e-05 -2.1983792564128635e-09 -9.485752183735485e-10 -2.1983792564128635e-09 -1.0536933586990926e-05" pbc="T T T"
Fe       2.01205882       1.42273873       3.48498715       0.00000126      -0.00000266       0.00000064
Fe       6.03617397       4.26821994      10.45495928       0.00000015       0.00000052      -0.00000491
Si      -0.00000013       0.00000009       0.00000017       0.00000002       0.00000072       0.00000066
Br       1.99573293       1.41119630       6.96997406      -0.00008786      -0.00006203       0.00000034
Br       6.05249921       4.27976323       6.96997414       0.00008678       0.00006197       0.00000144
Br       5.03830761       1.41119637       5.21334267       0.00004354      -0.00006256      -0.00007622
Br       3.00992477       4.27976334       8.72660522      -0.00004301       0.00006269       0.00007663
Br       3.00992445       4.27976318       5.21334270      -0.00004490       0.00006288      -0.00007569
Br       5.03830762       1.41119622       8.72660532       0.00004417      -0.00006161       0.00007717
