9
Lattice="6.504548922234128 1.3056541153665293e-07 3.7554031877334415 2.168183055358856 6.132547672235311 3.7554032601634106 3.199631346571371e-08 1.1133306232900169e-07 7.5108063200476325" Properties=species:S:1:pos:R:3:forces:R:3 energy=-25.79868507385254 free_energy=-25.79868507385254 stress="-5.261276237433776e-05 1.8286533398637062e-09 -9.637551867669458e-11 1.8286533398637062e-09 -5.262291961116716e-05 -1.0722929211226528e-08 -9.637551867669458e-11 -1.0722929211226528e-08 -5.2623665396822616e-05" pbc="T T T"
Fe       2.16818344       1.53313762       3.75540315       0.00000030       0.00000167       0.00000007
Fe       6.50454870       4.59941098      11.26620991      -0.00000221       0.00000039       0.00000086
Si       0.00000000      -0.00000002       0.00000008      -0.00000036      -0.00000044      -0.00000056
I        2.14946879       1.51990378       7.51080630      -0.00020204      -0.00014374      -0.00000023
I        6.52326306       4.61264394       7.51080629       0.00020447       0.00014479      -0.00000053
I        5.42981460       1.51990436       5.61689762       0.00010126      -0.00014329      -0.00017603
I        3.24291743       4.61264349       9.40471516      -0.00010087       0.00014216       0.00017571
I        3.24291736       4.61264359       5.61689764      -0.00010238       0.00014246      -0.00017570
I        5.42981461       1.51990397       9.40471488       0.00010181      -0.00014400       0.00017644
