9
Lattice="3.706984875258755 -2.7043759557315964e-05 2.140188175140265 1.2356372641802666 3.4949485656043735 2.1401862071540316 -3.3820103473144764e-05 -2.6324682843125164e-05 4.280434928404542" Properties=species:S:1:pos:R:3:forces:R:3 energy=-57.33720397949219 free_energy=-57.33720397949219 stress="0.0003769022587221116 5.3917636250844225e-05 0.00011637387797236443 5.3917636250844225e-05 0.0004962059902027249 8.383701788261533e-05 0.00011637387797236443 8.383701788261533e-05 0.0005208394140936434" pbc="T T T"
Fe       1.23615256       0.87384118       2.14096861      -0.00046771      -0.00018210      -0.00071674
Fe       3.70646403       2.62160041       6.41978427       0.00047043      -0.00052915       0.00079701
Si      -0.00000318      -0.00005879       0.00000571       0.00002803       0.00055744      -0.00008888
F        1.21919502       0.86187897       4.28024320      -0.00087166      -0.00034219      -0.00057196
F        3.72343949       2.63285673       4.28058720      -0.00071549       0.00016668       0.00029471
F        3.09718951       0.86187869       3.19597417      -0.00000930       0.00000528      -0.00075960
F        1.84536715       2.63284718       5.36489340       0.00056124       0.00050792      -0.00023574
F        1.84517034       2.63271920       3.19593049       0.00043920      -0.00006402       0.00041980
F        3.09737888       0.86201710       5.36485043       0.00056285      -0.00012085       0.00085461
