9
Lattice="5.757692534579465 2.401789668535899e-08 3.324205316979242 1.919230875661483 5.428404659435672 3.324205302850279 -1.2665122070050785e-08 -2.62599693841508e-08 6.648410655895126" Properties=species:S:1:pos:R:3:forces:R:3 energy=-28.64065933227539 free_energy=-28.64065933227539 stress="1.810702815419063e-05 2.6687976273365166e-08 4.6381818386009854e-09 2.6687976273365166e-08 1.8119266314897686e-05 1.9669235129526896e-09 4.6381818386009854e-09 1.9669235129526896e-09 1.808525121305138e-05" pbc="T T T"
Fe       1.91923080       1.35710114       3.32420521      -0.00000084       0.00000069      -0.00000021
Fe       5.75769285       4.07130360       9.97261587       0.00000081      -0.00000060      -0.00000029
S        0.00000009      -0.00000005       0.00000003       0.00000045      -0.00000048       0.00000015
Cl       1.90887403       1.34977777       6.64841067       0.00193751       0.00137052      -0.00000015
Cl       5.76804920       4.07862673       6.64841074      -0.00193816      -0.00136948      -0.00000099
Cl       4.80325565       1.34977758       4.97733853      -0.00097016       0.00137192       0.00168052
Cl       2.87366776       4.07862716       8.31948281       0.00097001      -0.00137189      -0.00168082
Cl       2.87366768       4.07862696       4.97733854       0.00097017      -0.00137162       0.00168118
Cl       4.80325550       1.34977772       8.31948275      -0.00096995       0.00137112      -0.00167942
