9
Lattice="6.158392303164969 4.5507890743756785e-08 3.5555496326249263 2.0527975012757986 5.806187551374833 3.5555495910864665 -1.9216155032554428e-07 -1.8675272744039913e-07 7.111099598083453" Properties=species:S:1:pos:R:3:forces:R:3 energy=-32.83987808227539 free_energy=-32.83987808227539 stress="0.0001059806309058331 -8.906960502486072e-09 8.09391487166522e-09 -8.906960502486072e-09 0.00010607863077893853 1.7201591262505644e-08 8.09391487166522e-09 1.7201591262505644e-08 0.00010596305219223723" pbc="T T T"
Fe       2.05279733       1.45154853       3.55555046      -0.00000008       0.00000888       0.00000257
Fe       6.15839363       4.35464053      10.66664732       0.00000629      -0.00000080      -0.00000801
Si      -0.00000004       0.00000009      -0.00000025       0.00000025       0.00000008      -0.00000024
Te       2.29465468       1.62256727       7.11110074      -0.00402249      -0.00283945       0.00000329
Te       5.91653460       4.18361999       7.11110119       0.00402110       0.00283884       0.00000763
Te       5.01106438       1.62256782       5.54277939       0.00200918      -0.00284024      -0.00348311
Te       3.20012512       4.18362114       8.67941877      -0.00201044       0.00284307       0.00348116
Te       3.20012415       4.18361880       5.54277919      -0.00201443       0.00283504      -0.00348340
Te       5.01106456       1.62256555       8.67941843       0.00201063      -0.00284539       0.00348005
