9
Lattice="4.159753848191371 -7.809594035206527e-08 2.401635012606427 1.3865845686694618 3.9218534081595084 2.4016349671656596 1.3682789191718903e-08 -4.5978162578637206e-08 4.803270001513585" Properties=species:S:1:pos:R:3:forces:R:3 energy=-51.99547576904297 free_energy=-51.99547576904297 stress="0.0002178578870370984 1.3825756095542374e-09 -6.683683295705123e-08 1.3825756095542374e-09 0.0002177595451939851 1.2569766738579347e-07 -6.683683295705123e-08 1.2569766738579347e-07 0.00021743771503679454" pbc="T T T"
Fe       1.38658435       0.98046308       2.40163511       0.00000003      -0.00000110      -0.00000061
Fe       4.15975381       2.94139018       7.20490491      -0.00000090      -0.00000003       0.00000009
S        0.00000008      -0.00000004       0.00000006       0.00000167       0.00000313       0.00000457
O        1.31438480       0.92941042       4.80326958      -0.00324857      -0.00229490       0.00000075
O        4.23195358       2.99244296       4.80327010       0.00324941       0.00229466       0.00000131
O        3.50256161       0.92941026       3.53992580       0.00162721      -0.00229883      -0.00281346
O        2.04377701       2.99244273       6.06661435      -0.00162810       0.00229764       0.00281334
O        2.04377714       2.99244327       3.53992561      -0.00162041       0.00229251      -0.00281096
O        3.50256122       0.92941038       6.06661440       0.00161928      -0.00229335       0.00280488
