9
Lattice="5.694843099995482 9.961947291015866e-09 3.287919283899006 1.898281007376739 5.369149414170303 3.28791934512225 -1.6994011232589538e-07 -4.5182913510043705e-08 6.5758388621428985" Properties=species:S:1:pos:R:3:forces:R:3 energy=-33.87507629394531 free_energy=-33.87507629394531 stress="-0.00028563261730596423 1.0012890960808818e-08 -1.6964229132554465e-08 1.0012890960808818e-08 -0.00028568110428750515 -2.2254289078205147e-08 -1.6964229132554465e-08 -2.2254289078205147e-08 -0.00028566026594489813" pbc="T T T"
Fe       1.89828058       1.34228731       3.28791951      -0.00000123      -0.00000349       0.00000304
Fe       5.69484319       4.02685941       9.86375938       0.00000226      -0.00001284       0.00000435
Si      -0.00000017       0.00000015      -0.00000023       0.00000103       0.00000194      -0.00000202
Cl       1.85511629       1.31176620       6.57583871      -0.00615457      -0.00434645       0.00000028
Cl       5.73800728       4.05738421       6.57583821       0.00615531       0.00435175      -0.00000240
Cl       4.76728511       1.31176624       4.89449720       0.00307715      -0.00434710      -0.00532976
Cl       2.82583920       4.05738398       8.25717972      -0.00307851       0.00435153       0.00532919
Cl       2.82583931       4.05738409       4.89449748      -0.00307669       0.00435042      -0.00532901
Cl       4.76728497       1.31176597       8.25717987       0.00307488      -0.00434574       0.00532609
