9
Lattice="4.544213877697752 -3.219537754572619e-08 2.623603087057887 1.5147379294652574 4.284326010239347 2.623603086041588 -8.737599851694025e-09 -7.423131043010765e-09 5.247206189249734" Properties=species:S:1:pos:R:3:forces:R:3 energy=-39.04914093017578 free_energy=-39.04914093017578 stress="0.00047696364345028996 -1.9334196466047615e-08 -5.324599072764613e-08 -1.9334196466047615e-08 0.0004769015940837562 2.0598431405005613e-08 -5.324599072764613e-08 2.0598431405005613e-08 0.00047695793909952044" pbc="T T T"
Fe       1.51473769       1.07108180       2.62360308      -0.00000200       0.00000112       0.00000040
Fe       4.54421377       3.21324427       7.87080944      -0.00000047      -0.00000110       0.00000092
S        0.00000004      -0.00000008      -0.00000010       0.00000285      -0.00000302      -0.00000197
F        1.56733570       1.10827358       5.24720609      -0.00578892      -0.00409284       0.00000030
F        4.49161622       3.17605220       5.24720613       0.00578943       0.00409447      -0.00000022
F        3.76054616       1.10827399       3.98095558       0.00289587      -0.00409272      -0.00501367
F        2.29840560       3.17605203       6.51345690      -0.00289650       0.00409460       0.00501561
F        2.29840580       3.17605212       3.98095557      -0.00289519       0.00409281      -0.00501405
F        3.76054621       1.10827391       6.51345681       0.00289494      -0.00409336       0.00501296
