9
Lattice="3.9777622058254973 3.4471998115358694e-07 2.2965624751895555 1.3259211058522555 3.750269298742213 2.296562396256629 2.632826198978817e-07 8.949627182218512e-08 4.59312449436019" Properties=species:S:1:pos:R:3:forces:R:3 energy=-28.400447845458984 free_energy=-28.400447845458984 stress="5.475485886563547e-05 -1.7120870055009618e-08 -1.640727873564174e-07 -1.7120870055009618e-08 5.503721331479028e-05 1.1373209929388395e-07 -1.640727873564174e-07 1.1373209929388395e-07 5.399302244768478e-05" pbc="T T T"
Fe       1.32592047       0.93756644       2.29656314      -0.00000934      -0.00000762      -0.00000472
Fe       3.97776336       2.81270235       6.88968751      -0.00001033      -0.00000475       0.00000075
Se      -0.00000071      -0.00000081       0.00000008       0.00002872       0.00001393       0.00000713
F        1.53725635       1.08700351       4.59312250       0.00043923       0.00029582      -0.00002389
F        3.76642707       2.66326673       4.59312618      -0.00046235      -0.00031173       0.00001922
F        3.20913727       1.08700347       3.62786651      -0.00018826       0.00031289       0.00041249
F        2.09454639       2.66326653       5.55838192       0.00019121      -0.00029904      -0.00040913
F        2.09455063       2.66326572       3.62786334       0.00025161      -0.00031999       0.00036469
F        3.20913317       1.08700492       5.55838581      -0.00024131       0.00031912      -0.00036687
