9
Lattice="6.081313076617801 4.97492610935526e-08 3.511047654711508 2.027104400824669 5.733516833566039 3.5110476632886503 -1.3696843767534044e-08 8.196643214611786e-10 7.022095333146662" Properties=species:S:1:pos:R:3:forces:R:3 energy=-35.325626373291016 free_energy=-35.325626373291016 stress="-5.1532719226088375e-05 6.836269328402977e-09 -1.369151103602917e-08 6.836269328402977e-09 -5.1586044719442725e-05 6.9019301385253584e-09 -1.369151103602917e-08 6.9019301385253584e-09 -5.158637577551417e-05" pbc="T T T"
Fe       2.02710433       1.43337899       3.51104746       0.00000027      -0.00000053      -0.00000055
Fe       6.08131322       4.30013783      10.53314347      -0.00000087       0.00000116       0.00000037
Sc      -0.00000020      -0.00000006      -0.00000042       0.00000176       0.00000461       0.00000688
Br       2.10411442       1.48783357       7.02209542      -0.00320815      -0.00226931       0.00000090
Br       6.00430328       4.24568341       7.02209526       0.00320531       0.00226683       0.00000065
Br       5.02925598       1.48783359       5.33326391       0.00160450      -0.00226912      -0.00277850
Br       3.07916133       4.24568347       8.71092691      -0.00160061       0.00226349       0.00277316
Br       3.07916138       4.24568351       5.33326369      -0.00160297       0.00226757      -0.00277603
Br       5.02925612       1.48783322       8.71092689       0.00160068      -0.00226473       0.00277328
