9
Lattice="6.6324717549047385 -3.5129850381895355e-08 3.829259416115592 2.2108238704613687 6.253154494891221 3.8292594416104277 1.6061109023971333e-08 4.2581581306435416e-08 7.658518804412522" Properties=species:S:1:pos:R:3:forces:R:3 energy=-24.735376358032227 free_energy=-24.735376358032227 stress="-4.376433935249224e-05 -1.7979476796270433e-09 1.3459361403178605e-09 -1.7979476796270433e-09 -4.376005017547868e-05 -3.998322117837461e-09 1.3459361403178605e-09 -3.998322117837461e-09 -4.375737262307666e-05" pbc="T T T"
Fe       2.21082354       1.56328880       3.82925910      -0.00000104       0.00000054      -0.00000051
Fe       6.63247163       4.68986556      11.48777835       0.00000002      -0.00000137       0.00000034
Sn       0.00000016       0.00000028       0.00000010       0.00000159      -0.00000067       0.00000263
I        2.31174539       1.63465095       7.65851879      -0.00057316      -0.00040542       0.00000043
I        6.53155018       4.61850334       7.65851870       0.00057259       0.00040469      -0.00000058
I        5.47659912       1.63465125       5.83129011       0.00028832      -0.00040619      -0.00049672
I        3.36669670       4.61850341       9.48574760      -0.00028757       0.00040614       0.00049657
I        3.36669668       4.61850337       5.83128992      -0.00028655       0.00040648      -0.00049723
I        5.47659919       1.63465104       9.48574798       0.00028580      -0.00040418       0.00049508
