9
Lattice="6.104026254122376 5.559855199094733e-08 3.524161170532308 2.034675475167826 5.754931166383326 3.5241611623774216 -4.2406308043153697e-08 -3.997344302488299e-08 7.0483224145144625" Properties=species:S:1:pos:R:3:forces:R:3 energy=-29.605560302734375 free_energy=-29.605560302734375 stress="-2.0917186702718027e-05 3.106877599634572e-08 -1.954020500960496e-09 3.106877599634572e-08 -2.092899740091525e-05 4.5553302796541573e-10 -1.954020500960496e-09 4.5553302796541573e-10 -2.0962843336747028e-05" pbc="T T T"
Fe       2.03467541       1.43873279       3.52416132       0.00000054      -0.00000094       0.00000057
Fe       6.10402644       4.31619840      10.57248319       0.00000026       0.00000010      -0.00000178
Sn       0.00000030       0.00000026       0.00000021      -0.00000610      -0.00000383       0.00000159
Br       2.10253875       1.48671961       7.04832229      -0.00411032      -0.00290532       0.00000054
Br       6.03616256       4.26821141       7.04832251       0.00411670       0.00291038      -0.00000018
Br       5.05275688       1.48671924       5.34501307       0.00205517      -0.00290611      -0.00355914
Br       3.08594486       4.26821177       8.75163159      -0.00205522       0.00290549       0.00355870
Br       3.08594461       4.26821191       5.34501318      -0.00205515       0.00290644      -0.00355890
Br       5.05275690       1.48671932       8.75163160       0.00205414      -0.00290620       0.00355855
