9
Lattice="5.846531659113712 9.051196969495005e-08 3.3754967334436032 1.9488439989929158 5.512162895218413 3.3754966861825624 -2.3746747788739306e-08 -7.467417554686985e-08 6.7509935080177765" Properties=species:S:1:pos:R:3:forces:R:3 energy=-29.477014541625977 free_energy=-29.477014541625977 stress="7.087289122864604e-05 -1.6225516930035155e-08 5.061651009441448e-08 -1.6225516930035155e-08 7.087946141837165e-05 2.6507809280928996e-09 5.061651009441448e-08 2.6507809280928996e-09 7.088977145031095e-05" pbc="T T T"
Fe       1.94884441       1.37804044       3.37549713       0.00000381      -0.00000132       0.00000578
Fe       5.84653217       4.13412160      10.12648883       0.00000290      -0.00000412      -0.00001096
Sr       0.00000016      -0.00000012       0.00000066      -0.00000650       0.00000538      -0.00001007
Cl       2.14194907       1.51458721       6.75099393      -0.00216957      -0.00152996       0.00000040
Cl       5.65342626       3.99757524       6.75099455       0.00217042       0.00153422       0.00000470
Cl       4.77555621       1.51458747       5.23047882       0.00108090      -0.00153379      -0.00187876
Cl       3.01981882       3.99757683       8.27150763      -0.00108390       0.00153643       0.00187583
Cl       3.01981840       3.99757549       5.23047916      -0.00108503       0.00153064      -0.00187274
Cl       4.77555699       1.51458739       8.27150704       0.00108712      -0.00153741       0.00188583
