9
Lattice="5.756814412479335 1.6627226549931523e-07 3.3236981931791085 1.9189382472278478 5.427578329635481 3.3236982746344377 2.554794054145043e-08 1.1782712337063896e-07 6.647396342107915" Properties=species:S:1:pos:R:3:forces:R:3 energy=-28.640640258789062 free_energy=-28.640640258789062 stress="-3.309568637632765e-05 -9.273024126343898e-09 9.23543602704413e-11 -9.273024126343898e-09 -3.3020911359926686e-05 1.9931425399022373e-08 9.23543602704413e-11 1.9931425399022373e-08 -3.310836837044917e-05" pbc="T T T"
Fe       1.91893860       1.35689477       3.32369734       0.00000167       0.00000373      -0.00000437
Fe       5.75681228       4.07068233       9.97109447      -0.00000751      -0.00000447      -0.00000142
S       -0.00000001      -0.00000060       0.00000059       0.00000161       0.00000399      -0.00000440
Cl       1.90946503       1.35019659       6.64739686      -0.00671074      -0.00474662       0.00000272
Cl       5.76628861       4.07738265       6.64739618       0.00670859       0.00474274       0.00000042
Cl       4.80208199       1.35019645       4.97734275       0.00335622      -0.00474507      -0.00581220
Cl       2.87367147       4.07738225       8.31745053      -0.00335282       0.00474697       0.00581589
Cl       2.87367078       4.07738321       4.97734282      -0.00335392       0.00474516      -0.00581083
Cl       4.80208185       1.35019675       8.31744975       0.00335689      -0.00474659       0.00581419
