9
Lattice="5.980724203886745 -5.115921430326595e-08 3.4529727898154183 1.9935746896210758 5.638680881001733 3.452972784228616 1.0879892564676808e-08 8.508607108503603e-10 6.905945560786283" Properties=species:S:1:pos:R:3:forces:R:3 energy=-26.259986877441406 free_energy=-26.259986877441406 stress="-6.462030432885513e-05 -8.72677041741099e-09 -8.412270879887274e-09 -8.72677041741099e-09 -6.461863085860386e-05 8.337549317616322e-09 -8.412270879887274e-09 8.337549317616322e-09 -6.462242890847847e-05" pbc="T T T"
Fe       1.99357482       1.40967007       3.45297268       0.00000047       0.00000003       0.00000009
Fe       5.98072421       4.22901064      10.35891862       0.00000058       0.00000020      -0.00000035
S       -0.00000005      -0.00000004       0.00000014       0.00000023      -0.00000010      -0.00000033
Br       2.06000553       1.45664392       6.90594556      -0.00005651      -0.00003958      -0.00000042
Br       5.91429340       4.18203693       6.90594557       0.00005621       0.00004008      -0.00000033
Br       4.95072138       1.45664387       5.23698998       0.00002755      -0.00004022      -0.00004946
Br       3.02357744       4.18203695       8.57490101      -0.00002867       0.00004059       0.00004989
Br       3.02357744       4.18203707       5.23698995      -0.00002801       0.00003932      -0.00004888
Br       4.95072140       1.45664391       8.57490100       0.00002827      -0.00004040       0.00004983
