9
Lattice="4.18134664674632 -2.111386733112786e-09 2.414101587472187 1.3937822167455225 3.9422114674314797 2.4141015820092124 -2.3942266809343014e-08 -2.36204828914067e-08 4.828203216413596" Properties=species:S:1:pos:R:3:forces:R:3 energy=-47.899513244628906 free_energy=-47.899513244628906 stress="-0.00034310214687138796 -1.1107982089697543e-07 1.6447897266402833e-08 -1.1107982089697543e-07 -0.00034277475788258016 1.4856557584153052e-07 1.6447897266402833e-08 1.4856557584153052e-07 -0.00034315892844460905" pbc="T T T"
Fe       1.39378228       0.98555292       2.41410170       0.00000074      -0.00000077       0.00000357
Fe       4.18134649       2.95665845       7.24230505       0.00000156      -0.00000221      -0.00000211
Se       0.00000015      -0.00000013       0.00000032       0.00000061       0.00001216      -0.00001138
O        1.42083731       1.00468386       4.82820314      -0.00117719      -0.00083429      -0.00000036
O        4.15429165       2.93752773       4.82820312       0.00117016       0.00082898      -0.00000034
O        3.47092799       1.00468382       3.64458277       0.00058663      -0.00083137      -0.00102186
O        2.10420079       2.93752774       6.01182341      -0.00058830       0.00083464       0.00102329
O        2.10420090       2.93752777       3.64458266      -0.00058520       0.00082964      -0.00101852
O        3.47092784       1.00468364       6.01182326       0.00059062      -0.00083685       0.00102663
