9
Lattice="5.774428554252149 2.8050710937154625e-07 3.3338676209060156 1.9248098245292122 5.444182940064504 3.3338675481936306 1.253956380580373e-07 -3.860213278955968e-10 6.66773502462041" Properties=species:S:1:pos:R:3:forces:R:3 energy=-29.232528686523438 free_energy=-29.232528686523438 stress="0.00041872303700074553 -8.513849181213118e-09 -1.8747044805422775e-08 -8.513849181213118e-09 0.00041876008617691696 -6.354803794295094e-09 -1.8747044805422775e-08 -6.354803794295094e-09 0.00041874696034938097" pbc="T T T"
Fe       1.92480912       1.36104602       3.33386811      -0.00000165       0.00000120       0.00000206
Fe       5.77442869       4.08313681      10.00160206       0.00000020      -0.00000306      -0.00000237
Se      -0.00000005      -0.00000008      -0.00000001       0.00000068      -0.00000031       0.00000199
Cl       1.93181339       1.36599839       6.66773486       0.00092585       0.00065418      -0.00000101
Cl       5.76742523       4.07818486       6.66773535      -0.00092523      -0.00065343       0.00000049
Cl       4.80852199       1.36599862       5.00686697      -0.00046137       0.00065354       0.00079989
Cl       2.89071672       4.07818483       8.32860317       0.00046120      -0.00065227      -0.00079954
Cl       2.89071655       4.07818433       5.00686698       0.00046167      -0.00065351       0.00079823
Cl       4.80852232       1.36599911       8.32860321      -0.00046133       0.00065368      -0.00079957
