9
Lattice="5.058360843881387 -2.044702207266703e-07 2.9204459995019425 1.6861202025838604 4.769067810372765 2.9204458019330373 1.908687795712384e-08 -2.284749933209967e-07 5.840891965944458" Properties=species:S:1:pos:R:3:forces:R:3 energy=-42.74201583862305 free_energy=-42.74201583862305 stress="7.2965704021044075e-06 -2.7147587289277908e-08 -2.3439207907927084e-08 -2.7147587289277908e-08 7.2315961006097496e-06 4.862260993832024e-08 -2.3439207907927084e-08 4.862260993832024e-08 7.325866135943215e-06" pbc="T T T"
Fe       1.68612255       1.19226982       2.92044489       0.00000850       0.00000769      -0.00000414
Fe       5.05835916       3.57679714       8.76133790      -0.00000557      -0.00000973       0.00000083
Sn       0.00000016       0.00000001      -0.00000003       0.00000277      -0.00000471       0.00000518
F        1.63799530       1.15823791       5.84089263      -0.00058163      -0.00040736       0.00000139
F        5.10648580       3.61082984       5.84089177       0.00058091       0.00040754      -0.00000045
F        4.23936242       1.15823857       4.33899072       0.00029011      -0.00040686      -0.00050800
F        2.50511832       3.61082871       7.34279273      -0.00029185       0.00040873       0.00050971
F        2.50511841       3.61082979       4.33899147      -0.00029060       0.00040915      -0.00050730
F        4.23936209       1.15823787       7.34279280       0.00028733      -0.00040448       0.00050276
