9
Lattice="6.6298693254874195 -2.0011539678866155e-07 3.8277568321420015 2.2099562200693743 6.250700918082948 3.827756889454126 -9.343142602864829e-08 4.126739133395117e-09 7.6555138261120135" Properties=species:S:1:pos:R:3:forces:R:3 energy=-30.601316452026367 free_energy=-30.601316452026367 stress="-2.7562489776755683e-05 -2.3968784290673284e-08 6.87527013099043e-09 -2.3968784290673284e-08 -2.752948239503894e-05 -1.0005070549823358e-08 6.87527013099043e-09 -1.0005070549823358e-08 -2.753374610620085e-05" pbc="T T T"
Fe       2.20995677       1.56267532       3.82775675       0.00000176       0.00000027      -0.00000077
Fe       6.62986874       4.68802532      11.48327054      -0.00000124       0.00000024       0.00000014
Sc       0.00000002      -0.00000016       0.00000015      -0.00000107       0.00000108       0.00000179
I        2.30160634       1.62748182       7.65551366      -0.00122998      -0.00086931       0.00000016
I        6.53821898       4.62321908       7.65551366       0.00122982       0.00086907       0.00000038
I        5.47906600       1.62748203       5.82100701       0.00061569      -0.00087076      -0.00106675
I        3.36075958       4.62321912       9.49002076      -0.00061433       0.00086964       0.00106538
I        3.36075981       4.62321874       5.82100690      -0.00061582       0.00087088      -0.00106711
I        5.47906559       1.62748162       9.49002076       0.00061524      -0.00087110       0.00106688
