9
Lattice="6.446258826048439 -6.380458755882879e-08 3.721749284281684 2.1487529248258554 6.0775908904372145 3.7217492098636407 9.184463378064557e-08 -2.6199230488242095e-08 7.443498409483882" Properties=species:S:1:pos:R:3:forces:R:3 energy=-22.419736862182617 free_energy=-22.419736862182617 stress="-4.8389516450697556e-05 3.651584590258494e-10 -8.104876769721159e-09 3.651584590258494e-10 -4.835700019611977e-05 6.7160899064333535e-09 -8.104876769721159e-09 6.7160899064333535e-09 -4.837436426896602e-05" pbc="T T T"
Fe       2.14875262       1.51939847       3.72174998      -0.00000203       0.00000366       0.00000225
Fe       6.44625968       4.55819239      11.16524705       0.00000285      -0.00000392      -0.00000152
S       -0.00000042       0.00000013       0.00000026      -0.00000072      -0.00000013       0.00000263
I        2.25652403       1.59560393       7.44349805       0.00186142       0.00131747      -0.00000273
I        6.33848793       4.48198706       7.44349884      -0.00186087      -0.00131735       0.00000144
I        5.31799676       1.59560397       5.67595667      -0.00093040       0.00131634       0.00161153
I        3.27701484       4.48198674       9.21103995       0.00092850      -0.00131677      -0.00161345
I        3.27701499       4.48198678       5.67595665       0.00093039      -0.00131716       0.00161193
I        5.31799698       1.59560371       9.21104011      -0.00092912       0.00131781      -0.00161213
