9
Lattice="5.482522385683213 -1.494039373412564e-08 3.16533580096039 1.8275074107879417 5.16897175865474 3.1653358650818157 -1.0012122545252077e-07 7.735983501249988e-09 6.33067177533581" Properties=species:S:1:pos:R:3:forces:R:3 energy=-36.60471725463867 free_energy=-36.60471725463867 stress="1.325280300079612e-05 -1.317253595090051e-08 -2.8320220835098553e-08 -1.317253595090051e-08 1.322368552791886e-05 5.897411625710447e-08 -2.8320220835098553e-08 5.897411625710447e-08 1.3231140655989293e-05" pbc="T T T"
Fe       1.82750760       1.29224300       3.16533619       0.00000178      -0.00000001      -0.00000036
Fe       5.48252285       3.87672916       9.49600647       0.00000390       0.00000234      -0.00000637
Se       0.00000016       0.00000015      -0.00000023       0.00000534      -0.00000846      -0.00000999
S        1.75135712       1.23839631       6.33067358      -0.00256123      -0.00181419       0.00001085
S        5.55867326       3.93057474       6.33067360       0.00256650       0.00180832       0.00001194
S        4.60684225       1.23839641       4.68205450       0.00126857      -0.00180748      -0.00222191
S        2.70318503       3.93057591       7.97928684      -0.00129174       0.00182225       0.00222191
S        2.70318618       3.93057532       4.68205539      -0.00127757       0.00180952      -0.00222026
S        4.60684432       1.23839593       7.97928753       0.00128466      -0.00181246       0.00221418
