9
Lattice="6.447398832947343 5.2123175999831526e-08 3.7224073305295047 2.149133015521488 6.078665917021604 3.722407292314392 6.721214939221664e-08 7.223927929124861e-10 7.4448145446441485" Properties=species:S:1:pos:R:3:forces:R:3 energy=-22.419734954833984 free_energy=-22.419734954833984 stress="7.281795114977285e-05 7.461083306736782e-09 -9.586305083075786e-10 7.461083306736782e-09 7.282652950379997e-05 2.236045792969321e-09 -9.586305083075786e-10 2.236045792969321e-09 7.280944555532187e-05" pbc="T T T"
Fe       2.14913336       1.51966620       3.72240765       0.00000048       0.00000027       0.00000122
Fe       6.44739974       4.55899991      11.16722318       0.00000300       0.00000084       0.00000356
S       -0.00000000      -0.00000015       0.00000007       0.00000064       0.00000019      -0.00000233
I        2.25700597       1.59594423       7.44481451       0.00128958       0.00091194      -0.00000046
I        6.33952566       4.48272180       7.44481415      -0.00128940      -0.00091214      -0.00000093
I        5.31889573       1.59594412       5.67703129      -0.00064649       0.00091209       0.00111698
I        3.27763570       4.48272192       9.21259719       0.00064377      -0.00091156      -0.00111711
I        3.27763576       4.48272179       5.67703140       0.00064383      -0.00091290       0.00111614
I        5.31889575       1.59594408       9.21259729      -0.00064536       0.00091134      -0.00111708
