9
Lattice="6.251130443567446 1.340250920360978e-07 3.609091907615595 2.083710194178488 5.8936222946575745 3.6090920462443727 3.761905584206959e-08 1.963855671554247e-07 7.218183750073093" Properties=species:S:1:pos:R:3:forces:R:3 energy=-27.520729064941406 free_energy=-27.520729064941406 stress="4.809731399291195e-05 -1.4615201493484165e-08 -7.464780793497994e-09 -1.4615201493484165e-08 4.813106716028415e-05 2.1850775411280665e-08 -7.464780793497994e-09 2.1850775411280665e-08 4.8169047659030184e-05" pbc="T T T"
Fe       2.08371027       1.47340498       3.60909150       0.00000036      -0.00000168      -0.00000075
Fe       6.25113058       4.42021699      10.82727651      -0.00000028      -0.00000173       0.00000088
Sr      -0.00000027      -0.00000039       0.00000020       0.00000450       0.00000824       0.00000593
Br       2.31119971       1.63426550       7.21818361      -0.00068120      -0.00048107       0.00000116
Br       6.02364101       4.25935778       7.21818377       0.00067479       0.00047722      -0.00000134
Br       5.09553014       1.63426580       5.61065008       0.00034248      -0.00048283      -0.00059149
Br       3.23931055       4.25935705       8.82571747      -0.00034016       0.00048061       0.00058778
Br       3.23931031       4.25935718       5.61065012      -0.00033940       0.00048307      -0.00058887
Br       5.09553036       1.63426565       8.82571752       0.00033904      -0.00048175       0.00058667
