9
Lattice="6.592547307190367 2.177333286277114e-08 3.8062088383455936 2.1975157771658616 6.21551293096416 3.806208859867479 -7.38175557200542e-08 -2.583804764703135e-08 7.612417804546923" Properties=species:S:1:pos:R:3:forces:R:3 energy=-22.237829208374023 free_energy=-22.237829208374023 stress="1.8866827304009348e-05 4.291293098646065e-09 8.524559946820887e-10 4.291293098646065e-09 1.8872344298870303e-05 -2.96402236088511e-09 8.524559946820887e-10 -2.96402236088511e-09 1.8869832274504006e-05" pbc="T T T"
Fe       2.19751555       1.55387864       3.80620866       0.00000001       0.00000072      -0.00000162
Fe       6.59254796       4.66163435      11.41862659       0.00000171      -0.00000009       0.00000171
Se       0.00000008       0.00000001      -0.00000026      -0.00000045       0.00000037       0.00000053
I        2.31841424       1.63936649       7.61241788       0.00155315       0.00109857      -0.00000016
I        6.47164862       4.57614645       7.61241788      -0.00155297      -0.00109899      -0.00000010
I        5.43334016       1.63936633       5.81401459      -0.00077650       0.00109830       0.00134517
I        3.35672257       4.57614665       9.41082095       0.00077543      -0.00109862      -0.00134538
I        3.35672281       4.57614657       5.81401471       0.00077592      -0.00109833       0.00134547
I        5.43334009       1.63936629       9.41082100      -0.00077629       0.00109795      -0.00134562
