9
Lattice="4.998783507704135 5.3176121975729434e-08 2.886049075831717 1.6662612187416062 4.712898627786323 2.886049076919501 7.49191224043189e-08 5.4308050576038846e-08 5.772098021899803" Properties=species:S:1:pos:R:3:forces:R:3 energy=-38.91302490234375 free_energy=-38.91302490234375 stress="0.0002801275113597512 5.085347609679047e-08 -4.9408303226528005e-08 5.085347609679047e-08 0.0002799884823616594 2.4515482976994463e-09 -4.9408303226528005e-08 2.4515482976994463e-09 0.00028026752988807857" pbc="T T T"
Fe       1.66626156       1.17822581       2.88604987       0.00000664       0.00000865       0.00000845
Fe       4.99878278       3.53467294       8.65814873      -0.00000611      -0.00000815       0.00001171
Sr       0.00000015       0.00000003       0.00000022      -0.00000370      -0.00000079       0.00000684
F        1.80654350       1.27741927       5.77209762       0.00112135       0.00079430      -0.00000476
F        4.85850107       3.43547958       5.77209739      -0.00111866      -0.00079128      -0.00000703
F        4.09551165       1.27742037       4.45056053      -0.00056169       0.00080006       0.00095986
F        2.56953298       3.43547867       7.09363516       0.00055963      -0.00079937      -0.00096722
F        2.56953296       3.43547923       4.45056135       0.00056196      -0.00079612       0.00096580
F        4.09551254       1.27741908       7.09363412      -0.00055959       0.00079267      -0.00097357
