9
Lattice="4.871619325739829 2.1503301816578823e-07 2.8126302800974456 1.6238732667536444 4.593006669281224 2.812630357279941 9.581910230827933e-09 1.0130434461234214e-07 5.62526054359851" Properties=species:S:1:pos:R:3:forces:R:3 energy=-50.71004867553711 free_energy=-50.71004867553711 stress="-0.00015779049135744572 6.267131169579443e-08 -4.144683174445163e-08 6.267131169579443e-08 -0.00015785008145030588 2.778949870219094e-08 -4.144683174445163e-08 2.778949870219094e-08 -0.0001579780364409089" pbc="T T T"
Fe       1.62387249       1.14825099       2.81262920      -0.00000206      -0.00000171       0.00000037
Fe       4.87162010       3.44475574       8.43789249       0.00000165       0.00000053       0.00000500
Ti      -0.00000019      -0.00000021      -0.00000071       0.00000193       0.00000676       0.00001242
F        1.55820136       1.10181445       5.62525958       0.00586975       0.00415005       0.00000363
F        4.93729134       3.49119242       5.62526134      -0.00587279      -0.00415130      -0.00000301
F        4.09251892       1.10181566       4.16207100      -0.00293101       0.00415134       0.00508299
F        2.40297361       3.49119250       7.08845031       0.00293726      -0.00416045      -0.00509480
F        2.40297313       3.49119244       4.16207174       0.00293773      -0.00415063       0.00509009
F        4.09251959       1.10181397       7.08844964      -0.00294256       0.00415535      -0.00509670
