9
Lattice="5.6717067953547184 -9.160460194403512e-08 3.2745614405387435 1.890568841792498 5.347336405038326 3.27456144682044 -1.9964024321174188e-08 -6.423223738091413e-09 6.549122915656185" Properties=species:S:1:pos:R:3:forces:R:3 energy=-38.767154693603516 free_energy=-38.767154693603516 stress="-4.555076884571463e-05 1.0671927230809786e-10 -8.650367089302335e-10 1.0671927230809786e-10 -4.5565084292320535e-05 1.0318944809739605e-08 -8.650367089302335e-10 1.0318944809739605e-08 -4.5552373194368556e-05" pbc="T T T"
Fe       1.89056868       1.33683429       3.27456113      -0.00000075       0.00000140      -0.00000126
Fe       5.67170636       4.01050248       9.82368455      -0.00000364       0.00000145       0.00000394
Ti      -0.00000019      -0.00000009      -0.00000010       0.00000257       0.00000256      -0.00000408
Cl       1.92664561       1.36234406       6.54912303      -0.00069358      -0.00049051      -0.00000088
Cl       5.63563007       3.98499234       6.54912300       0.00069147       0.00048740      -0.00000129
Cl       4.70838420       1.36234378       4.94308547       0.00034837      -0.00048965      -0.00060185
Cl       2.85389184       3.98499214       8.15516027      -0.00034755       0.00049159       0.00060278
Cl       2.85389191       3.98499223       4.94308543      -0.00034473       0.00048752      -0.00060011
Cl       4.70838400       1.36234399       8.15516035       0.00034779      -0.00049184       0.00060263
