9
Lattice="6.582304400410233 4.325310507846659e-08 3.800295085442202 2.194101457858358 6.205855816842827 3.8002951715675426 -1.2031820687916095e-07 2.0403768549125108e-08 7.600590379281673" Properties=species:S:1:pos:R:3:forces:R:3 energy=-30.803565979003906 free_energy=-30.803565979003906 stress="6.0923081036889926e-05 6.00926384208833e-08 1.612029620901012e-08 6.00926384208833e-08 6.0883401602040976e-05 -2.7705299388003368e-08 1.612029620901012e-08 -2.7705299388003368e-08 6.084625420044176e-05" pbc="T T T"
Fe       2.19410210       1.55146351       3.80029546       0.00000070      -0.00000205       0.00000091
Fe       6.58230379       4.65439190      11.40088544      -0.00000003       0.00000078      -0.00000082
Ti       0.00000071      -0.00000039      -0.00000159      -0.00000878       0.00000453       0.00001518
I        2.22528876       1.57351695       7.60059037      -0.00776945      -0.00549364       0.00000048
I        6.55111712       4.63233865       7.60059038       0.00777079       0.00549670      -0.00000008
I        5.46966002       1.57351642       5.72745205       0.00388490      -0.00549564      -0.00673242
I        3.30674479       4.63234070       9.47372980      -0.00387711       0.00548458       0.00671740
I        3.30674549       4.63233939       5.72745159      -0.00388278       0.00549330      -0.00672702
I        5.46966015       1.57351637       9.47372905       0.00388179      -0.00548846       0.00672618
