9
Lattice="6.0953215042671385 -8.941831801960368e-09 3.5191355261011275 2.031773826817738 5.746724251620824 3.5191355252481564 -4.90515286572717e-09 -4.513136313613683e-09 7.038271060698225" Properties=species:S:1:pos:R:3:forces:R:3 energy=-35.37627410888672 free_energy=-35.37627410888672 stress="-1.7781183487386443e-05 1.8799586332107765e-09 4.879651682720976e-10 1.8799586332107765e-09 -1.7773514628061093e-05 9.408648971032108e-09 4.879651682720976e-10 9.408648971032108e-09 -1.7792097423807718e-05" pbc="T T T"
Fe       2.03177385       1.43668097       3.51913550      -0.00000061       0.00000048      -0.00000037
Fe       6.09532147       4.31004316      10.55740658       0.00000079      -0.00000064      -0.00000029
Ti      -0.00000007       0.00000006       0.00000006       0.00000031       0.00000033       0.00000080
Br       2.04655633       1.44713387       7.03827106       0.00014441       0.00010212      -0.00000007
Br       6.08053896       4.29959043       7.03827105      -0.00014391      -0.00010219       0.00000035
Br       5.07204333       1.44713386       5.29150532      -0.00007182       0.00010155       0.00012504
Br       3.05505206       4.29959034       8.78503671       0.00007126      -0.00010191      -0.00012461
Br       3.05505207       4.29959036       5.29150540       0.00007138      -0.00010208       0.00012527
Br       5.07204331       1.44713389       8.78503677      -0.00007189       0.00010239      -0.00012626
