9
Lattice="6.437642803263019 -6.985311864655809e-08 3.7167749424111896 2.1458808424843046 6.069467884039982 3.7167749875805405 -6.966871402015101e-08 6.057715276206396e-09 7.433550005492123" Properties=species:S:1:pos:R:3:forces:R:3 energy=-30.54243278503418 free_energy=-30.54243278503418 stress="-3.586792081478052e-05 7.171398141991858e-09 -2.6419717524817088e-09 7.171398141991858e-09 -3.587328683352098e-05 3.062453846069957e-09 -2.6419717524817088e-09 3.062453846069957e-09 -3.587305764085613e-05" pbc="T T T"
Fe       2.14588129       1.51736780       3.71677495       0.00000033       0.00000403      -0.00000085
Fe       6.43764275       4.55210039      11.15032375       0.00000035      -0.00000314      -0.00000399
V        0.00000006      -0.00000014       0.00000008      -0.00000079      -0.00000053      -0.00000023
I        2.18487969       1.54494351       7.43355015       0.00062436       0.00044210      -0.00000041
I        6.39864364       4.52452438       7.43355018      -0.00062332      -0.00044103       0.00000135
I        5.34520284       1.54494308       5.60893690      -0.00031276       0.00044194       0.00054058
I        3.23832075       4.52452432       9.25816352       0.00031178      -0.00044174      -0.00053850
I        3.23832060       4.52452454       5.60893668       0.00031188      -0.00044347       0.00054120
I        5.34520266       1.54494343       9.25816354      -0.00031164       0.00044174      -0.00053900
