9
Lattice="5.640656461859426 -9.466716908310432e-08 3.2566344897879755 1.8802186989631653 5.318061971335962 3.2566345459126453 -1.065468451020858e-07 -6.601607859432591e-09 6.513269164120508" Properties=species:S:1:pos:R:3:forces:R:3 energy=-38.4695930480957 free_energy=-38.4695930480957 stress="-2.6461704692337662e-05 -2.569036361421695e-08 7.889442876773956e-09 -2.569036361421695e-08 -2.6457619242137298e-05 1.1739309080383009e-08 7.889442876773956e-09 1.1739309080383009e-08 -2.6555049771559425e-05" pbc="T T T"
Fe       1.88021804       1.32951523       3.25663550      -0.00000279      -0.00000113       0.00000352
Fe       5.64065671       3.98854614       9.76990417       0.00000146      -0.00000155       0.00000259
V       -0.00000007      -0.00000021       0.00000037       0.00000371       0.00000652      -0.00000518
Cl       1.89060692       1.33686132       6.51326895      -0.00075056      -0.00053033      -0.00000166
Cl       5.63026849       3.98120115       6.51326876       0.00074169       0.00052428      -0.00000157
Cl       4.69535303       1.33686089       4.89394794       0.00037354      -0.00052620      -0.00064705
Cl       2.82552221       3.98120068       8.13258940      -0.00037371       0.00053172       0.00064784
Cl       2.82552192       3.98120103       4.89394810      -0.00037105       0.00052606      -0.00064592
Cl       4.69535297       1.33686120       8.13258964       0.00037773      -0.00052945       0.00064760
