9
Lattice="5.641873594505609 -3.8149896400388637e-07 3.2573367166197724 1.8806242639102269 5.319208306243128 3.257336557116897 -5.209323649584315e-08 -2.321857976654021e-07 6.514673523467684" Properties=species:S:1:pos:R:3:forces:R:3 energy=-38.469573974609375 free_energy=-38.469573974609375 stress="0.00020586085156537592 -2.3828034656503405e-08 -2.0146512014207474e-08 -2.3828034656503405e-08 0.00020595175737980753 5.470896180526097e-09 -2.0146512014207474e-08 5.470896180526097e-09 0.0002058684767689556" pbc="T T T"
Fe       1.88062534       1.32980243       3.25733576       0.00000449       0.00000403      -0.00000509
Fe       5.64187300       3.98940482       9.77200884      -0.00000270      -0.00000643      -0.00000607
V       -0.00000017      -0.00000013       0.00000015       0.00000082       0.00000325      -0.00000066
Cl       1.89057347       1.33683793       6.51467421       0.00155076       0.00109944       0.00000362
Cl       5.63192397       3.98237013       6.51467342      -0.00155418      -0.00109901       0.00000071
Cl       4.69658585       1.33683707       4.89462182      -0.00077735       0.00109677       0.00134413
Cl       2.82591202       3.98237037       8.13472547       0.00077770      -0.00109707      -0.00134103
Cl       2.82591139       3.98237073       4.89462202       0.00077647      -0.00109844       0.00134659
Cl       4.69658629       1.33683740       8.13472534      -0.00077602       0.00109749      -0.00134215
