9
Lattice="4.723251796516906 1.4375064391603977e-07 2.726969131619802 1.5744170218955313 4.453125884194561 2.7269697883081503 -4.6944844441429666e-07 4.723258939998319e-07 5.453939076347745" Properties=species:S:1:pos:R:3:forces:R:3 energy=-48.42040252685547 free_energy=-48.42040252685547 stress="-4.41432639490813e-05 7.276193869643066e-09 1.056874836535826e-07 7.276193869643066e-09 -4.406255902722478e-05 -1.6814354353300587e-08 1.056874836535826e-07 -1.6814354353300587e-08 -4.42913114966359e-05" pbc="T T T"
Fe       1.57440888       1.11327666       2.72695776      -0.00004978      -0.00002732      -0.00009025
Fe       4.72325629       3.33986034       8.18089218       0.00003520       0.00009820      -0.00010732
V        0.00000119       0.00000126      -0.00000201      -0.00000686      -0.00000433       0.00002019
F        1.56787992       1.10864363       5.45396420       0.00060534       0.00037401       0.00007619
F        4.72979458       3.34447985       5.45393149      -0.00060774      -0.00040244      -0.00002223
F        3.93931881       1.10863106       4.08480342      -0.00029516       0.00036347       0.00058068
F        2.35835469       3.34447995       6.82308764       0.00030532      -0.00038067      -0.00051948
F        2.35833754       3.34446535       4.08478673       0.00026114      -0.00046593       0.00052875
F        3.93932290       1.10866828       6.82309766      -0.00024756       0.00044503      -0.00046647
