9
Lattice="4.723462730717435 2.685353844827071e-08 2.7270923511751497 1.5744875729278784 4.4533232247341275 2.7270924019167633 -2.5229425941303774e-08 4.4305638256835924e-08 5.454184746048929" Properties=species:S:1:pos:R:3:forces:R:3 energy=-48.42040252685547 free_energy=-48.42040252685547 stress="2.6927475573756965e-06 6.874347491248045e-08 -1.895734413892569e-08 6.874347491248045e-08 2.660153541000909e-06 -1.245100378355346e-08 -1.895734413892569e-08 -1.245100378355346e-08 2.6267343855579384e-06" pbc="T T T"
Fe       1.57448769       1.11333152       2.72709241       0.00000156       0.00000481       0.00000108
Fe       4.72346275       3.33999317       8.18127784      -0.00000103       0.00000379       0.00000465
V       -0.00000002      -0.00000011      -0.00000015       0.00000474      -0.00000444       0.00000603
F        1.56788703       1.10866319       5.45418449       0.00042050       0.00029469      -0.00000076
F        4.73006357       3.34466014       5.45418481      -0.00042151      -0.00029924      -0.00000175
F        3.93951922       1.10866306       4.08492143      -0.00021278       0.00030158       0.00036825
F        2.35843039       3.34465959       6.82344797       0.00021082      -0.00030266      -0.00036804
F        2.35843101       3.34465992       4.08492178       0.00021193      -0.00029872       0.00036427
F        3.93951940       1.10866281       6.82344746      -0.00021433       0.00030003      -0.00037384
