9
Lattice="5.9925933464577135 7.198647345799258e-08 3.459825376576552 1.9975311470705917 5.6498714208155985 3.4598254394237067 -1.606773674090205e-08 6.561014863829866e-08 6.919650780983189" Properties=species:S:1:pos:R:3:forces:R:3 energy=-35.09613800048828 free_energy=-35.09613800048828 stress="-4.039111900056014e-06 6.375501460098576e-09 -1.3336794779661432e-08 6.375501460098576e-09 -4.0366057874052785e-06 1.2726171227939176e-08 -1.3336794779661432e-08 1.2726171227939176e-08 -4.037429334857734e-06" pbc="T T T"
Fe       1.99753185       1.41246934       3.45982506       0.00000204       0.00000512      -0.00000155
Fe       5.99259352       4.23740392      10.37947643      -0.00000009       0.00000102       0.00000133
V        0.00000000       0.00000001       0.00000001       0.00000124      -0.00000333       0.00000074
Br       2.01309186       1.42347096       6.91965088       0.00012194       0.00008465      -0.00000008
Br       5.97703258       4.22639991       6.91965084      -0.00012189      -0.00008579      -0.00000024
Br       4.98604710       1.42347098       5.20321421      -0.00006166       0.00008538       0.00010656
Br       3.00407691       4.22640007       8.63608734       0.00005984      -0.00008631      -0.00010437
Br       3.00407701       4.22640011       5.20321426       0.00006073      -0.00008707       0.00010496
Br       4.98604707       1.42347098       8.63608730      -0.00006226       0.00008626      -0.00010769
