9
Lattice="6.436535231979844 6.299336558158578e-08 3.716135337913338 2.14551181377324 6.068423545641882 3.716135319918931 -1.337268050913245e-07 -1.1659796994772414e-07 7.432270907448487" Properties=species:S:1:pos:R:3:forces:R:3 energy=-30.542415618896484 free_energy=-30.542415618896484 stress="-6.5584150434006e-05 -1.0702502883930265e-08 -2.8356079706526316e-09 -1.0702502883930265e-08 -6.558720633620396e-05 9.14471076640666e-09 -2.8356079706526316e-09 9.14471076640666e-09 -6.557749293278903e-05" pbc="T T T"
Fe       2.14551237       1.51710702       3.71613502       0.00000206       0.00000306      -0.00000136
Fe       6.43653373       4.55131671      11.14840514      -0.00000533      -0.00000181      -0.00000441
V       -0.00000016      -0.00000011      -0.00000031      -0.00000163      -0.00000239       0.00000082
I        2.18536356       1.54528526       7.43227100      -0.00290218      -0.00205208       0.00000021
I        6.39668328       4.52313809       7.43227135       0.00290540       0.00205256       0.00000110
I        5.34385338       1.54528539       5.60871605       0.00145194      -0.00205240      -0.00251374
I        3.23819432       4.52313779       9.25582597      -0.00145163       0.00205237       0.00251701
I        3.23819393       4.52313807       5.60871594      -0.00145102       0.00205217      -0.00251520
I        5.34385325       1.54528575       9.25582607       0.00145224      -0.00205150       0.00251570
