9
Lattice="6.797333101507489 8.321190293181016e-09 3.9244420655047065 2.2657777512184305 6.408586967127828 3.9244419912507458 1.0930412621751335e-07 -1.3652535690019865e-08 7.848883941689217" Properties=species:S:1:pos:R:3:forces:R:3 energy=-31.18048858642578 free_energy=-31.18048858642578 stress="7.296423427760601e-05 8.25248847036164e-09 5.921191981173024e-09 8.25248847036164e-09 7.296683179447427e-05 -1.1040951264362775e-08 5.921191981173024e-09 -1.1040951264362775e-08 7.295396062545478e-05" pbc="T T T"
Fe       2.26577759       1.60214691       3.92444166      -0.00000007       0.00000033      -0.00000008
Fe       6.79733327       4.80644019      11.77332610      -0.00000032      -0.00000008      -0.00000073
Y       -0.00000045      -0.00000021       0.00000030       0.00000343       0.00000004      -0.00000069
I        2.41991530       1.71113846       7.84888382      -0.00409659      -0.00289655       0.00000033
I        6.64319613       4.69744894       7.84888423       0.00409453       0.00289433       0.00000025
I        5.58737552       1.71113824       6.02014969       0.00204680      -0.00289389      -0.00354400
I        3.47573543       4.69744875       9.67761801      -0.00204699       0.00289460       0.00354602
I        3.47573558       4.69744808       6.02015036      -0.00204757       0.00289625      -0.00354685
I        5.58737547       1.71113851       9.67761784       0.00204683      -0.00289504       0.00354581
