9
Lattice="6.209581025233758 -6.153946789519697e-08 3.5851032907093145 2.0698602842615306 5.854449198942907 3.585103289779411 -1.310884524335939e-08 -1.0408308826503294e-08 7.170206604123845" Properties=species:S:1:pos:R:3:forces:R:3 energy=-35.349365234375 free_energy=-35.349365234375 stress="4.7371446271426976e-05 -2.5851585760960916e-08 -6.4914140729399605e-09 -2.5851585760960916e-08 4.737929702969268e-05 -6.984385514385849e-09 -6.4914140729399605e-09 -6.984385514385849e-09 4.741236989502795e-05" pbc="T T T"
Fe       2.06986057       1.46361189       3.58510329       0.00000046      -0.00000065      -0.00000118
Fe       6.20958089       4.39083684      10.75530951      -0.00000071      -0.00000100      -0.00000181
Y       -0.00000008      -0.00000007      -0.00000019      -0.00000186      -0.00000140       0.00000044
Br       2.22064776       1.57023491       7.17020668      -0.00100928      -0.00071341       0.00000021
Br       6.05879333       4.28421417       7.17020674       0.00100866       0.00071422       0.00000092
Br       5.09925698       1.57023534       5.50824123       0.00050772      -0.00071659      -0.00087755
Br       3.18018453       4.28421384       8.83217221      -0.00050618       0.00071753       0.00087780
Br       3.18018434       4.28421403       5.50824102      -0.00050645       0.00071735      -0.00087726
Br       5.09925690       1.57023556       8.83217222       0.00050770      -0.00071602       0.00087853
