9
Lattice="5.000466485292929 -4.0245046836258095e-08 2.8870209121827997 1.6668222174197151 4.714484885578768 2.8870207500648966 3.052714305839212e-07 1.7306464387311558e-08 5.774041295619905" Properties=species:S:1:pos:R:3:forces:R:3 energy=-49.28884506225586 free_energy=-49.28884506225586 stress="0.0005954066291451454 -2.976429769319111e-08 -5.576767492243562e-08 -2.976429769319111e-08 0.0005954297375865281 2.2588597659023435e-08 -5.576767492243562e-08 2.2588597659023435e-08 0.000595507153775543" pbc="T T T"
Fe       1.66682274       1.17862113       2.88702142       0.00000314      -0.00000017       0.00000118
Fe       5.00046672       3.53586332       8.66106460       0.00000091      -0.00000292       0.00001577
Y        0.00000028      -0.00000010      -0.00000011      -0.00000616      -0.00000100       0.00000814
F        1.74192454       1.23172712       5.77404086       0.00305301       0.00216005      -0.00000398
F        4.92536407       3.48275820       5.77403953      -0.00305027      -0.00215384      -0.00000578
F        4.12950428       1.23172787       4.39557163      -0.00152277       0.00215391       0.00263189
F        2.53778404       3.48275728       7.15251097       0.00152286      -0.00215662      -0.00264226
F        2.53778540       3.48275840       4.39557174       0.00152623      -0.00215483       0.00263898
F        4.12950400       1.23172617       7.15251113      -0.00152678       0.00215524      -0.00264433
