9
Lattice="4.560483095388859 1.490222140375246e-08 2.6329960785680946 1.5201610582749048 4.299664761936016 2.632996057041028 -2.2309453767556882e-08 -4.214029886906001e-08 5.265992195777274" Properties=species:S:1:pos:R:3:forces:R:3 energy=-39.207740783691406 free_energy=-39.207740783691406 stress="0.00010176051000598818 2.2466087656880518e-08 3.5126177522215585e-08 2.2466087656880518e-08 0.00010165436106035486 4.402352615784366e-08 3.5126177522215585e-08 4.402352615784366e-08 0.00010180978279095143" pbc="T T T"
Fe       1.52016102       1.07491791       2.63299635      -0.00000027       0.00001600       0.00000185
Fe       4.56048279       3.22474715       7.89898715      -0.00000038      -0.00001372      -0.00000997
Zn      -0.00000001      -0.00000008       0.00000001      -0.00000101      -0.00000269      -0.00000093
F        1.55962688       1.10282301       5.26599230      -0.00046328      -0.00032263       0.00000105
F        4.52101716       3.19684164       5.26599250       0.00046688       0.00032511       0.00000186
F        3.78066975       1.10282305       3.98367235       0.00023085      -0.00032146      -0.00040166
F        2.29997491       3.19684156       6.54831197      -0.00023215       0.00032234       0.00040698
F        2.29997390       3.19684137       3.98367264      -0.00023589       0.00032037      -0.00040206
F        3.78067011       1.10282340       6.54831192       0.00023551      -0.00032331       0.00040306
