9
Lattice="5.926664877547247 -1.1099600269483688e-07 3.421761555204343 1.975554883148901 5.587713119746384 3.4217615056425674 -1.0279480137280933e-09 -6.142741097897579e-08 6.8435231121891364" Properties=species:S:1:pos:R:3:forces:R:3 energy=-25.56772804260254 free_energy=-25.56772804260254 stress="-9.857232362264767e-05 7.5784987174643e-09 1.0402711581036783e-08 7.5784987174643e-09 -9.861782018560916e-05 -7.349615138707577e-09 1.0402711581036783e-08 -7.349615138707577e-09 -9.859843703452498e-05" pbc="T T T"
Fe       1.97555525       1.39692776       3.42176156       0.00000158      -0.00000139      -0.00000016
Fe       5.92666501       4.19078428      10.26528430       0.00000063      -0.00000220      -0.00000094
Zn       0.00000000       0.00000006      -0.00000019      -0.00000075      -0.00000157       0.00000194
Br       2.05443528       1.45270518       6.84352316      -0.00123182      -0.00087063       0.00000102
Br       5.84778427       4.13500792       6.84352319       0.00123408       0.00087394       0.00000013
Br       4.89944701       1.45270524       5.20095465       0.00061645      -0.00087211      -0.00106651
Br       3.00277257       4.13500826       8.48609150      -0.00061704       0.00086863       0.00106704
Br       3.00277243       4.13500802       5.20095485      -0.00061749       0.00087415      -0.00106803
Br       4.89944722       1.45270502       8.48609164       0.00061451      -0.00086895       0.00106540
