9
Lattice="5.4164129328340325 -2.8410809593620943e-08 3.127167360674338 1.8054709615425886 5.106642973238575 3.127167342111531 2.0372829169284827e-08 -8.328912005475634e-09 6.254334686061863" Properties=species:S:1:pos:R:3:forces:R:3 energy=-29.020652770996094 free_energy=-29.020652770996094 stress="0.0003282464458607137 5.088186538770856e-10 7.110382949093719e-09 5.088186538770856e-10 0.0003282123652752489 2.131731013932381e-09 7.110382949093719e-09 2.131731013932381e-09 0.00032825287780724466" pbc="T T T"
Ge       1.80547088       1.27666046       3.12716746       0.00000058      -0.00000130       0.00000042
Ge       5.41641269       3.82998199       9.38150171      -0.00000165      -0.00000076      -0.00000034
Be       0.00000017       0.00000001      -0.00000017      -0.00000047      -0.00000016       0.00000068
Cl       1.76687948       1.24937235       6.25433456       0.00057709       0.00040790       0.00000005
Cl       5.45500437       3.85727054       6.25433474      -0.00057551      -0.00040485       0.00000089
Cl       4.53297320       1.24937249       4.65732982      -0.00028807       0.00040632       0.00049761
Cl       2.68891068       3.85727087       7.85133985       0.00028854      -0.00040857      -0.00050011
Cl       2.68891077       3.85727074       4.65732963       0.00028905      -0.00040701       0.00049911
Cl       4.53297344       1.24937231       7.85134000      -0.00028970       0.00040846      -0.00049841
