9
Lattice="4.432927198841369 2.1735361716323843e-09 2.5593516240570717 1.4776423776805063 4.179403852953962 2.559351665595995 -8.744982346825675e-08 -1.0961757255603358e-08 5.118703399581668" Properties=species:S:1:pos:R:3:forces:R:3 energy=-43.54212951660156 free_energy=-43.54212951660156 stress="0.0009049681248143315 -2.0443437165340583e-08 -3.698889017300644e-08 -2.0443437165340583e-08 0.0009051654487848282 -2.6491338900314076e-08 -3.698889017300644e-08 -2.6491338900314076e-08 0.0009051566594280303" pbc="T T T"
Ge       1.47764269       1.04485085       2.55935155       0.00000238      -0.00000201      -0.00000001
Ge       4.43292732       3.13455273       7.67805518       0.00000273      -0.00000145       0.00000198
Be       0.00000011      -0.00000001      -0.00000012      -0.00000079      -0.00000004       0.00000066
F        1.41582225       1.00113780       5.11870342       0.00327557       0.00231603       0.00000035
F        4.49474709       3.17826629       5.11870323      -0.00327820      -0.00231773      -0.00000099
F        3.72501585       1.00113766       3.78548980      -0.00163871       0.00231877       0.00283819
F        2.18555343       3.17826619       6.45191689       0.00163835      -0.00231537      -0.00283778
F        2.18555352       3.17826626       3.78548982       0.00164011      -0.00231558       0.00283641
F        3.72501574       1.00113762       6.45191698      -0.00164080       0.00231761      -0.00283939
