9
Lattice="5.82271442980179 1.3329683436015337e-09 3.3617458127434467 1.9409047965313908 5.489707703296701 3.361745838134055 6.242917662675602e-08 7.524111435610421e-08 6.7234915173563925" Properties=species:S:1:pos:R:3:forces:R:3 energy=-25.340208053588867 free_energy=-25.340208053588867 stress="8.321098721353337e-05 -1.981594976996348e-08 -1.7708618571532497e-08 -1.981594976996348e-08 8.318407344631851e-05 6.110203898401778e-09 -1.7708618571532497e-08 6.110203898401778e-09 8.32281875773333e-05" pbc="T T T"
Ge       1.94090491       1.37242574       3.36174595       0.00000072      -0.00000122      -0.00000054
Ge       5.82271457       4.11728123      10.08523848       0.00000196       0.00000074       0.00000433
Be      -0.00000011      -0.00000016      -0.00000039      -0.00000126       0.00000037       0.00000118
Br       1.91501771       1.35412153       6.72349161       0.00041642       0.00029467      -0.00000009
Br       5.84860155       4.13558601       6.72349128      -0.00041480      -0.00029063      -0.00000060
Br       4.86520546       1.35412217       5.02019977      -0.00020721       0.00029103       0.00035626
Br       2.89841366       4.13558628       8.42678318       0.00020700      -0.00029375      -0.00036240
Br       2.89841368       4.13558630       5.02019960       0.00020589      -0.00029357       0.00036076
Br       4.86520578       1.35412211       8.42678335      -0.00020874       0.00029245      -0.00035874
