9
Lattice="6.3641299629565875 -4.859249324305537e-08 3.674332161944142 2.121376597623741 6.000159207080053 3.67433218079179 1.1958941376492696e-08 3.153976066174724e-08 7.348664303174844" Properties=species:S:1:pos:R:3:forces:R:3 energy=-21.334362030029297 free_energy=-21.334362030029297 stress="0.00029752819682471454 -6.5019256645371115e-09 1.29427557560291e-09 -6.5019256645371115e-09 0.0002975347451865673 3.148747096393123e-10 1.29427557560291e-09 3.148747096393123e-10 0.0002975332026835531" pbc="T T T"
Ge       2.12137659       1.50003966       3.67433223      -0.00000010       0.00000013      -0.00000015
Ge       6.36412999       4.50011930      11.02299556       0.00000034      -0.00000124      -0.00000252
Be       0.00000002       0.00000004      -0.00000020       0.00000063      -0.00000017       0.00000016
I        2.10088980       1.48555364       7.34866435      -0.00466910      -0.00330092       0.00000069
I        6.38461687       4.51460584       7.34866435       0.00466785       0.00330067       0.00000057
I        5.31368489       1.48555335       5.49375618       0.00233472      -0.00330206      -0.00404225
I        3.17182148       4.51460590       9.20357306      -0.00233331       0.00330167       0.00404349
I        3.17182138       4.51460547       5.49375615      -0.00233551       0.00330198      -0.00404281
I        5.31368525       1.48555356       9.20357292       0.00233455      -0.00329994       0.00404276
