9
Lattice="6.075359628286908 1.1025198049421007e-08 3.507610574934932 2.025119901554578 5.727904038248641 3.5076105488428295 4.47954811769303e-08 -2.809782902698493e-10 7.015221072281795" Properties=species:S:1:pos:R:3:forces:R:3 energy=-35.261566162109375 free_energy=-35.261566162109375 stress="7.284024468390271e-05 9.7785433084141e-09 -1.7250433970161794e-08 9.7785433084141e-09 7.282652950379997e-05 -1.4618571242408507e-08 -1.7250433970161794e-08 -1.4618571242408507e-08 7.282788283191621e-05" pbc="T T T"
Ge       2.02511986       1.43197630       3.50761047      -0.00000018       0.00000075      -0.00000043
Ge       6.07535950       4.29592741      10.52283076      -0.00000154      -0.00000287      -0.00000274
Cr      -0.00000010       0.00000006      -0.00000050      -0.00000153       0.00000062       0.00000663
Te       2.13351703       1.50862455       7.01522110      -0.00179625      -0.00126949      -0.00000008
Te       5.96696261       4.21927974       7.01522156       0.00179680       0.00126999       0.00000216
Te       5.00860106       1.50862437       5.35529071       0.00089908      -0.00127025      -0.00155646
Te       3.09187859       4.21927977       8.67515215      -0.00089519       0.00126787       0.00155310
Te       3.09187831       4.21927952       5.35529052      -0.00089797       0.00126988      -0.00155593
Te       5.00860143       1.50862451       8.67515203       0.00089685      -0.00126643       0.00155377
