9
Lattice="5.4905363658379 -4.338955188611182e-08 3.169962751806995 1.830178632194119 5.176527655481329 3.1699629518770096 -2.1747585693614136e-07 9.125603733938169e-08 6.339925880293258" Properties=species:S:1:pos:R:3:forces:R:3 energy=-38.844459533691406 free_energy=-38.844459533691406 stress="-4.85305099573452e-06 -1.8171521176668648e-08 -5.264296731866125e-08 -1.8171521176668648e-08 -4.797912424692186e-06 2.508028451586597e-08 -5.264296731866125e-08 2.508028451586597e-08 -4.758628165291157e-06" pbc="T T T"
Ge       1.83017872       1.29413110       3.16996460      -0.00000094      -0.00000334       0.00001159
Ge       5.49053503       3.88239672       9.50989050      -0.00000257       0.00000569       0.00000988
Cr      -0.00000140      -0.00000057       0.00000298       0.00001312       0.00000681      -0.00002579
Se       1.97454234       1.39621187       6.33992479       0.00047858       0.00033562      -0.00000424
Se       5.34617470       3.78031649       6.33992512      -0.00048824      -0.00034337      -0.00000331
Se       4.50326595       1.39621121       4.87996533      -0.00024438       0.00034282       0.00041769
Se       2.81745038       3.78031609       7.79988347       0.00023679      -0.00033217      -0.00041217
Se       2.81744832       3.78031627       4.87996502       0.00024581      -0.00034596       0.00042001
Se       4.50326495       1.39621171       7.79988449      -0.00023822       0.00033389      -0.00041361
