9
Lattice="4.624674915426877 -1.201778392156651e-07 2.670057261362615 1.5415581538540328 4.360185946510363 2.6700573271519374 -1.995076758724702e-07 -6.049806778768514e-08 5.3401148682826465" Properties=species:S:1:pos:R:3:forces:R:3 energy=-39.28192138671875 free_energy=-39.28192138671875 stress="0.0007074337336234748 6.121201323594505e-08 -4.686496524186623e-08 6.121201323594505e-08 0.0007074659806676209 -4.157833188855875e-08 -4.686496524186623e-08 -4.157833188855875e-08 0.0007076915353536606" pbc="T T T"
Ge       1.54155725       1.09004728       2.67005799      -0.00000366       0.00000415      -0.00000132
Ge       4.62467447       3.27014082       8.01017280      -0.00000081       0.00000788      -0.00000178
C       -0.00000033       0.00000421      -0.00000757      -0.00000257       0.00003605      -0.00006287
F        1.35922998       0.96112099       5.34011368      -0.00174534      -0.00123426      -0.00000164
F        4.80700010       3.39906290       5.34011356       0.00172287       0.00122228      -0.00000508
F        3.94505823       0.96112314       3.84718744       0.00086206      -0.00121886      -0.00150043
F        2.22117310       3.39906563       6.83304333      -0.00087234       0.00123647       0.00151223
F        2.22117717       3.39906026       3.84719026      -0.00084572       0.00120097      -0.00147527
F        3.94506159       0.96111785       6.83304645       0.00088546      -0.00125495       0.00153658
