9
Lattice="5.600048720059901 3.77886710660316e-08 3.2331896489347254 1.866682943258082 5.279776631438411 3.233189647299753 -1.0014105377567932e-09 -2.710517775800929e-09 6.4663792996039975" Properties=species:S:1:pos:R:3:forces:R:3 energy=-36.53480529785156 free_energy=-36.53480529785156 stress="-2.230537029390689e-05 7.254806977385897e-09 3.4069047583074052e-09 7.254806977385897e-09 -2.2303067453322e-05 -5.326639573866032e-09 3.4069047583074052e-09 -5.326639573866032e-09 -2.2317632101476192e-05" pbc="T T T"
Ge       1.86668296       1.31994319       3.23319017       0.00000178      -0.00000382       0.00000105
Ge       5.60004881       3.95983277       9.69956882      -0.00000012       0.00000066      -0.00000075
Co       0.00000009       0.00000006      -0.00000041      -0.00000049       0.00000026       0.00000405
Se       1.87537385       1.32608930       6.46637918      -0.00024796      -0.00017432      -0.00000136
Se       5.59135759       3.95368759       6.46637948       0.00024679       0.00017595      -0.00000009
Se       4.66236165       1.32608925       4.85731076       0.00012344      -0.00017482      -0.00021492
Se       2.80436998       3.95368755       8.07544768      -0.00012330       0.00017500       0.00021228
Se       2.80436987       3.95368759       4.85731084      -0.00012396       0.00017518      -0.00021398
Se       4.66236186       1.32608937       8.07544786       0.00012372      -0.00017405       0.00021363
