9
Lattice="5.9059329512196275 8.544564952864547e-08 3.4097919724541685 1.9686443736867332 5.568166848614628 3.409792013928855 -5.447039268154756e-08 1.2279409381070316e-08 6.819584039253762" Properties=species:S:1:pos:R:3:forces:R:3 energy=-23.569316864013672 free_energy=-23.569316864013672 stress="0.00019710157357621938 5.608575825988282e-09 -3.26306697218115e-08 5.608575825988282e-09 0.0001971799647435546 -2.662220843774321e-08 -3.26306697218115e-08 -2.662220843774321e-08 0.00019729373161680996" pbc="T T T"
Ge       1.96864357       1.39204087       3.40979209      -0.00000123      -0.00000524       0.00000128
Ge       5.90593180       4.17612499      10.22937583      -0.00000638       0.00000075       0.00000005
C       -0.00000231      -0.00000205      -0.00000005      -0.00000633      -0.00000520       0.00000045
Br       1.96661061       1.39060416       6.81958422      -0.00623871      -0.00441128       0.00000161
Br       5.90796827       4.17756463       6.81958379       0.00624809       0.00441650       0.00000051
Br       4.92262857       1.39060390       5.11292640       0.00312428      -0.00441638      -0.00540861
Br       2.95195047       4.17756400       8.52624210      -0.00312090       0.00441821       0.00540739
Br       2.95195015       4.17756390       5.11292598      -0.00312259       0.00441928      -0.00540832
Br       4.92262793       1.39060348       8.52624181       0.00312383      -0.00441672       0.00540583
