9
Lattice="6.001304686506092 -2.6506017764099996e-08 3.464854884090674 2.0004348901459306 5.658084192049001 3.4648548500835323 2.2659226034848898e-08 -2.5627525246155825e-08 6.929709728934364" Properties=species:S:1:pos:R:3:forces:R:3 energy=-33.91958999633789 free_energy=-33.91958999633789 stress="0.0003234684991184622 -1.7071213775921024e-08 2.815809629908017e-08 -1.7071213775921024e-08 0.0003234755131416023 -3.992865149626823e-09 2.815809629908017e-08 -3.992865149626823e-09 0.00032347801607102156" pbc="T T T"
Ge       2.00043473       1.41452092       3.46485484      -0.00000080      -0.00000040       0.00000098
Ge       6.00130490       4.24356331      10.39456479       0.00000190      -0.00000100       0.00000028
Co      -0.00000025      -0.00000037       0.00000050       0.00000705       0.00000191      -0.00000756
Te       1.98970779       1.40693609       6.92970967      -0.00561543      -0.00397017      -0.00000021
Te       6.01203212       4.25114859       6.92970942       0.00561015       0.00396702       0.00000009
Te       5.00645080       1.40693572       5.18799227       0.00280631      -0.00396812      -0.00486022
Te       2.99528879       4.25114834       8.67142699      -0.00280958       0.00397199       0.00486489
Te       2.99528868       4.25114830       5.18799239      -0.00280835       0.00397097      -0.00486218
Te       5.00645085       1.40693566       8.67142694       0.00280873      -0.00397222       0.00486393
