9
Lattice="4.480414523711566 6.491497615207301e-08 2.5867685910152574 1.4934715870521948 4.224175322732748 2.5867685599319956 5.772327513065708e-08 2.7474526887738187e-09 5.173537082050849" Properties=species:S:1:pos:R:3:forces:R:3 energy=-46.0720329284668 free_energy=-46.0720329284668 stress="-3.918173388228752e-05 3.776411716671646e-08 -2.963395395738644e-08 3.776411716671646e-08 -3.909162842319347e-05 2.9609642737682407e-08 -2.963395395738644e-08 2.9609642737682407e-08 -3.9092436054488644e-05" pbc="T T T"
Ge       1.49347284       1.05604517       2.58676853       0.00000646       0.00001031      -0.00000097
Ge       4.48041542       3.16813288       7.76030467       0.00000693       0.00000996      -0.00000875
Co      -0.00000014      -0.00000016       0.00000004      -0.00000161      -0.00000319      -0.00000064
O        1.45587595       1.02946094       5.17353760       0.00083745       0.00060076       0.00000331
O        4.51801031       3.19471315       5.17353711      -0.00083566      -0.00060487       0.00000067
O        3.75247552       1.02945829       3.84759624      -0.00042903       0.00058228       0.00074041
O        2.22141021       3.19471664       6.49947833       0.00042284      -0.00058788      -0.00073642
O        2.22141060       3.19471410       3.84759405       0.00042647      -0.00060451       0.00072438
O        3.75247426       1.02946056       6.49948071      -0.00043410       0.00059682      -0.00072038
