9
Lattice="4.198948758139755 -4.4588233018811106e-08 2.4242642178996134 1.3996495346197306 3.9588068692064913 2.424264234161266 -4.14841982663181e-08 -9.417394967891234e-09 4.848528507651953" Properties=species:S:1:pos:R:3:forces:R:3 energy=-48.669979095458984 free_energy=-48.669979095458984 stress="0.000216605156310834 5.6470579323786296e-08 -1.3536725873564137e-07 5.6470579323786296e-08 0.0002171823725802824 1.970396965589316e-07 -1.3536725873564137e-07 1.970396965589316e-07 0.00021675617608707398" pbc="T T T"
Ge       1.39965016       0.98970199       2.42426489       0.00000418       0.00000074       0.00000507
Ge       4.19894941       2.96910501       7.27279328       0.00000425       0.00000152       0.00000350
C       -0.00000009      -0.00000008       0.00000003       0.00000216       0.00000087       0.00000448
O        1.23915045       0.87621197       4.84852813       0.00327814       0.00231850      -0.00000339
O        4.35944738       3.08259486       4.84852826      -0.00327909      -0.00232077      -0.00000310
O        3.57937305       0.87621219       3.49739969      -0.00164312       0.00232244       0.00283849
O        2.01922478       3.08259455       6.19965695       0.00163627      -0.00232148      -0.00283909
O        2.01922447       3.08259526       3.49740036       0.00163835      -0.00231880       0.00284338
O        3.57937333       0.87621131       6.19965634      -0.00164086       0.00231618      -0.00284851
