9
Lattice="4.55290582214857 8.40630182913694e-09 2.6286214358180637 1.517635292150983 4.2925208390476035 2.6286214181928713 -8.112468893582527e-09 -2.7322755443632325e-08 5.257242885687314" Properties=species:S:1:pos:R:3:forces:R:3 energy=-51.08205032348633 free_energy=-51.08205032348633 stress="-0.00044463961967267096 2.0946838219515485e-07 1.1235394481445837e-07 2.0946838219515485e-07 -0.0004451084532774985 -1.8522122502417915e-08 1.1235394481445837e-07 -1.8522122502417915e-08 -0.00044519122457131743" pbc="T T T"
Ge       1.51763568       1.07312997       2.62862191       0.00000782      -0.00000381       0.00000305
Ge       4.55290679       3.21939058       7.88586525       0.00001131      -0.00000028       0.00001148
Cr       0.00000013       0.00000011      -0.00000011      -0.00001417      -0.00000822       0.00000635
O        1.52765307       1.08021472       5.25724221      -0.00107628      -0.00075784      -0.00000605
O        4.54288737       3.21230653       5.25724293       0.00108889       0.00076944       0.00000352
O        3.78907919       1.08021434       3.95160788       0.00053399      -0.00075842      -0.00093091
O        2.28146123       3.21230665       6.56287737      -0.00053824       0.00075284       0.00092576
O        2.28146245       3.21230725       3.95160813      -0.00053772       0.00076205      -0.00093027
O        3.78907845       1.08021334       6.56287748       0.00052428      -0.00075573       0.00091637
