9
Lattice="5.375935364201291 -5.752048067005702e-08 3.1037977991720407 1.7919784583958467 5.068480134981127 3.1037976988986404 1.4392298194530038e-07 -2.10404530887652e-08 6.2075953490621805" Properties=species:S:1:pos:R:3:forces:R:3 energy=-41.31651306152344 free_energy=-41.31651306152344 stress="5.296165181789547e-05 -1.817388906033557e-08 3.7364696225949956e-08 -1.817388906033557e-08 5.298277028487064e-05 -2.3276605531918904e-08 3.7364696225949956e-08 -2.3276605531918904e-08 5.304086153046228e-05" pbc="T T T"
Ge       1.79197903       1.26712092       3.10379798       0.00000468       0.00000664       0.00000036
Ge       5.37593578       3.80136018       9.31139217       0.00000124       0.00000290      -0.00000906
Cr      -0.00000010       0.00000027      -0.00000050       0.00000003       0.00000086       0.00000575
S        1.81573395       1.28391703       6.20759532      -0.00588748      -0.00416629       0.00000025
S        5.35218055       3.78456255       6.20759575       0.00588614       0.00416084       0.00000538
S        4.46806812       1.28391765       4.67626944       0.00294346      -0.00416648      -0.00510103
S        2.69984517       3.78456237       7.73892178      -0.00294185       0.00415793       0.00510013
S        2.69984492       3.78456169       4.67626983      -0.00295053       0.00416446      -0.00510356
S        4.46806861       1.28391753       7.73892165       0.00294393      -0.00416103       0.00510162
