9
Lattice="6.347809373851283 -2.8471428455630608e-08 3.6649094500277153 2.1159364504873817 5.984771989848172 3.6649094164604 9.4231602759105e-09 -3.444820175818527e-08 7.32981888373404" Properties=species:S:1:pos:R:3:forces:R:3 energy=-20.735204696655273 free_energy=-20.735204696655273 stress="0.00031817794661037624 -1.6805936642327879e-09 1.5646006712444205e-09 -1.6805936642327879e-09 0.00031818123534321785 -2.090327466675035e-09 1.5646006712444205e-09 -2.090327466675035e-09 0.00031817646231502295" pbc="T T T"
Ge       2.11593640       1.49619292       3.66490933       0.00000074       0.00000024      -0.00000024
Ge       6.34780950       4.48857903      10.99472829      -0.00000025      -0.00000130      -0.00000064
Cu      -0.00000002      -0.00000004      -0.00000006       0.00000004       0.00000012       0.00000078
I        2.14678853       1.51800860       7.32981883      -0.00087979      -0.00062185      -0.00000004
I        6.31695738       4.46676335       7.32981887       0.00087887       0.00062169       0.00000054
I        5.27441517       1.51800855       5.52408288       0.00044000      -0.00062231      -0.00076152
I        3.18933059       4.46676342       9.13555513      -0.00043909       0.00062185       0.00076067
I        3.18933069       4.46676326       5.52408271      -0.00044021       0.00062242      -0.00076100
I        5.27441511       1.51800861       9.13555502       0.00043970      -0.00062088       0.00076138
