9
Lattice="4.591083373677712 -7.041038500069428e-08 2.6506633978609617 1.5303611129023111 4.32851462901353 2.650663303071668 3.221139315123505e-08 -9.331580542701735e-08 5.301326739930165" Properties=species:S:1:pos:R:3:forces:R:3 energy=-38.23563766479492 free_energy=-38.23563766479492 stress="0.0004181050171609968 -7.903118715013591e-10 4.860088331781753e-09 -7.903118715013591e-10 0.0004180816176813096 -4.367603168020651e-09 4.860088331781753e-09 -4.367603168020651e-09 0.0004180346440989524" pbc="T T T"
Ge       1.53036086       1.08212844       2.65066365      -0.00000235      -0.00000196       0.00000337
Ge       4.59108334       3.24638604       7.95199040      -0.00000003       0.00000147       0.00000245
Cu       0.00000002      -0.00000003      -0.00000011      -0.00000138      -0.00000062      -0.00000156
F        1.55425713       1.09902559       5.30132651       0.00004354       0.00003204      -0.00000169
F        4.56718745       3.22948895       5.30132659      -0.00004140      -0.00003055      -0.00000222
F        3.81395496       1.09902537       3.99668948      -0.00002109       0.00003222       0.00003842
F        2.30748957       3.22948909       6.60596390       0.00002101      -0.00002986      -0.00003931
F        2.30748977       3.22948900       3.99668931       0.00002328      -0.00003162       0.00003877
F        3.81395500       1.09902547       6.60596389      -0.00002162       0.00002897      -0.00003836
