9
Lattice="5.564867407062304 8.718546568229407e-09 3.2128777251285396 1.8549558176594414 5.246607341301399 3.2128777128562063 1.0976336279052076e-08 -7.269008764446743e-09 6.425755431245473" Properties=species:S:1:pos:R:3:forces:R:3 energy=-26.5782470703125 free_energy=-26.5782470703125 stress="0.0004221450653858483 -2.060714443530287e-08 -1.3816226385188202e-08 -2.060714443530287e-08 0.00042218691669404507 -1.8761060260885642e-08 -1.3816226385188202e-08 -1.8761060260885642e-08 0.000422245153458789" pbc="T T T"
Ge       1.85495650       1.31165107       3.21287771       0.00000463      -0.00000475      -0.00000088
Ge       5.56486722       3.93495570       9.63863426      -0.00000203       0.00000079       0.00000971
Cu       0.00000008      -0.00000023       0.00000004      -0.00000147       0.00000317      -0.00000412
Cl       1.86673201       1.31997903       6.42575546       0.00181484       0.00128481      -0.00000102
Cl       5.55309105       3.92662855       6.42575486      -0.00181827      -0.00128335      -0.00000414
Cl       4.63150107       1.31997894       4.82951503      -0.00090915       0.00128663       0.00157017
Cl       2.78832192       3.92662869       8.02199561       0.00090794      -0.00128239      -0.00157365
Cl       2.78832219       3.92662878       4.82951500       0.00091046      -0.00128573       0.00157398
Cl       4.63150092       1.31997885       8.02199551      -0.00090696       0.00128099      -0.00157017
