9
Lattice="5.938898679152505 4.049881324574015e-08 3.428824704181073 1.9796329325475883 5.599247217738488 3.42882470190499 -5.318360828363861e-09 -6.548287784101195e-09 6.857649417573834" Properties=species:S:1:pos:R:3:forces:R:3 energy=-23.780803680419922 free_energy=-23.780803680419922 stress="0.0001317599235335365 8.961549724517681e-09 1.2683972094862384e-08 8.961549724517681e-09 0.00013182833208702505 1.7691620612936276e-08 1.2683972094862384e-08 1.7691620612936276e-08 0.00013176527863834053" pbc="T T T"
Ge       1.97963320       1.39981118       3.42882548      -0.00000027      -0.00000099       0.00000132
Ge       5.93889857       4.19943577      10.28647445      -0.00000137      -0.00000323       0.00000113
Cu       0.00000000      -0.00000005      -0.00000038      -0.00000115      -0.00000171       0.00000105
Br       1.99172228       1.40836033       6.85764937       0.00184917       0.00130680      -0.00000119
Br       5.92680899       4.19088708       6.85764932      -0.00184533      -0.00130351       0.00000040
Br       4.94303732       1.40836056       5.15370666      -0.00092477       0.00130516       0.00159919
Br       2.97549426       4.19088703       8.56159190       0.00092383      -0.00130463      -0.00159989
Br       2.97549416       4.19088696       5.15370661       0.00092418      -0.00130498       0.00159895
Br       4.94303766       1.40836018       8.56159190      -0.00092415       0.00130728      -0.00160098
