9
Lattice="6.038155949671442 4.9364322643045154e-08 3.4861308760460537 2.0127186226000804 5.692828183505917 3.486131003925952 -9.312026046700078e-08 9.077425423326416e-08 6.972261913381164" Properties=species:S:1:pos:R:3:forces:R:3 energy=-35.207115173339844 free_energy=-35.207115173339844 stress="2.5487655875622295e-05 4.884732618393173e-09 1.2807269023085155e-08 4.884732618393173e-09 2.5502156859147362e-05 -2.177511149170641e-08 1.2807269023085155e-08 -2.177511149170641e-08 2.549495911807753e-05" pbc="T T T"
Ge       2.01271841       1.42320690       3.48613112       0.00000003      -0.00000064       0.00000037
Ge       6.03815550       4.26962131      10.45839271      -0.00000191       0.00000010       0.00000048
Fe      -0.00000107      -0.00000051      -0.00000330       0.00002426       0.00001447       0.00008141
Te       1.95534558       1.38263809       6.97226154       0.00003868       0.00002693      -0.00000104
Te       6.09553002       4.31019081       6.97226197      -0.00006079      -0.00004219      -0.00000056
Te       5.06048297       1.38263865       5.17951019      -0.00001389       0.00002047       0.00002404
Te       2.99039063       4.31019097       8.76501520       0.00003681      -0.00005199      -0.00006338
Te       2.99039179       4.31018995       5.17951018       0.00001357      -0.00001822       0.00002198
Te       5.06048409       1.38263711       8.76501556      -0.00003669       0.00005115      -0.00006337
