9
Lattice="5.410643526354954 -6.101884557701288e-08 3.123836439605637 1.803547795492073 5.10120346535477 3.123836420721262 -5.696578718994598e-08 -6.34094612758844e-08 6.247672977878925" Properties=species:S:1:pos:R:3:forces:R:3 energy=-40.29885482788086 free_energy=-40.29885482788086 stress="-1.5864889064687304e-06 -3.920863278494835e-08 1.6462163188180057e-08 -3.920863278494835e-08 -1.5541257880613557e-06 -3.4247527480602e-08 1.6462163188180057e-08 -3.4247527480602e-08 -1.5301623079722049e-06" pbc="T T T"
Ge       1.80354915       1.27530055       3.12383621       0.00001228      -0.00000201      -0.00000143
Ge       5.41064282       3.82590203       9.37150877      -0.00000639      -0.00000586      -0.00000638
Fe      -0.00000042      -0.00000035       0.00000040       0.00000465       0.00000515      -0.00001128
S        1.77158678       1.25270128       6.24767242       0.00062466       0.00044200       0.00000089
S        5.44260416       3.84850288       6.24767257      -0.00063431      -0.00044137       0.00000200
S        4.52485010       1.25270121       4.65807587      -0.00031820       0.00044477       0.00054258
S        2.68934173       3.84850154       7.83727073       0.00031477      -0.00044042      -0.00053719
S        2.68934106       3.84850193       4.65807572       0.00031447      -0.00044432       0.00054267
S        4.52484961       1.25270215       7.83727034      -0.00031191       0.00044191      -0.00053191
