9
Lattice="4.482943142903803 2.9408821848107274e-08 2.5882284724543294 1.494314374697198 4.226559495636156 2.5882285313399644 -7.293898551479495e-08 2.054422365789433e-08 5.176457071242708" Properties=species:S:1:pos:R:3:forces:R:3 energy=-47.86158752441406 free_energy=-47.86158752441406 stress="-3.2616767384752166e-06 1.8925527456303826e-07 -2.3033679852346722e-08 1.8925527456303826e-07 -3.0488774882542202e-06 3.504168955004161e-09 -2.3033679852346722e-08 3.504168955004161e-09 -2.9038669708825182e-06" pbc="T T T"
Ge       1.49431445       1.05663999       2.58822846      -0.00000217      -0.00000257      -0.00000526
Ge       4.48294308       3.16991976       7.76468536       0.00000146       0.00000172      -0.00000100
Fe      -0.00000029      -0.00000026       0.00000195       0.00003068       0.00002444      -0.00026088
O        1.52984253       1.08176218       5.17645705       0.00000632      -0.00000185       0.00000169
O        4.44741507       3.14479753       5.17645705      -0.00003552      -0.00002611       0.00000216
O        3.71802201       1.08176172       3.91311066      -0.00005043       0.00006795       0.00008720
O        2.25923592       3.14479712       6.43980255      -0.00002664       0.00003922       0.00004667
O        2.25923537       3.14479785       3.91311065       0.00004971      -0.00006545       0.00008452
O        3.71802150       1.08176236       6.43980262       0.00002664      -0.00003761       0.00004447
