9
Lattice="5.6537087489174915 3.103628957511711e-08 3.2641703252221568 1.8845696196472332 5.330367842973757 3.264170312381688 -5.992404682969575e-08 -5.809899739683888e-08 6.528340754235792" Properties=species:S:1:pos:R:3:forces:R:3 energy=-38.27592849731445 free_energy=-38.27592849731445 stress="0.00012499561125878245 2.434042123411473e-08 -5.656260348985143e-09 2.434042123411473e-08 0.00012497586430981755 9.449759197366348e-09 -5.656260348985143e-09 9.449759197366348e-09 0.00012497695570345968" pbc="T T T"
Ge       1.88456998       1.33259138       3.26417011       0.00000254      -0.00000174      -0.00000080
Ge       5.65370835       3.99777596       9.79251065      -0.00000283       0.00000019      -0.00000132
Fe       0.00000004       0.00000004       0.00000021      -0.00000353      -0.00000435      -0.00000516
Se       1.85292604       1.31021665       6.52834081       0.00137854       0.00097422       0.00000044
Se       5.68535177       4.02015117       6.52834082      -0.00137204      -0.00096951       0.00000053
Se       4.72724563       1.31021660       4.86885119      -0.00069086       0.00097494       0.00119399
Se       2.81103296       4.02015114       8.18783018       0.00068748      -0.00097184      -0.00119039
Se       2.81103277       4.02015146       4.86885123       0.00069015      -0.00097512       0.00119445
Se       4.72724569       1.31021682       8.18783039      -0.00068937       0.00097330      -0.00119200
