9
Lattice="4.641616064597927 -9.203209217268157e-08 2.6798383014166265 1.5472052491848023 4.37615776711678 2.679838334173972 -1.1985306956085987e-07 -4.462949573003719e-08 5.359676810424817" Properties=species:S:1:pos:R:3:forces:R:3 energy=-50.037044525146484 free_energy=-50.037044525146484 stress="1.4075994840823114e-06 -2.8980469579664714e-08 2.9232483100827267e-08 -2.8980469579664714e-08 1.489996293457807e-06 -1.4017619953676785e-08 2.9232483100827267e-08 -1.4017619953676785e-08 1.5398818504763767e-06" pbc="T T T"
Ge       1.54720548       1.09403943       2.67983729       0.00000043       0.00000008      -0.00000776
Ge       4.64161586       3.28211809       8.03951439       0.00000157      -0.00000012      -0.00000523
Ir       0.00000020       0.00000003       0.00000007      -0.00000085       0.00000748      -0.00002054
O        1.52685023       1.07964692       5.35967691      -0.00012766      -0.00008699       0.00000007
O        4.66197097       3.29651071       5.35967720       0.00012194       0.00008343       0.00000323
O        3.87819088       1.07964583       4.00213024       0.00006019      -0.00008721      -0.00010256
O        2.31063060       3.29651169       6.71722380      -0.00006577       0.00009572       0.00011314
O        2.31063095       3.29651154       4.00212961      -0.00005447       0.00008469      -0.00010239
O        3.87818967       1.07964627       6.71722430       0.00006453      -0.00009695       0.00012202
