9
Lattice="5.672115705088838 7.064937543589692e-08 3.274797555595849 1.890705315281096 5.347722020382279 3.2747975319661315 3.7855124426252255e-08 -2.172698230546541e-09 6.549595045624711" Properties=species:S:1:pos:R:3:forces:R:3 energy=-38.460391998291016 free_energy=-38.460391998291016 stress="-0.0003241902741137892 4.600921243991252e-08 -1.619472911329467e-08 4.600921243991252e-08 -0.0003242288075853139 9.68743840701336e-09 -1.619472911329467e-08 9.68743840701336e-09 -0.00032425657263956964" pbc="T T T"
Ge       1.89070548       1.33693056       3.27479696       0.00000231       0.00000017      -0.00000204
Ge       5.67211603       4.01079064       9.82439221       0.00000009      -0.00000321      -0.00000149
Ir      -0.00000011       0.00000004      -0.00000103       0.00000104       0.00000003       0.00001141
Se       1.98976604       1.40697716       6.54959501       0.00356840       0.00252461       0.00000046
Se       5.57305526       3.94074514       6.54959555      -0.00357087      -0.00252460       0.00000004
Se       4.67723282       1.40697713       4.99798544      -0.00178384       0.00252466       0.00309087
Se       2.88558828       3.94074525       8.10120528       0.00178707      -0.00252773      -0.00309558
Se       2.88558797       3.94074512       4.99798537       0.00178550      -0.00252445       0.00309242
Se       4.67723248       1.40697733       8.10120579      -0.00179000       0.00253046      -0.00309607
