9
Lattice="5.6938045714062895 -1.8636286970208367e-08 3.2873197670597594 1.8979348253989325 5.368170468103863 3.287319791596069 2.6901113263750595e-08 4.9072675448473496e-08 6.574639487525395" Properties=species:S:1:pos:R:3:forces:R:3 energy=-38.9228630065918 free_energy=-38.9228630065918 stress="-0.00013939430937170982 -1.4691306837733009e-08 -1.4524658809023094e-08 -1.4691306837733009e-08 -0.00013941005454398692 4.89592033581232e-10 -1.4524658809023094e-08 4.89592033581232e-10 -0.00013938402116764337" pbc="T T T"
Ge       1.89793506       1.34204306       3.28731980      -0.00000012       0.00000052       0.00000040
Ge       5.69380502       4.02612738       9.86196006       0.00000213      -0.00000146       0.00000444
Mn      -0.00000024      -0.00000014       0.00000028       0.00000308       0.00000434      -0.00000412
Se       1.89907480       1.34284907       6.57463965       0.00374350       0.00264961       0.00000036
Se       5.69266446       4.02532153       6.57463894      -0.00374794      -0.00265115      -0.00000310
Se       4.74426708       1.34284891       4.93196707      -0.00187345       0.00264952       0.00324231
Se       2.84747235       4.02532142       8.21731177       0.00187109      -0.00264725      -0.00324342
Se       2.84747231       4.02532173       4.93196709       0.00187385      -0.00265142       0.00324616
Se       4.74426688       1.34284899       8.21731171      -0.00187226       0.00264743      -0.00324321
