9
Lattice="6.52834165418876 1.697749205028019e-09 3.7691398069301174 2.1761138803563465 6.154979628536601 3.769139817277229 1.9113897904758565e-08 2.618813223516423e-08 7.538279580753978" Properties=species:S:1:pos:R:3:forces:R:3 energy=-20.112232208251953 free_energy=-20.112232208251953 stress="0.0001259553973795846 1.9731785094734278e-09 5.950829162770788e-09 1.9731785094734278e-09 0.00012597597378771752 -1.4923882574180425e-08 5.950829162770788e-09 -1.4923882574180425e-08 0.00012597795284818858" pbc="T T T"
Ge       2.17611419       1.53874485       3.76913966       0.00000079      -0.00000016      -0.00000031
Ge       6.52834148       4.61623457      11.30741929      -0.00000126      -0.00000003      -0.00000120
Mg      -0.00000000      -0.00000018       0.00000004      -0.00000045       0.00000227       0.00000186
I        2.26636819       1.60256436       7.53827957       0.00218143       0.00154259       0.00000043
I        6.43808729       4.55241543       7.53827973      -0.00218254      -0.00154300       0.00000035
I        5.39515753       1.60256448       5.73187223      -0.00109103       0.00154242       0.00188828
I        3.30929812       4.55241523       9.34468704       0.00109332      -0.00154475      -0.00189084
I        3.30929796       4.55241536       5.73187233       0.00109068      -0.00154181       0.00188955
I        5.39515747       1.60256455       9.34468690      -0.00109092       0.00154246      -0.00188812
