9
Lattice="4.542740186949372 -1.5169654007033608e-08 2.6227522369014595 1.5142467277146001 4.282936537607713 2.622752214326657 2.5901068117983034e-09 -2.5816903565056732e-08 5.245504469316763" Properties=species:S:1:pos:R:3:forces:R:3 energy=-56.686279296875 free_energy=-56.686279296875 stress="-3.5399312764639035e-05 1.1765951057896018e-07 9.363720465671577e-08 1.1765951057896018e-07 -3.578299583750777e-05 -3.075140568853385e-07 9.363720465671577e-08 -3.075140568853385e-07 -3.571502020349726e-05" pbc="T T T"
Ge       1.51424672       1.07073419       2.62275203      -0.00000105      -0.00000247       0.00000930
Ge       4.54274021       3.21220241       7.86825655      -0.00000205       0.00000154       0.00000313
Mn       0.00000017       0.00000008      -0.00000148      -0.00001304       0.00000247       0.00014754
O        1.52816672       1.08057692       5.24550424       0.00072622       0.00052297       0.00000612
O        4.52881993       3.20235917       5.24550453      -0.00070882      -0.00049722       0.00000402
O        3.77865650       1.08057757       3.94618412      -0.00032806       0.00045836       0.00057030
O        2.27832995       3.20235984       6.54482583       0.00038862      -0.00055850      -0.00068069
O        2.27833056       3.20235889       3.94618401       0.00032580      -0.00047135       0.00058818
O        3.77865710       1.08057677       6.54482569      -0.00038803       0.00054610      -0.00064635
