9
Lattice="5.4850557556155515 -5.17210376206395e-08 3.16679852784162 1.828351859969647 5.17136030309804 3.166798544825785 -4.5420590498388504e-08 -1.1315946245186054e-08 6.333597134353989" Properties=species:S:1:pos:R:3:forces:R:3 energy=-41.422061920166016 free_energy=-41.422061920166016 stress="0.00023125043662730604 -1.5966248767540492e-08 2.995518721959911e-09 -1.5966248767540492e-08 0.0002312239375896752 -3.385823621471218e-09 2.995518721959911e-09 -3.385823621471218e-09 0.0002312580036232248" pbc="T T T"
Ge       1.82835350       1.29283993       3.16679955       0.00001219      -0.00000066       0.00000672
Ge       5.48505764       3.87852069       9.50039607       0.00001454       0.00000403       0.00000111
Mn      -0.00000014      -0.00000004      -0.00000024      -0.00000029       0.00000160      -0.00000367
S        1.80735149       1.27799092       6.33359684       0.00449908       0.00318485      -0.00000379
S        5.50605586       3.89336996       6.33359713      -0.00450665      -0.00318316       0.00000007
S        4.58137889       1.27799020       4.73201093      -0.00225717       0.00318131       0.00389850
S        2.73202699       3.89336976       7.93518277       0.00224528      -0.00318182      -0.00390118
S        2.73202700       3.89336939       4.73201090       0.00224730      -0.00318626       0.00389999
S        4.58137908       1.27799028       7.93518298      -0.00225437       0.00318015      -0.00389779
