9
Lattice="5.610682873920272 2.3670379770060067e-08 3.2393293067243825 1.870227686877802 5.289802431089305 3.2393292375790534 8.205676679040086e-08 -2.6662478063755976e-08 6.478658471322286" Properties=species:S:1:pos:R:3:forces:R:3 energy=-27.817554473876953 free_energy=-27.817554473876953 stress="0.00033661435008980334 3.4725111675015796e-08 -1.2641906188548546e-08 3.4725111675015796e-08 0.0003365801239851862 -1.9668044970444498e-08 -1.2641906188548546e-08 -1.9668044970444498e-08 0.0003365912416484207" pbc="T T T"
Ge       1.87022734       1.32245040       3.23932976      -0.00000206      -0.00000040       0.00000398
Ge       5.61068250       3.96735234       9.71798854      -0.00000342       0.00000254       0.00000793
Mg      -0.00000006       0.00000001       0.00000001       0.00000039      -0.00000030      -0.00000038
Cl       1.92102504       1.35836918       6.47865843       0.00075631       0.00053256      -0.00000184
Cl       5.55988615       3.93143295       6.47865804      -0.00075536      -0.00053448      -0.00000347
Cl       4.65017081       1.35836942       4.90298513      -0.00037875       0.00053627       0.00065631
Cl       2.83073978       3.93143321       8.05433170       0.00037900      -0.00053512      -0.00065789
Cl       2.83074013       3.93143291       4.90298508       0.00038147      -0.00053596       0.00065346
Cl       4.65017091       1.35836928       8.05433142      -0.00037757       0.00053490      -0.00065799
