9
Lattice="6.020918219672097 -7.916169515494515e-08 3.4761786907133847 2.0069726387937967 5.676576113619351 3.4761787365478454 -6.731623519675568e-08 8.535748374482848e-09 6.952357498021892" Properties=species:S:1:pos:R:3:forces:R:3 energy=-24.239255905151367 free_energy=-24.239255905151367 stress="0.0001168283706647344 4.502271266915159e-08 -1.8733832263251315e-08 4.502271266915159e-08 0.00011680735042318702 1.6668023405941312e-08 -1.8733832263251315e-08 1.6668023405941312e-08 0.00011683177581289783" pbc="T T T"
Ge       2.00697271       1.41914409       3.47617865       0.00000212       0.00000118       0.00000159
Ge       6.02091767       4.25743249      10.42853689      -0.00000155       0.00000145       0.00000516
Mg      -0.00000003       0.00000009      -0.00000021      -0.00000012      -0.00000193       0.00000255
Br       2.06504258       1.46020548       6.95235744       0.00174119       0.00122970      -0.00000069
Br       5.96284820       4.21637046       6.95235732      -0.00174007      -0.00123194      -0.00000052
Br       4.98839705       1.46020538       5.26455792      -0.00086956       0.00122956       0.00150572
Br       3.03949395       4.21637048       8.64015695       0.00086967      -0.00123203      -0.00150824
Br       3.03949397       4.21637049       5.26455780       0.00086961      -0.00122847       0.00150435
Br       4.98839693       1.46020519       8.64015693      -0.00087130       0.00123242      -0.00150995
