9
Lattice="4.552100157626695 -1.9127689222981092e-07 2.6281560791969714 1.517366609672341 4.29176086546624 2.6281559565659802 -1.0540960393142437e-08 -1.576452618683785e-07 5.256312176651421" Properties=species:S:1:pos:R:3:forces:R:3 energy=-41.019920349121094 free_energy=-41.019920349121094 stress="0.00052398513071239 -3.1247928689026594e-09 9.230544151250797e-08 -3.1247928689026594e-09 0.0005238907178863883 -1.7627272086429002e-08 9.230544151250797e-08 -1.7627272086429002e-08 0.0005240216851234436" pbc="T T T"
Ge       1.51736709       1.07294068       2.62815658       0.00000339       0.00000828       0.00000401
Ge       4.55209926       3.21882136       7.88446782      -0.00000732       0.00000762      -0.00000293
Mg       0.00000004      -0.00000005      -0.00000017       0.00000019       0.00000057       0.00000106
F        1.53268444       1.08377071       5.25631189       0.00487078       0.00343886      -0.00000254
F        4.53678265       3.20798932       5.25631221      -0.00486935      -0.00344659       0.00000245
F        3.78575770       1.08377084       3.95549932      -0.00243591       0.00344063       0.00421621
F        2.28370913       3.20798927       6.55712515       0.00243838      -0.00344539      -0.00421488
F        2.28370882       3.20798908       3.95549904       0.00243504      -0.00344618       0.00421304
F        3.78575789       1.08377069       6.55712491      -0.00243526       0.00344227      -0.00421664
