9
Lattice="6.334148969508313 -2.9587595113228618e-08 3.657022663346531 2.1113829787745844 5.9718928748867395 3.6570226341893117 9.282978076344865e-09 -2.9146098412683534e-08 7.314045310614458" Properties=species:S:1:pos:R:3:forces:R:3 energy=-22.88951301574707 free_energy=-22.88951301574707 stress="0.0002819460059981793 -2.7699953442095193e-09 -1.678759797840712e-09 -2.7699953442095193e-09 0.00028195499908179045 3.972548956454602e-09 -1.678759797840712e-09 3.972548956454602e-09 0.00028194946935400367" pbc="T T T"
Ge       2.11138291       1.49297327       3.65702252       0.00000019       0.00000012       0.00000013
Ge       6.33414896       4.47891959      10.97106795      -0.00000037      -0.00000026       0.00000061
Ni       0.00000014      -0.00000017       0.00000011       0.00000030       0.00000012      -0.00000052
I        2.12447909       1.50223345       7.31404518      -0.00044033      -0.00031063       0.00000015
I        6.32105293       4.46965949       7.31404531       0.00043912       0.00030988      -0.00000036
I        5.27190925       1.50223345       5.49687540       0.00022057      -0.00031043      -0.00038107
I        3.17362243       4.46965954       9.13121525      -0.00022017       0.00031060       0.00038084
I        3.17362270       4.46965936       5.49687552      -0.00021882       0.00031137      -0.00038083
I        5.27190940       1.50223326       9.13121524       0.00021950      -0.00031076       0.00038101
