9
Lattice="4.567368005463514 -3.813263508067031e-08 2.6369710422308668 1.5224560195276102 4.306155694951768 2.636970949292089 6.189549297536578e-08 -7.005957651758359e-08 5.273941977255615" Properties=species:S:1:pos:R:3:forces:R:3 energy=-39.220664978027344 free_energy=-39.220664978027344 stress="0.00033569076913408935 6.854953049639789e-09 8.570578025057785e-09 6.854953049639789e-09 0.0003356386150699109 -1.1724669013446487e-09 8.570578025057785e-09 -1.1724669013446487e-09 0.0003357077366672456" pbc="T T T"
Ge       1.52245643       1.07653986       2.63697109       0.00000104       0.00000669       0.00000181
Ge       4.56736770       3.22961719       7.91091315      -0.00000198       0.00000333       0.00000063
Ni      -0.00000015      -0.00000008      -0.00000004       0.00000294      -0.00000253      -0.00000247
F        1.51954481       1.07447982       5.27394175       0.00012588       0.00008598      -0.00000077
F        4.57027962       3.23167543       5.27394208      -0.00012696      -0.00009039       0.00000050
F        3.80759580       1.07448023       3.95293518      -0.00006203       0.00008830       0.00010820
F        2.28222820       3.23167502       6.59494884       0.00006142      -0.00008986      -0.00010608
F        2.28222826       3.23167500       3.95293477       0.00006363      -0.00009108       0.00010710
F        3.80759563       1.07448009       6.59494892      -0.00006400       0.00008949      -0.00010914
