9
Lattice="5.912627295347475 3.2268674348062105e-09 3.4136568603271558 1.9708757751355126 5.574478365572449 3.4136568482420206 7.270971718031377e-09 -9.659874066961989e-09 6.8273137080606565" Properties=species:S:1:pos:R:3:forces:R:3 energy=-26.177410125732422 free_energy=-26.177410125732422 stress="0.0003652753366623074 -3.0721984956016968e-09 2.8170021870721484e-09 -3.0721984956016968e-09 0.00036529378849081695 6.688711362556887e-09 2.8170021870721484e-09 6.688711362556887e-09 0.00036530703073367476" pbc="T T T"
Ge       1.97087589       1.39361965       3.41365714      -0.00000040      -0.00000027       0.00000041
Ge       5.91262762       4.18085821      10.24097026      -0.00000059      -0.00000007      -0.00000079
Ni      -0.00000007       0.00000019      -0.00000027       0.00000024       0.00000158       0.00000334
Br       1.94753539       1.37711568       6.82731347       0.00217472       0.00153945       0.00000118
Br       5.93596753       4.19736272       6.82731380      -0.00217442      -0.00153860       0.00000114
Br       4.93885949       1.37711562       5.10027222      -0.00108641       0.00153702       0.00188136
Br       2.94464335       4.19736316       8.55435555       0.00108831      -0.00154090      -0.00188658
Br       2.94464350       4.19736266       5.10027228       0.00108655      -0.00153817       0.00188358
Br       4.93885961       1.37711554       8.55435520      -0.00108788       0.00153989      -0.00188370
