9
Lattice="5.385076394349941 1.6438488575149529e-07 3.109075668461665 1.7950256092837718 5.077099817009834 3.109075686618971 -4.5277541953391095e-08 -9.778002345043191e-09 6.2181514153463535" Properties=species:S:1:pos:R:3:forces:R:3 energy=-37.202911376953125 free_energy=-37.202911376953125 stress="2.5511162675684318e-05 1.882915823259168e-09 5.198365737868471e-09 1.882915823259168e-09 2.542009315220639e-05 1.0287731777580689e-09 5.198365737868471e-09 1.0287731777580689e-09 2.55008944805013e-05" pbc="T T T"
Ge       1.79502443       1.26927550       3.10907623      -0.00000481       0.00000246       0.00000379
Ge       5.38507625       3.80782382       9.32722726      -0.00000255      -0.00000536       0.00000206
Ni       0.00000009      -0.00000001      -0.00000010      -0.00000128       0.00000059      -0.00000753
S        1.75969762       1.24429463       6.21815127       0.00084364       0.00059690      -0.00000234
S        5.42040465       3.83280550       6.21815147      -0.00084075      -0.00059612      -0.00000083
S        4.50522810       1.24429484       4.63301834      -0.00042024       0.00059886       0.00073020
S        2.67487422       3.83280547       7.80328416       0.00042021      -0.00059479      -0.00072697
S        2.67487431       3.83280543       4.63301846       0.00042321      -0.00059837       0.00072971
S        4.50522824       1.24429472       7.80328403      -0.00041777       0.00059588      -0.00072812
