9
Lattice="5.527719475712739 -2.2485086988340896e-08 3.191430405053906 1.8425731367687683 5.211583961582527 3.1914304060983505 -3.069217468974532e-08 -2.0423469774257244e-08 6.382860863268194" Properties=species:S:1:pos:R:3:forces:R:3 energy=-29.14845085144043 free_energy=-29.14845085144043 stress="0.00035057630157098174 -1.410219496733589e-08 -2.9723034700168682e-08 -1.410219496733589e-08 0.0003506348584778607 -4.3003849370393255e-09 -2.9723034700168682e-08 -4.3003849370393255e-09 0.00035056634806096554" pbc="T T T"
Ge       1.84257439       1.30289611       3.19143012       0.00000830       0.00000225      -0.00000206
Ge       5.52771957       3.90868772       9.57429020      -0.00000206      -0.00000169      -0.00000688
Ni      -0.00000022       0.00000010       0.00000018      -0.00000117      -0.00000202       0.00000084
Cl       1.82986301       1.29390859       6.38286084       0.00166735       0.00117876       0.00000091
Cl       5.54042923       3.91767547       6.38286135      -0.00166717      -0.00117634       0.00000326
Cl       4.61278762       1.29390856       4.77613839      -0.00083478       0.00117771       0.00144377
Cl       2.75750462       3.91767513       7.98958359       0.00083362      -0.00118004      -0.00144294
Cl       2.75750438       3.91767531       4.77613850       0.00083205      -0.00117852       0.00144510
Cl       4.61278765       1.29390873       7.98958352      -0.00083591       0.00117987      -0.00144161
