9
Lattice="4.43010450157399 3.3269104971277274e-08 2.557722032822204 1.4767015307394682 4.176742536612494 2.5577220348168144 -6.716174492248438e-09 -2.3061549578381226e-09 5.115444077277153" Properties=species:S:1:pos:R:3:forces:R:3 energy=-42.167301177978516 free_energy=-42.167301177978516 stress="0.000768541416618973 -2.8470259039181656e-08 -7.744486829608377e-09 -2.8470259039181656e-08 0.0007686165045015514 -4.0311629589950826e-08 -7.744486829608377e-09 -4.0311629589950826e-08 0.0007687570760026574" pbc="T T T"
Ge       1.47670062       1.04418571       2.55772211      -0.00000537      -0.00000060      -0.00000172
Ge       4.43010459       3.13255631       7.67316468      -0.00000022      -0.00000321      -0.00000730
Ni       0.00000019       0.00000022       0.00000003      -0.00000227      -0.00000429       0.00000249
O        1.46122790       1.03324376       5.11544426      -0.00660044      -0.00467376       0.00000017
O        4.44557808       3.14349914       5.11544462       0.00660576       0.00467657       0.00000249
O        3.69949115       1.03324455       3.82318219       0.00330713      -0.00466878      -0.00572149
O        2.20731504       3.14349817       6.40770632      -0.00330418       0.00467025       0.00572641
O        2.20731470       3.14349844       3.82318247      -0.00330805       0.00467379      -0.00572054
O        3.69949174       1.03324410       6.40770572       0.00330779      -0.00467017       0.00572026
