9
Lattice="6.00258362469659 1.0503544764360527e-07 3.4655932331710386 2.0008612675406416 5.659290122384154 3.4655933019678993 -3.690654445715454e-08 5.816177246574632e-08 6.931186530266052" Properties=species:S:1:pos:R:3:forces:R:3 energy=-32.18751525878906 free_energy=-32.18751525878906 stress="2.2159903892315924e-05 1.4382584012651023e-08 -8.385346639272484e-09 1.4382584012651023e-08 2.213935113104526e-05 6.397255614132291e-09 -8.385346639272484e-09 6.397255614132291e-09 2.2126298063085414e-05" pbc="T T T"
Ge       2.00086188       1.41482281       3.46559339       0.00000169       0.00000007       0.00000045
Ge       6.00258367       4.24446760      10.39678020      -0.00000031       0.00000054       0.00000002
Ni       0.00000014      -0.00000017      -0.00000003      -0.00000176      -0.00000059      -0.00000127
Te       2.05958313       1.45634532       6.93118658      -0.00394435      -0.00278998      -0.00000012
Te       5.94386149       4.20294497       6.93118655       0.00394566       0.00279054       0.00000015
Te       4.97279199       1.45634532       5.24924422       0.00197075      -0.00278871      -0.00341585
Te       3.03065264       4.20294509       8.61312856      -0.00197157       0.00278878       0.00341628
Te       3.03065253       4.20294511       5.24924404      -0.00197177       0.00278829      -0.00341520
Te       4.97279194       1.45634510       8.61312873       0.00197166      -0.00278893       0.00341554
