9
Lattice="5.4063264556097765 -3.8146909634009354e-08 3.121343956506714 1.802108834569852 5.097133455672614 3.1213438664427926 1.2391939756885393e-07 -2.2681132120597536e-08 6.242687698378767" Properties=species:S:1:pos:R:3:forces:R:3 energy=-42.154293060302734 free_energy=-42.154293060302734 stress="2.922862404375337e-05 -5.423527582593124e-08 1.1310059555569296e-08 -5.423527582593124e-08 2.933179166575428e-05 -9.1184730877103e-09 1.1310059555569296e-08 -9.1184730877103e-09 2.9334205464692786e-05" pbc="T T T"
Ge       1.80210931       1.27428396       3.12134401       0.00000228       0.00000447       0.00000334
Ge       5.40632610       3.82285104       9.36403205      -0.00000062       0.00000433       0.00000269
Os       0.00000049       0.00000055       0.00000097       0.00000054       0.00000381       0.00000460
S        1.88125013       1.33024523       6.24268738      -0.00054228      -0.00038487      -0.00000210
S        5.32718492       3.76688835       6.24268744       0.00054294       0.00037891       0.00000045
S        4.46570060       1.33024425       4.75055427       0.00027016      -0.00038874      -0.00047135
S        2.74273408       3.76688807       7.73482029      -0.00027046       0.00038248       0.00047112
S        2.74273519       3.76688782       4.75055482      -0.00027287       0.00038505      -0.00047797
S        4.46570095       1.33024462       7.73482079       0.00027052      -0.00038564       0.00046885
