9
Lattice="4.527576503160199 1.1084342276693672e-07 2.6139974060702933 1.5091922019537454 4.268640273673042 2.613997527782357 -6.728573411404306e-08 1.0148802772316606e-07 5.227994928682886" Properties=species:S:1:pos:R:3:forces:R:3 energy=-45.77168655395508 free_energy=-45.77168655395508 stress="-3.926746649085544e-05 -9.760497299282633e-09 8.576512300351169e-08 -9.760497299282633e-09 -3.92801157431677e-05 -1.502704520817133e-07 8.576512300351169e-08 -1.502704520817133e-07 -3.923329495592043e-05" pbc="T T T"
Ge       1.50919208       1.06716001       2.61399757      -0.00000017      -0.00000099      -0.00000109
Ge       4.52757637       3.20148051       7.84199223      -0.00000022       0.00000268      -0.00000149
Pt      -0.00000010      -0.00000004      -0.00000013       0.00000504       0.00000377       0.00000982
O        1.59114277       1.12510805       5.22799485      -0.00027807      -0.00019643       0.00000026
O        4.44562607       3.14353258       5.22799521       0.00027032       0.00019029       0.00000106
O        3.73200522       1.12510768       3.99196758       0.00013855      -0.00019448      -0.00023538
O        2.30476341       3.14353277       6.46402219      -0.00013486       0.00019050       0.00023159
O        2.30476391       3.14353236       3.99196759      -0.00013614       0.00019747      -0.00024328
O        3.73200491       1.12510818       6.46402248       0.00013536      -0.00019269       0.00023825
