9
Lattice="5.43978249406629 -5.890920723089775e-09 3.1406598640902406 1.8132608059233755 5.128676130238616 3.1406598985200342 -2.4872173324995674e-08 2.4580445341188185e-08 6.281319771260346" Properties=species:S:1:pos:R:3:forces:R:3 energy=-37.95671081542969 free_energy=-37.95671081542969 stress="8.271033584605902e-05 -5.0172310750440374e-08 -1.037754504551458e-08 -5.0172310750440374e-08 8.27671610750258e-05 -1.3557123423879602e-08 -1.037754504551458e-08 -1.3557123423879602e-08 8.276994776679203e-05" pbc="T T T"
Ge       1.81326125       1.28216920       3.14066013       0.00000397       0.00000076       0.00000129
Ge       5.43978212       3.84650676       9.42197960      -0.00000353      -0.00000142       0.00000099
Pt      -0.00000006       0.00000007      -0.00000001      -0.00000066       0.00000034       0.00000094
S        1.86391543       1.31798726       6.28131957       0.00092405       0.00065282       0.00000027
S        5.38912783       3.81068887       6.28131957      -0.00092375      -0.00065196      -0.00000097
S        4.50782438       1.31798754       4.75485800      -0.00045988       0.00065032       0.00079548
S        2.74521867       3.81068869       7.80778156       0.00046089      -0.00065166      -0.00079650
S        2.74521870       3.81068857       4.75485807       0.00045949      -0.00065011       0.00079483
S        4.50782473       1.31798761       7.80778163      -0.00046077       0.00065097      -0.00079566
