9
Lattice="4.450001711527508 -1.8835386077370077e-08 2.5692094011779503 1.4833337223037806 4.195502160720459 2.569209684854268 -1.4323298804189362e-07 2.46149832142077e-07 5.138419050442885" Properties=species:S:1:pos:R:3:forces:R:3 energy=-51.374488830566406 free_energy=-51.374488830566406 stress="4.418905973579967e-06 -8.582011190583216e-08 4.494113525765897e-08 -8.582011190583216e-08 4.036260179418605e-06 -4.968694611307001e-08 4.494113525765897e-08 -4.968694611307001e-08 3.35771028403542e-06" pbc="T T T"
Ge       1.48333888       1.04887423       2.56921335       0.00005263      -0.00000693       0.00003456
Ge       4.45000783       3.14662554       7.70763143       0.00003982      -0.00000941       0.00003197
P        0.00000004       0.00000058       0.00000160      -0.00000487      -0.00000308       0.00001220
O        1.38059065       0.97622647       5.13842042       0.00006771       0.00007081       0.00001897
O        4.55274221       3.21927830       5.13841312      -0.00009775      -0.00006235      -0.00002471
O        3.75969992       0.97622564       3.76483430      -0.00005770       0.00004089       0.00008225
O        2.17362758       3.21928042       6.51200052       0.00004554      -0.00005758      -0.00012338
O        2.17362765       3.21927198       3.76483410       0.00000203      -0.00006461       0.00007451
O        3.75970560       0.97622635       6.51200280      -0.00004804       0.00009179      -0.00010502
