9
Lattice="5.507491655879742 -1.3520269746076465e-07 3.179752116926761 1.835830477922342 5.1925131854319 3.179752024378554 1.3825442246713047e-08 -1.0357191036760094e-07 6.3595042099071595" Properties=species:S:1:pos:R:3:forces:R:3 energy=-36.63352966308594 free_energy=-36.63352966308594 stress="-3.7978443288011476e-05 -8.039327781261818e-08 9.61971906576764e-08 -8.039327781261818e-08 -3.774761353270151e-05 1.5193563740467653e-08 9.61971906576764e-08 1.5193563740467653e-08 -3.79143821191974e-05" pbc="T T T"
Ge       1.83583052       1.29813025       3.17975056       0.00000125       0.00001544      -0.00001310
Ge       5.50749178       3.89438376       9.53925840       0.00000249      -0.00000947       0.00001492
P       -0.00000017      -0.00000004       0.00000003       0.00000514      -0.00000119      -0.00000316
S        1.76517115       1.24816510       6.35950582       0.00157690       0.00111789       0.00000682
S        5.57815074       3.94434804       6.35950315      -0.00158024      -0.00112075      -0.00000610
S        4.62490651       1.24816525       4.70843538      -0.00078529       0.00111961       0.00136298
S        2.71841508       3.94434695       8.01057275       0.00077933      -0.00111771      -0.00135952
S        2.71841665       3.94434738       4.70843482       0.00078827      -0.00111604       0.00135738
S        4.62490628       1.24816516       8.01057258      -0.00078750       0.00111157      -0.00136006
