9
Lattice="5.479382660158427 3.389062922626088e-08 3.163523166399056 1.826460891391016 5.166011449849298 3.1635232136508127 5.252830810763346e-09 6.15856908287565e-08 6.327046323699912" Properties=species:S:1:pos:R:3:forces:R:3 energy=-35.4984245300293 free_energy=-35.4984245300293 stress="-2.11666920222342e-05 -3.5384118746151216e-08 2.3487599420946026e-08 -3.5384118746151216e-08 -2.1146595827303827e-05 5.970832717139274e-09 2.3487599420946026e-08 5.970832717139274e-09 -2.113728078256827e-05" pbc="T T T"
Ge       1.82646086       1.29150326       3.16352277      -0.00000145       0.00000385      -0.00000316
Ge       5.47938216       3.87450798       9.49056851      -0.00000506      -0.00000615      -0.00000890
Pd       0.00000002      -0.00000002       0.00000040       0.00000119       0.00000184      -0.00000913
S        1.90555866       1.34743355       6.32704634      -0.00054711      -0.00038707       0.00000110
S        5.40028484       3.81857780       6.32704674       0.00054836       0.00038618       0.00000506
S        4.52660347       1.34743391       4.81378549       0.00027433      -0.00038517      -0.00047350
S        2.77924053       3.81857750       7.84030759      -0.00027215       0.00038773       0.00047994
S        2.77924024       3.81857788       4.81378562      -0.00027478       0.00038528      -0.00047225
S        4.52660354       1.34743420       7.84030740       0.00027680      -0.00038642       0.00048089
