9
Lattice="4.408088743587881 1.436148196334556e-07 2.5450111861898828 1.4693630112183231 4.155986051305931 2.54501125324161 5.3093995453004854e-08 1.1966436807721086e-07 5.090022280418264" Properties=species:S:1:pos:R:3:forces:R:3 energy=-43.99784851074219 free_energy=-43.99784851074219 stress="0.0004061876970808953 3.10586401042201e-08 2.0703578229586128e-07 3.10586401042201e-08 0.0004061286454088986 -2.558964524723706e-07 2.0703578229586128e-07 -2.558964524723706e-07 0.00040620157960802317" pbc="T T T"
Ge       1.46936283       1.03899595       2.54501121      -0.00000132      -0.00001088       0.00000103
Ge       4.40808867       3.11698930       7.63503307      -0.00000228      -0.00000444      -0.00000274
Pd      -0.00000006       0.00000038       0.00000024      -0.00000629       0.00000288      -0.00002197
O        1.52296439       1.07689803       5.09002216       0.00114459       0.00080734      -0.00000241
O        4.35448763       3.07908856       5.09002257      -0.00113600      -0.00079855       0.00000055
O        3.64660714       1.07689850       3.86393677      -0.00057468       0.00081745       0.00099707
O        2.23084473       3.07908815       6.31610805       0.00056931      -0.00080538      -0.00098643
O        2.23084477       3.07908788       3.86393689       0.00056976      -0.00080916       0.00099042
O        3.64660694       1.07689873       6.31610797      -0.00056303       0.00080094      -0.00097543
