9
Lattice="5.68942672271001 2.5690552674499286e-07 3.284791899691516 1.8964758130883042 5.364042954304074 3.284791905513399 6.81016875222629e-08 5.528548887114835e-08 6.5695836814274085" Properties=species:S:1:pos:R:3:forces:R:3 energy=-35.808589935302734 free_energy=-35.808589935302734 stress="-7.137548527680337e-05 7.927254586093113e-08 -2.06098462740556e-08 7.927254586093113e-08 -7.144817209336907e-05 4.1363822589346455e-08 -2.06098462740556e-08 4.1363822589346455e-08 -7.151370664360002e-05" pbc="T T T"
Ge       1.89647609       1.34101067       3.28479202       0.00000210      -0.00000057       0.00000001
Ge       5.68942635       4.02303086       9.85437612      -0.00000332      -0.00000654       0.00000075
Pt      -0.00000012       0.00000001      -0.00000022      -0.00000253       0.00000026      -0.00000380
Se       1.98378037       1.40274497       6.56958359      -0.00377803      -0.00266927      -0.00000067
Se       5.60212202       3.96129880       6.56958374       0.00377899       0.00267196       0.00000077
Se       4.69753691       1.40274516       5.00279498       0.00188687      -0.00266516      -0.00326821
Se       2.88836594       3.96129874       8.13637196      -0.00188677       0.00266840       0.00326815
Se       2.88836621       3.96129905       5.00279526      -0.00188332       0.00266545      -0.00326506
Se       4.69753668       1.40274480       8.13637246       0.00188600      -0.00266457       0.00326800
