9
Lattice="5.586401343174931 3.929693836536879e-08 3.2253103242357954 1.8621338307496327 5.266909706903678 3.2253103023395355 1.7539684418597884e-08 -1.4414903510194544e-08 6.450620618091948" Properties=species:S:1:pos:R:3:forces:R:3 energy=-34.631587982177734 free_energy=-34.631587982177734 stress="-0.0001543325197417289 5.1204507300894875e-09 -4.548688092853581e-10 5.1204507300894875e-09 -0.00015435367822647095 2.9040476690056494e-09 -4.548688092853581e-10 2.9040476690056494e-09 -0.0001543258986203" pbc="T T T"
Ge       1.86213408       1.31672749       3.22531055       0.00000039      -0.00000016       0.00000149
Ge       5.58640141       3.95018237       9.67593056       0.00000014       0.00000141      -0.00000141
P        0.00000010       0.00000011      -0.00000015      -0.00000395      -0.00000321      -0.00000018
Se       1.87572210       1.32633584       6.45062053      -0.00044334      -0.00031395      -0.00000043
Se       5.57281299       3.94057386       6.45062099       0.00044832       0.00031705       0.00000073
Se       4.64854008       1.32633570       4.84973315       0.00022167      -0.00031583      -0.00038530
Se       2.79999490       3.94057399       8.05150811      -0.00022270       0.00031552       0.00038546
Se       2.79999473       3.94057366       4.84973325      -0.00022338       0.00031483      -0.00038636
Se       4.64854037       1.32633589       8.05150798       0.00022288      -0.00031582       0.00038585
