9
Lattice="4.649032245541149 3.302374120787901e-08 2.6841201255683798 1.5496773871917175 4.383150074252976 2.684120227973717 -5.131806997357963e-08 8.913304345999006e-08 5.368240340022262" Properties=species:S:1:pos:R:3:forces:R:3 energy=-51.212337493896484 free_energy=-51.212337493896484 stress="3.737698352779262e-05 -2.790776720829058e-09 -1.449292241773037e-09 -2.790776720829058e-09 3.736645157914609e-05 -7.4054056220518305e-09 -1.449292241773037e-09 -7.4054056220518305e-09 3.7323734431993216e-05" pbc="T T T"
Ge       1.54967858       1.09578669       2.68411909       0.00000846      -0.00000670      -0.00000828
Ge       4.64903253       3.28736237       8.05235911       0.00000419      -0.00000276      -0.00000935
Ru      -0.00000003      -0.00000011      -0.00000036       0.00000050      -0.00000129      -0.00000119
O        1.50632554       1.06513374       5.36824098       0.00100470       0.00071622       0.00000507
O        4.69238336       3.31801720       5.36824096      -0.00100812      -0.00070761       0.00000087
O        3.89586913       1.06513311       3.98863677      -0.00050546       0.00071140       0.00087208
O        2.30284084       3.31801693       6.74784430       0.00050259      -0.00071211      -0.00086907
O        2.30283978       3.31801722       3.98863731       0.00050099      -0.00070859       0.00087452
O        3.89586855       1.06513364       6.74784443      -0.00050752       0.00071143      -0.00086534
