9
Lattice="5.744626028854823 3.738257170814549e-08 3.316661281867741 1.9148753550326953 5.416085420354126 3.3166613219881595 -4.4316334120070816e-08 1.7800886287582127e-08 6.633322640493637" Properties=species:S:1:pos:R:3:forces:R:3 energy=-42.230079650878906 free_energy=-42.230079650878906 stress="1.650586273171939e-05 4.696118693914286e-08 8.48472847536641e-09 4.696118693914286e-08 1.6460198821732774e-05 9.306018178278919e-09 8.48472847536641e-09 9.306018178278919e-09 1.6474361473228782e-05" pbc="T T T"
Ge       1.91487521       1.35402201       3.31666091       0.00000074       0.00000229      -0.00000184
Ge       5.74462491       4.06206379       9.94998352      -0.00000524      -0.00000084      -0.00000166
Re      -0.00000023      -0.00000013       0.00000019      -0.00000018       0.00000166       0.00000022
Se       1.98014313       1.40017243       6.63332274       0.00005457       0.00003836       0.00000002
Se       5.67935851       4.01591267       6.63332255      -0.00005317      -0.00003892      -0.00000047
Se       4.75455473       1.40017258       5.03151545      -0.00002815       0.00004026       0.00005019
Se       2.90494743       4.01591257       8.23513027       0.00002852      -0.00004029      -0.00004917
Se       2.90494735       4.01591293       5.03151528       0.00003093      -0.00004244       0.00005114
Se       4.75455432       1.40017301       8.23513017      -0.00002831       0.00004005      -0.00004891
