9
Lattice="5.655801577251051 8.585441089600551e-08 3.265378512946469 1.8852672457018895 5.332340900274984 3.2653785608538675 -1.4275061957411434e-08 4.858038996007119e-08 6.530757050618121" Properties=species:S:1:pos:R:3:forces:R:3 energy=-38.945640563964844 free_energy=-38.945640563964844 stress="-1.8010614439845085e-05 2.7643739741733953e-08 1.656738568556193e-08 2.7643739741733953e-08 -1.801933831302449e-05 -2.996135961552682e-08 1.656738568556193e-08 -2.996135961552682e-08 -1.8048134734272026e-05" pbc="T T T"
Ge       1.88526484       1.33308303       3.26537974      -0.00000984      -0.00000837       0.00000513
Ge       5.65580274       3.99925794       9.79613178       0.00000364       0.00001119      -0.00001545
Ru       0.00000016       0.00000083       0.00000033      -0.00000065      -0.00000110       0.00000043
Se       1.98512554       1.40369539       6.53075671       0.00195156       0.00137679      -0.00000170
Se       5.55594377       3.92864515       6.53075808      -0.00194967      -0.00137798       0.00000666
Se       4.66323916       1.40369426       4.98454845      -0.00097603       0.00137265       0.00169757
Se       2.87783026       3.92864663       8.07696691       0.00098100      -0.00137703      -0.00169429
Se       2.87782929       3.92864548       4.98454809       0.00097225      -0.00137553       0.00169423
Se       4.66323960       1.40369543       8.07696639      -0.00097223       0.00137937      -0.00169250
