9
Lattice="5.404814567481236 2.5186447280210154e-08 3.120471161430936 1.8016049111936894 5.095707917637135 3.120471106662416 4.222583491151684e-08 -3.7219304257166695e-08 6.24094224972456" Properties=species:S:1:pos:R:3:forces:R:3 energy=-39.275333404541016 free_energy=-39.275333404541016 stress="5.3720181313110515e-05 -3.9368850401899635e-09 1.1953347645032864e-08 -3.9368850401899635e-09 5.3656396630685776e-05 -9.672090683920942e-09 1.1953347645032864e-08 -9.672090683920942e-09 5.368108759284951e-05" pbc="T T T"
Ge       1.80160482       1.27392698       3.12047171      -0.00000092      -0.00000121       0.00000375
Ge       5.40481440       3.82178036       9.36141404       0.00000012      -0.00000271       0.00000270
Rh       0.00000004       0.00000035      -0.00000015       0.00000197      -0.00000345      -0.00000104
S        1.86038834       1.31549326       6.24094189       0.00047523       0.00033739      -0.00000140
S        5.34603113       3.78021472       6.24094191      -0.00047374      -0.00033486      -0.00000017
S        4.47462061       1.31549333       4.73161425      -0.00023904       0.00033888       0.00041121
S        2.73179897       3.78021482       7.75026998       0.00023770      -0.00033486      -0.00041133
S        2.73179906       3.78021489       4.73161440       0.00023603      -0.00033504       0.00040895
S        4.47462065       1.31549299       7.75027003      -0.00023732       0.00033590      -0.00041264
