9
Lattice="5.375712175794429 8.71807805193517e-08 3.103668858303813 1.791904041118454 5.068270193734737 3.1036690309451203 -9.744825956710546e-08 1.4253530456511088e-07 6.207337885392822" Properties=species:S:1:pos:R:3:forces:R:3 energy=-40.83730697631836 free_energy=-40.83730697631836 stress="7.749035285087302e-05 1.84774382461228e-08 -1.3988375791029739e-08 1.84774382461228e-08 7.743938476778567e-05 2.222753714420378e-08 -1.3988375791029739e-08 2.222753714420378e-08 7.740072760498151e-05" pbc="T T T"
Ge       1.79190477       1.26706720       3.10366868       0.00000796      -0.00000310      -0.00000327
Ge       5.37571196       3.80120254       9.31100695      -0.00000098      -0.00000126      -0.00000166
Ru       0.00000001       0.00000018      -0.00000032       0.00000094      -0.00000076      -0.00000223
S        1.87068466       1.32277396       6.20733819      -0.00722027      -0.00510460       0.00000120
S        5.29693144       3.74549666       6.20733774       0.00721794       0.00510630       0.00000143
S        4.44036967       1.32277410       4.72372900       0.00360629      -0.00510293      -0.00625086
S        2.72724642       3.74549658       7.69094664      -0.00360996       0.00510529       0.00625348
S        2.72724599       3.74549692       4.72372931      -0.00360844       0.00510222      -0.00624788
S        4.44036968       1.32277375       7.69094705       0.00360587      -0.00510123       0.00625014
