9
Lattice="4.501039536800008 2.2197927422989794e-07 2.5986780560660128 1.5003467174488847 4.243621810595058 2.5986780631706132 3.722818992062899e-07 2.719443003444363e-07 5.197355467320874" Properties=species:S:1:pos:R:3:forces:R:3 energy=-46.867279052734375 free_energy=-46.867279052734375 stress="0.0002249117533210665 4.802751973898012e-08 6.870407531778255e-08 4.802751973898012e-08 0.0002249181707156822 8.098459858274509e-08 6.870407531778255e-08 8.098459858274509e-08 0.00022505753440782428" pbc="T T T"
Ge       1.50034603       1.06090375       2.59867852      -0.00000417      -0.00001703       0.00000037
Ge       4.50103974       3.18271283       7.79603341      -0.00000053      -0.00002255      -0.00000014
Rh      -0.00000008       0.00000077       0.00000087      -0.00000008       0.00000075       0.00000295
O        1.56822573       1.10890303       5.19735278      -0.00175628      -0.00124246      -0.00001102
O        4.43316026       3.13472176       5.19735590       0.00175604       0.00125679       0.00000986
O        3.71692932       1.10890468       3.95680314       0.00089596      -0.00124082      -0.00152633
O        2.28445803       3.13471996       6.43791111      -0.00088553       0.00124189       0.00152561
O        2.28445972       3.13471994       3.95680204      -0.00088441       0.00125360      -0.00153109
O        3.71692737       1.10890398       6.43791129       0.00087906      -0.00123051       0.00152972
