9
Lattice="6.153604740528342 2.127094458832275e-08 3.552785367209437 2.051201572215758 5.8016741917863985 3.552785415732418 -4.8566990323565134e-08 2.508623858487334e-08 7.10557081853939" Properties=species:S:1:pos:R:3:forces:R:3 energy=-37.973228454589844 free_energy=-37.973228454589844 stress="7.44070130167529e-05 3.719022956261142e-08 -1.1443398229005197e-08 3.719022956261142e-08 7.439919863827527e-05 2.593909442794029e-08 -1.1443398229005197e-08 2.593909442794029e-08 7.436817395500839e-05" pbc="T T T"
Ge       2.05120166       1.45041845       3.55278515       0.00000110       0.00000076      -0.00000099
Ge       6.15360457       4.35125579      10.65835625      -0.00000089      -0.00000039       0.00000109
Re       0.00000007      -0.00000012       0.00000001      -0.00000021       0.00000137       0.00000404
Te       2.14780538       1.51872782       7.10557089      -0.00036626      -0.00025855       0.00000042
Te       6.05700113       4.28294656       7.10557079       0.00036365       0.00025764      -0.00000080
Te       5.07970203       1.51872776       5.41283949       0.00018334      -0.00025795      -0.00031599
Te       3.12510420       4.28294639       8.79830226      -0.00018115       0.00025608       0.00031261
Te       3.12510428       4.28294656       5.41283916      -0.00017998       0.00025651      -0.00031286
Te       5.07970175       1.51872772       8.79830239       0.00018039      -0.00025547       0.00031242
