9
Lattice="5.6411385737477895 -1.3975438201366916e-07 3.2569124550650326 1.8803794356341907 5.318516325444344 3.2569123809102862 -1.1796553914254794e-07 -1.7423496103409693e-07 6.5138251144522945" Properties=species:S:1:pos:R:3:forces:R:3 energy=-37.198585510253906 free_energy=-37.198585510253906 stress="2.3845435862313025e-05 -6.500707172563125e-08 1.568932539441903e-09 -6.500707172563125e-08 2.38195680140052e-05 2.1259689120256553e-08 1.568932539441903e-09 2.1259689120256553e-08 2.393020440649707e-05" pbc="T T T"
Ge       1.88037064       1.32962571       3.25691072      -0.00003221      -0.00001609      -0.00000414
Ge       5.64113610       3.98889311       9.77074061      -0.00001041       0.00002658       0.00001540
Rh       0.00000111       0.00000048       0.00000051       0.00000268      -0.00000870      -0.00000228
Se       1.98745204       1.40533747       6.51382515       0.00148004       0.00103221       0.00000235
Se       5.53406999       3.91317632       6.51382303      -0.00146767      -0.00104819      -0.00000541
Se       4.64741415       1.40533820       4.97809523      -0.00072480       0.00103574       0.00128351
Se       2.87410505       3.91317888       8.04955338       0.00073716      -0.00102843      -0.00127414
Se       2.87410822       3.91317821       4.97809651       0.00074456      -0.00102696       0.00127162
Se       4.64741445       1.40533605       8.04955449      -0.00072924       0.00103382      -0.00128698
