9
Lattice="4.609648993327819 -4.201160458112751e-08 2.6613823697384418 1.5365496094852311 4.3460188772465225 2.6613823963227414 8.49994875873723e-09 3.856937909217286e-08 5.322764724754521" Properties=species:S:1:pos:R:3:forces:R:3 energy=-57.07674026489258 free_energy=-57.07674026489258 stress="0.0002792732557281852 -5.772588806962631e-08 -3.218317345954347e-08 -5.772588806962631e-08 0.0002793123130686581 4.9421782222225374e-08 -3.218317345954347e-08 4.9421782222225374e-08 0.0002791625738609582" pbc="T T T"
Ge       1.53655058       1.08650541       2.66138202       0.00001039       0.00000427      -0.00000530
Ge       4.60964894       3.25951322       7.98414662       0.00000442      -0.00000902      -0.00000633
Re       0.00000023      -0.00000008      -0.00000011       0.00000076       0.00000336      -0.00000266
O        1.54162358       1.09009269       5.32276497      -0.00481534      -0.00339746       0.00000221
O        4.60457503       3.25592628       5.32276500       0.00480664       0.00339699       0.00000301
O        3.83883667       1.09009309       3.99646719       0.00240362      -0.00339770      -0.00417149
O        2.30736170       3.25592586       6.64906236      -0.00240546       0.00339818       0.00417340
O        2.30736088       3.25592656       3.99646823      -0.00241107       0.00340343      -0.00416255
O        3.83883692       1.09009232       6.64906183       0.00240648      -0.00340223       0.00417078
