9
Lattice="4.649798358485233 -6.702956085113788e-07 2.6845616473211966 1.5499333547571932 4.383876621501019 2.6845595678947887 1.1158302968552051e-05 5.343347590965886e-06 5.369103967892759" Properties=species:S:1:pos:R:3:forces:R:3 energy=-37.09249496459961 free_energy=-37.09249496459961 stress="-0.00012905860785394907 6.108851948738447e-07 -3.6467952213570243e-06 6.108851948738447e-07 -0.0001342825562460348 -2.6770017029775772e-06 -3.6467952213570243e-06 -2.6770017029775772e-06 -0.00012741272803395987" pbc="T T T"
Ge       1.55007140       1.09627755       2.68457863       0.00061681       0.00132352       0.00025756
Ge       4.64982375       3.28780872       8.05421725       0.00011656      -0.00033804       0.00241843
S       -0.00001577      -0.00002104      -0.00006523      -0.00007266      -0.00010583      -0.00023720
F        1.56860308       1.10924832       5.36914114       0.00226971       0.00194517       0.00005810
F        4.63117189       3.27461078       5.36882408      -0.00212413      -0.00206229      -0.00138372
F        3.86550323       1.10936242       4.04290022      -0.00119744       0.00253763       0.00152931
F        2.33408154       3.27454722       6.69522124       0.00034314      -0.00228419      -0.00198567
F        2.33433521       3.27457475       4.04288311       0.00162249      -0.00232462       0.00143795
F        3.86539892       1.10911938       6.69519706      -0.00157453       0.00130873      -0.00209471
