9
Lattice="5.999214830690132 -1.5749303587799506e-07 3.4636479867788936 1.999738167585398 5.656113741547697 3.4636479189265725 -5.252075059431148e-08 -1.2023953073945853e-07 6.927296064526388" Properties=species:S:1:pos:R:3:forces:R:3 energy=-21.397518157958984 free_energy=-21.397518157958984 stress="0.0002952874347101897 3.186409358590936e-08 -2.5074998077911914e-08 3.186409358590936e-08 0.00029522867407649755 -4.044294676930349e-09 -2.5074998077911914e-08 -4.044294676930349e-09 0.00029519820236600935" pbc="T T T"
Ge       1.99973706       1.41402778       3.46364899      -0.00000344      -0.00000274       0.00000475
Ge       5.99921660       4.24208558      10.39094359       0.00000935       0.00000206      -0.00000046
S        0.00000004      -0.00000011      -0.00000027      -0.00000010      -0.00000046       0.00000050
Br       2.03408900       1.43831833       6.92729523       0.00438982       0.00310582      -0.00000108
Br       5.96486392       4.21779490       6.92729541      -0.00439268      -0.00310729       0.00000016
Br       4.98217001       1.43831740       5.22522077      -0.00219688       0.00310339       0.00380570
Br       3.01678247       4.21779596       8.62937132       0.00219675      -0.00310419      -0.00380768
Br       3.01678251       4.21779595       5.22522125       0.00219143      -0.00310279       0.00380300
Br       4.98217022       1.43831807       8.62937147      -0.00219428       0.00310615      -0.00380468
