9
Lattice="4.509148967672138 -3.335702922316497e-07 2.6033581830973183 1.5030492935461932 4.251265842351622 2.6033582659783883 -3.645230241676022e-07 -1.5624846343093412e-07 5.206716997567059" Properties=species:S:1:pos:R:3:forces:R:3 energy=-50.33302307128906 free_energy=-50.33302307128906 stress="-0.0001559896772960201 5.34422710529725e-08 -1.0662781591008752e-07 5.34422710529725e-08 -0.00015604766667820513 -1.6012677406251896e-07 -1.0662781591008752e-07 -1.6012677406251896e-07 -0.0001560427190270275" pbc="T T T"
Ge       1.50304910       1.06281825       2.60335784      -0.00001002       0.00002128      -0.00000193
Ge       4.50914687       3.18845261       7.81007472      -0.00001020       0.00003222      -0.00000718
Si       0.00000023      -0.00000004      -0.00000031      -0.00000458      -0.00000608       0.00000470
O        1.44031725       1.01845453       5.20671610       0.00084865       0.00057864       0.00000330
O        4.57188329       3.23280664       5.20671614      -0.00083089      -0.00059855      -0.00000490
O        3.78899234       1.01845552       3.85070976      -0.00041378       0.00058615       0.00073302
O        2.22320773       3.23280953       6.56272444       0.00042486      -0.00060034      -0.00072813
O        2.22320568       3.23280760       3.85070862       0.00042278      -0.00060618       0.00072181
O        3.78898979       1.01845648       6.56272558      -0.00042695       0.00059307      -0.00071979
