9
Lattice="6.163389662442994 -3.2128507631525836e-08 3.5584346669807987 2.0544632014609134 5.810899453400744 3.5584346480363003 1.482632853254339e-08 -1.2718389490835916e-08 7.116869308281649" Properties=species:S:1:pos:R:3:forces:R:3 energy=-30.0185546875 free_energy=-30.0185546875 stress="6.772170308977365e-05 3.1238325259863586e-09 -1.4224043054511526e-09 3.1238325259863586e-09 6.773114728275687e-05 2.5433650741035763e-09 -1.4224043054511526e-09 2.5433650741035763e-09 6.771658081561327e-05" pbc="T T T"
Ge       2.05446296       1.45272480       3.55843456      -0.00000138       0.00000122      -0.00000074
Ge       6.16338969       4.35817433      10.67530351       0.00000033      -0.00000157      -0.00000331
Si      -0.00000002       0.00000009      -0.00000015       0.00000063       0.00000035       0.00000004
Te       2.15158919       1.52140343       7.11686927       0.00074518       0.00052781       0.00000069
Te       6.06626375       4.28949612       7.11686948      -0.00074603      -0.00052820       0.00000150
Te       5.08759511       1.52140328       5.42176565      -0.00037243       0.00052701       0.00064639
Te       3.13025791       4.28949616       8.81197316       0.00037384      -0.00052818      -0.00064541
Te       3.13025767       4.28949600       5.42176588       0.00037203      -0.00052768       0.00064657
Te       5.08759526       1.52140346       8.81197311      -0.00037210       0.00052928      -0.00064568
