9
Lattice="6.531808496683664 1.307637094224639e-07 3.7711413048848037 2.1772696358592127 6.158248168443494 3.7711412811912863 -3.498589576517466e-08 -5.375730215990661e-08 7.54228267036694" Properties=species:S:1:pos:R:3:forces:R:3 energy=-18.90918731689453 free_energy=-18.90918731689453 stress="-7.486836693715304e-05 3.807377080278229e-09 -1.319315323655701e-09 3.807377080278229e-09 -7.48511592973955e-05 -8.998700451456898e-09 -1.319315323655701e-09 -8.998700451456898e-09 -7.486047979909927e-05" pbc="T T T"
Ge       2.17726939       1.53956198       3.77114150      -0.00000086      -0.00000027       0.00000039
Ge       6.53180852       4.61868632      11.31342420       0.00000013       0.00000024       0.00000011
S       -0.00000003      -0.00000037      -0.00000026       0.00000047      -0.00000141       0.00000105
I        2.32052652       1.64086002       7.54228286      -0.00348419      -0.00246332       0.00000010
I        6.38855183       4.51738852       7.54228260       0.00348350       0.00246298      -0.00000034
I        5.37154546       1.64085996       5.78077558       0.00174123      -0.00246309      -0.00301649
I        3.33753258       4.51738845       9.30378909      -0.00174138       0.00246365       0.00301613
I        3.33753258       4.51738835       5.78077601      -0.00174177       0.00246364      -0.00301610
I        5.37154558       1.64085978       9.30378936       0.00174285      -0.00246231       0.00301524
