9
Lattice="5.6547303238216795 -1.5955171574217199e-07 3.2647603632794473 1.8849100122457225 5.3313308208534345 3.264760268480879 2.686340819138125e-08 -9.710871251799384e-08 6.529520680030101" Properties=species:S:1:pos:R:3:forces:R:3 energy=-34.40928649902344 free_energy=-34.40928649902344 stress="-1.0800024028867483e-05 -2.3996971521000887e-08 7.125141365804666e-09 -2.3996971521000887e-08 -1.081404752767412e-05 -1.589173592719817e-08 7.125141365804666e-09 -1.589173592719817e-08 -1.0823306183738168e-05" pbc="T T T"
Ge       1.88491425       1.33283214       3.26476086       0.00002925      -0.00000311       0.00000122
Ge       5.65472981       3.99849930       9.79428316      -0.00000513       0.00001154       0.00001351
Si       0.00000026       0.00000016      -0.00000012      -0.00000195       0.00000486      -0.00000221
Se       1.93674890       1.36948612       6.52952082      -0.00242300      -0.00172023       0.00000146
Se       5.60289242       3.96184451       6.52951955       0.00241886       0.00171950      -0.00000560
Se       4.68635465       1.36948784       4.94203206       0.00120324      -0.00171374      -0.00210925
Se       2.85328418       3.96184383       8.11700826      -0.00121326       0.00171523       0.00209867
Se       2.85328419       3.96184252       4.94203202      -0.00120923       0.00171056      -0.00210340
Se       4.68635279       1.36948585       8.11700858       0.00120121      -0.00172460       0.00210553
