9
Lattice="5.494356553530768 -1.6074654881950695e-07 3.172168849884687 1.8314519975426578 5.180131156013334 3.172168911223947 -3.097611038946921e-07 -1.4390913948360988e-07 6.344338236291312" Properties=species:S:1:pos:R:3:forces:R:3 energy=-36.468170166015625 free_energy=-36.468170166015625 stress="-0.0004806779616046697 -1.0127590321928892e-08 -1.4011495075294533e-08 -1.0127590321928892e-08 -0.0004805559292435646 4.459663927036672e-08 -1.4011495075294533e-08 4.459663927036672e-08 -0.00048065828741528094" pbc="T T T"
Ge       1.83145394       1.29503180       3.17216969       0.00001445      -0.00000065       0.00000714
Ge       5.49435756       3.88509653       9.51650891       0.00001137      -0.00001851       0.00001671
Si      -0.00000149      -0.00000115      -0.00000044       0.00000966       0.00000974       0.00000398
S        1.83402442       1.29685468       6.34433802      -0.00186992      -0.00131044       0.00000070
S        5.49178326       3.88327857       6.34433701       0.00184488       0.00131285      -0.00000636
S        4.57734272       1.29685449       4.76048137       0.00092807      -0.00131151      -0.00162125
S        2.74846369       3.88327777       7.92819377      -0.00093383       0.00131434       0.00160426
S        2.74846464       3.88327749       4.76048144      -0.00092837       0.00131616      -0.00161248
S        4.57734351       1.29685288       7.92819388       0.00092354      -0.00131208       0.00160748
