9
Lattice="4.427462401653781 9.888842911035742e-08 2.556196420030879 1.4758208047133636 4.174251929973597 2.556196574305992 -9.64731294316744e-08 1.2073086990265257e-07 5.11239300715812" Properties=species:S:1:pos:R:3:forces:R:3 energy=-48.27558517456055 free_energy=-48.27558517456055 stress="3.657452907646075e-05 -9.242392451369597e-08 1.2139089733409492e-07 -9.242392451369597e-08 3.6466681194724515e-05 8.858679478862541e-08 1.2139089733409492e-07 8.858679478862541e-08 3.6145098420092836e-05" pbc="T T T"
Ge       1.47582126       1.04356326       2.55619663       0.00000238       0.00000073      -0.00000001
Ge       4.42746201       3.13068915       7.66859002      -0.00000028       0.00000173       0.00000425
S       -0.00000009      -0.00000003      -0.00000017       0.00000175       0.00000229      -0.00000298
O        1.33828362       0.94630937       5.11239280       0.00144458       0.00102055      -0.00000481
O        4.56499938       3.22794266       5.11239296      -0.00145173      -0.00102663       0.00000385
O        3.75832090       0.94630962       3.71518392      -0.00072229       0.00102103       0.00125444
O        2.14496214       3.22794251       6.50960177       0.00072312      -0.00102079      -0.00125396
O        2.14496277       3.22794235       3.71518365       0.00072300      -0.00102556       0.00125456
O        3.75832011       0.94630961       6.50960196      -0.00071931       0.00102472      -0.00125325
