9
Lattice="5.5443897372061 -1.2161060885620308e-07 3.201054785304234 1.8481298379771245 5.227300613059902 3.2010547156226896 1.1062244326040957e-07 -7.120259481341134e-09 6.402109379004741" Properties=species:S:1:pos:R:3:forces:R:3 energy=-32.413780212402344 free_energy=-32.413780212402344 stress="-9.733718616189435e-05 -1.7324383705386026e-08 -1.3315201385921682e-08 -1.7324383705386026e-08 -9.734222840052098e-05 -1.1881401640323475e-08 -1.3315201385921682e-08 -1.1881401640323475e-08 -9.735635103425011e-05" pbc="T T T"
Ge       1.84813043       1.30682508       3.20105436      -0.00000031      -0.00000141      -0.00000408
Ge       5.54439052       3.92047575       9.60316349       0.00000590       0.00000305      -0.00000255
Se      -0.00000022      -0.00000013      -0.00000025       0.00000029       0.00000156       0.00000251
S        1.82357358       1.28946094       6.40211003      -0.00474191      -0.00335401       0.00000463
S        5.56894601       3.93783935       6.40211016       0.00474232       0.00335535       0.00000251
S        4.63260293       1.28946118       4.78031565       0.00237325      -0.00335917      -0.00411004
S        2.75991644       3.93783921       8.02390280      -0.00237480       0.00335482       0.00410718
S        2.75991631       3.93783938       4.78031606      -0.00237644       0.00335684      -0.00410897
S        4.63260295       1.28946110       8.02390325       0.00237167      -0.00335729       0.00410891
