9
Lattice="4.461905552238718 8.104568387414533e-08 2.5760823970992326 1.487301915228854 4.206725079922833 2.576082417759149 4.544289836023677e-08 5.7436094654318866e-08 5.152164715489062" Properties=species:S:1:pos:R:3:forces:R:3 energy=-45.007442474365234 free_energy=-45.007442474365234 stress="0.0004080846847500652 4.033294231930995e-08 -7.35563006060147e-08 4.033294231930995e-08 0.00040817190892994404 -5.669445357625591e-08 -7.35563006060147e-08 -5.669445357625591e-08 0.0004080958024132997" pbc="T T T"
Ge       1.48730195       1.05168144       2.57608220       0.00000122       0.00000052      -0.00000143
Ge       4.46190575       3.15504381       7.72824697       0.00000192       0.00000062      -0.00000130
Se       0.00000004       0.00000010      -0.00000011       0.00000034      -0.00000104       0.00000123
O        1.48438552       1.04961905       5.15216475       0.00009155       0.00006139       0.00000210
O        4.46482186       3.15710620       5.15216491      -0.00009167      -0.00006282      -0.00000083
O        3.71971294       1.04961898       3.86159789      -0.00004554       0.00006521       0.00007904
O        2.22949458       3.15710618       6.44273185       0.00004411      -0.00006342      -0.00007570
O        2.22949436       3.15710601       3.86159804       0.00004482      -0.00006413       0.00007653
O        3.71971303       1.04961905       6.44273174      -0.00004673       0.00006378      -0.00007761
