9
Lattice="5.6432255220903755 -6.430968737706568e-08 3.2581177700610904 1.881075114559261 5.3204836691310655 3.258117768050362 -1.1739342441449686e-08 -1.0763580313954542e-08 6.516235560455333" Properties=species:S:1:pos:R:3:forces:R:3 energy=-24.305431365966797 free_energy=-24.305431365966797 stress="0.00017277665028814226 8.94816398755438e-09 -7.965061143977437e-08 8.94816398755438e-09 0.00017274508718401194 -2.825790801352923e-08 -7.965061143977437e-08 -2.825790801352923e-08 0.00017268631199840456" pbc="T T T"
Ge       1.88107522       1.33012021       3.25811759       0.00000102      -0.00000610       0.00000178
Ge       5.64322583       3.99036345       9.77435455      -0.00000232       0.00000479       0.00000801
S        0.00000005       0.00000010       0.00000016       0.00000046      -0.00000047      -0.00000017
Cl       1.90254781       1.34530385       6.51623539      -0.00131378      -0.00092937       0.00000081
Cl       5.62175274       3.97517973       6.51623485       0.00131261       0.00092992      -0.00000457
Cl       4.69195161       1.34530429       4.90577250       0.00065651      -0.00092918      -0.00113875
Cl       2.83234910       3.97517961       8.12669838      -0.00065754       0.00092953       0.00113453
Cl       2.83234875       3.97517950       4.90577281      -0.00065365       0.00092888      -0.00113770
Cl       4.69195137       1.34530362       8.12669828       0.00065657      -0.00092809       0.00113627
