9
Lattice="6.156249406268717 -3.996869612657388e-08 3.554312213814864 2.052083110560346 5.804167576431758 3.5543121916094176 -2.1008071690594083e-08 -4.205090863081276e-08 7.108624464016748" Properties=species:S:1:pos:R:3:forces:R:3 energy=-34.8728141784668 free_energy=-34.8728141784668 stress="6.216509791556746e-05 -3.852178664942585e-08 5.570115035880008e-09 -3.852178664942585e-08 6.218257476575673e-05 -1.1003733035863661e-08 5.570115035880008e-09 -1.1003733035863661e-08 6.222403317224234e-05" pbc="T T T"
Ge       2.05208342       1.45104256       3.55431216       0.00000100       0.00000259      -0.00000014
Ge       6.15624917       4.35312504      10.66293679      -0.00000135      -0.00000237       0.00000219
Ti       0.00000021       0.00000002       0.00000016       0.00000075       0.00000061      -0.00000386
Te       2.17443367       1.53755687       7.10862439      -0.00005846      -0.00004104      -0.00000028
Te       6.03389860       4.26661046       7.10862434       0.00005805       0.00004005      -0.00000101
Te       5.06903253       1.53755693       5.43742706       0.00002965      -0.00004101      -0.00005277
Te       3.13930002       4.26661049       8.77982182      -0.00003166       0.00004383       0.00005430
Te       3.13930002       4.26661059       5.43742706      -0.00002941       0.00004217      -0.00005382
Te       5.06903235       1.53755701       8.77982171       0.00003139      -0.00004482       0.00005542
