9
Lattice="4.696845836614489 -3.6304346578990207e-09 2.7117252836254964 1.565615241887204 4.42822828753767 2.711725341755662 -2.2221894301007453e-08 5.548137061904712e-08 5.423450605740498" Properties=species:S:1:pos:R:3:forces:R:3 energy=-52.48014831542969 free_energy=-52.48014831542969 stress="9.745802526595071e-05 -3.654520241980208e-08 -1.8235629672957998e-09 -3.654520241980208e-08 9.733599290484563e-05 1.9934449646541452e-09 -1.8235629672957998e-09 1.9934449646541452e-09 9.738527296576649e-05" pbc="T T T"
Ge       1.56561361       1.10705729       2.71172638      -0.00001595      -0.00000064       0.00001112
Ge       4.69684444       3.32117096       8.13517668      -0.00001473      -0.00000416       0.00000852
Ti      -0.00000035      -0.00000033       0.00000044      -0.00000394       0.00000049       0.00000300
O        1.55390991       1.09877941       5.42345035      -0.00644600      -0.00456321      -0.00000261
O        4.70855140       3.32944818       5.42345031       0.00645614       0.00456244      -0.00000283
O        3.91989227       1.09878070       4.05745063       0.00323534      -0.00456059      -0.00558907
O        2.34257050       3.32944952       6.78945018      -0.00322223       0.00456512       0.00558221
O        2.34257074       3.32944749       4.05744994      -0.00322127       0.00455952      -0.00559515
O        3.91989196       1.09878019       6.78945073       0.00323263      -0.00455976       0.00558507
