9
Lattice="5.696760410452799 -3.981133035608623e-08 3.2890260876153126 1.8989200718528827 5.370957487221804 3.2890261351258276 2.1185237031844855e-07 2.079904995221419e-07 6.578051808291553" Properties=species:S:1:pos:R:3:forces:R:3 energy=-38.931766510009766 free_energy=-38.931766510009766 stress="8.060414984356612e-06 -1.2007610017406023e-08 2.837720947113098e-09 -1.2007610017406023e-08 8.03208695288049e-06 1.5332327629735687e-09 2.837720947113098e-09 1.5332327629735687e-09 8.074533070612233e-06" pbc="T T T"
Ge       1.89892121       1.34274288       3.28902549       0.00000404       0.00001811      -0.00000138
Ge       5.69675837       4.02821479       9.86707609      -0.00001016      -0.00001807      -0.00000943
V        0.00000009      -0.00000029       0.00000066      -0.00000092       0.00000118      -0.00000176
Se       1.93800342       1.37037665       6.57805157      -0.00197791      -0.00139451       0.00000091
Se       5.65767750       4.00058139       6.57805261       0.00197786       0.00139345       0.00000410
Se       4.72775904       1.37037653       4.96738611       0.00099018      -0.00139417      -0.00171407
Se       2.86792219       4.00058118       8.18871882      -0.00098469       0.00139186       0.00171755
Se       2.86792199       4.00058080       4.96738557      -0.00098696       0.00139335      -0.00171497
Se       4.72775905       1.37037682       8.18871918       0.00098860      -0.00139120       0.00171876
