9
Lattice="5.471295980988086 -9.377060778533119e-08 3.158854185196508 1.8237652591748668 5.1583872896190215 3.158854149539365 1.0467095754944621e-08 -3.626945826204402e-08 6.317708352263428" Properties=species:S:1:pos:R:3:forces:R:3 energy=-41.87060546875 free_energy=-41.87060546875 stress="2.323042463103775e-05 -9.675994760982576e-08 3.672441906132917e-08 -9.675994760982576e-08 2.3310463802772574e-05 3.72129740355831e-08 3.672441906132917e-08 3.72129740355831e-08 2.334770942979958e-05" pbc="T T T"
Ge       1.82376733       1.28959990       3.15885251       0.00001466       0.00002480      -0.00001252
Ge       5.47129574       3.86879138       9.47656640      -0.00000008       0.00000940       0.00002829
V       -0.00000071      -0.00000108       0.00000025       0.00000819       0.00001670      -0.00000407
S        1.83067512       1.29448187       6.31770882       0.00028303       0.00019768       0.00000157
S        5.46438832       3.86390501       6.31770691      -0.00030351      -0.00022075      -0.00001236
S        4.55595822       1.29448316       4.74426454      -0.00014271       0.00020662       0.00024194
S        2.73910181       3.86390272       7.89115195       0.00013815      -0.00021297      -0.00024760
S        2.73910278       3.86390445       4.74426426       0.00015120      -0.00021291       0.00024942
S        4.55595646       1.29448128       7.89115115      -0.00014877       0.00019145      -0.00024495
