9
Lattice="4.074154355691199 -1.058778726784201e-07 2.3522140556271527 1.3580513934954588 3.841149216467057 2.352213983883849 6.124028354593683e-08 -4.456381979052882e-08 4.7044280051830185" Properties=species:S:1:pos:R:3:forces:R:3 energy=-74.88908386230469 free_energy=-74.88908386230469 stress="-0.00017666586791165173 -3.504589507485889e-09 1.294431797305151e-07 -3.504589507485889e-09 -0.0001767324429238215 7.397305434864165e-09 1.294431797305151e-07 7.397305434864165e-09 -0.0001767846551956609" pbc="T T T"
Hf       1.35805136       0.96028700       2.35221410      -0.00000016       0.00000200      -0.00000263
Hf       4.07415453       2.88086165       7.05664220       0.00000090      -0.00000163       0.00000204
C       -0.00000030       0.00000113      -0.00000130      -0.00000941       0.00002565      -0.00003124
O        1.29408990       0.91505965       4.70442807       0.00048822       0.00034559      -0.00000181
O        4.13811577       2.92608916       4.70442795      -0.00050032      -0.00034305       0.00000630
O        3.42710939       0.91505989       3.47292908      -0.00025040       0.00034058       0.00042534
O        2.00509644       2.92608951       5.93592727       0.00025222      -0.00034744      -0.00042987
O        2.00509679       2.92608890       3.47292941       0.00025374      -0.00035793       0.00044131
O        3.42710958       0.91505926       5.93592785      -0.00023571       0.00033706      -0.00041080
