9
Lattice="6.013394910084205 4.4843963861573174e-08 3.471835072687755 2.0044650199685243 5.6694830367843645 3.4718350594182468 -9.627521559357526e-09 -2.3059458947403247e-08 6.9436701620508465" Properties=species:S:1:pos:R:3:forces:R:3 energy=-46.825050354003906 free_energy=-46.825050354003906 stress="-1.241699283127673e-05 5.628383448197383e-08 -1.889165446300467e-08 5.628383448197383e-08 -1.2431732102413662e-05 -1.519336212396638e-09 -1.889165446300467e-08 -1.519336212396638e-09 -1.2420076927810442e-05" pbc="T T T"
Hf       2.00446497       1.41737036       3.47183512      -0.00000041      -0.00000276       0.00000107
Hf       6.01339521       4.25211309      10.41550552       0.00000054       0.00000414       0.00000141
Cr       0.00000004       0.00000017      -0.00000038      -0.00000412      -0.00000350       0.00000057
Te       2.03250216       1.43719608       6.94367015       0.00030419       0.00021476      -0.00000013
Te       5.98535769       4.23228662       6.94366995      -0.00029825      -0.00021215       0.00000048
Te       4.99714375       1.43719574       5.23203323      -0.00015530       0.00021298       0.00026387
Te       3.02071594       4.23228733       8.65530708       0.00015392      -0.00021459      -0.00026568
Te       3.02071609       4.23228726       5.23203326       0.00015374      -0.00021492       0.00026539
Te       4.99714384       1.43719556       8.65530724      -0.00015438       0.00021612      -0.00026678
