9
Lattice="5.513701410490801 -5.591072668947395e-08 3.1833368232356287 1.8379004161130807 5.198367355315702 3.1833368255520393 2.045042105340147e-08 1.72976541158708e-08 6.366673611050072" Properties=species:S:1:pos:R:3:forces:R:3 energy=-48.5301399230957 free_energy=-48.5301399230957 stress="-0.0004702397563960403 2.960907252713696e-08 -2.954983635561348e-08 2.960907252713696e-08 -0.00047020017518661916 -2.4289928290954776e-08 -2.954983635561348e-08 -2.4289928290954776e-08 -0.0004702725855167955" pbc="T T T"
Hf       1.83790047       1.29958976       3.18333595       0.00000118      -0.00001973      -0.00000652
Hf       5.51370261       3.89877552       9.55001191       0.00000720       0.00000265       0.00001063
Co       0.00000005       0.00000002      -0.00000008       0.00000053       0.00000156       0.00000048
Se       1.85925963       1.31469533       6.36667391      -0.00703266      -0.00497258       0.00000376
Se       5.49234142       3.88367327       6.36667328       0.00702545       0.00497925      -0.00000452
Se       4.58407163       1.31469554       4.79350239       0.00351718      -0.00496846      -0.00609174
Se       2.76752962       3.88367237       7.93984425      -0.00351900       0.00497317       0.00608549
Se       2.76753024       3.88367283       4.79350326      -0.00351439       0.00497937      -0.00608343
Se       4.58407168       1.31469465       7.93984421       0.00351469      -0.00497496       0.00608650
