9
Lattice="4.222504156822842 -2.296914530267202e-08 2.4378639452421953 1.407501385675876 3.9810151264497566 2.4378639076155064 6.344601570071138e-08 -1.2199670453705505e-09 4.875727780592652" Properties=species:S:1:pos:R:3:forces:R:3 energy=-73.40556335449219 free_energy=-73.40556335449219 stress="-0.0005062341806478798 -3.329321174305733e-08 -1.0014473872388407e-07 -3.329321174305733e-08 -0.0005062345881015062 -6.65808528310663e-08 -1.0014473872388407e-07 -6.65808528310663e-08 -0.000506246869917959" pbc="T T T"
Hf       1.40750135       0.99525363       2.43786415      -0.00000196      -0.00000301       0.00000351
Hf       4.22250411       2.98576102       7.31359223      -0.00000145      -0.00000329       0.00000458
Cr      -0.00000021      -0.00000015       0.00000004       0.00001691       0.00001521       0.00001441
O        1.46607883       1.03667396       4.87572758       0.00605819       0.00428665      -0.00000044
O        4.16392691       2.94434160       4.87572778      -0.00608326      -0.00430042      -0.00000078
O        3.48946507       1.03667446       3.70752505      -0.00302506       0.00429355       0.00524800
O        2.14054068       2.94434107       6.04393035       0.00303704      -0.00429846      -0.00526325
O        2.14054062       2.94434083       3.70752532       0.00303000      -0.00428427       0.00525109
O        3.48946510       1.03667406       6.04393021      -0.00302961       0.00429399      -0.00525688
