9
Lattice="5.552104000897214 -3.98208123815372e-08 3.20550889081223 1.8507012927489814 5.234573992532396 3.2055088965972676 -1.0928858751409829e-08 -6.426722495777108e-10 6.411017800553795" Properties=species:S:1:pos:R:3:forces:R:3 energy=-51.67254638671875 free_energy=-51.67254638671875 stress="-0.00010017021850217134 -6.773063176979122e-08 -2.291998058012723e-08 -6.773063176979122e-08 -0.00010018678585765883 4.719165946909243e-09 -2.291998058012723e-08 4.719165946909243e-09 -0.000100168508652132" pbc="T T T"
Hf       1.85070093       1.30864365       3.20550872      -0.00000298       0.00000055      -0.00000189
Hf       5.55210441       3.92593058       9.61652663       0.00000447       0.00000352      -0.00000217
Cr       0.00000014      -0.00000005      -0.00000001      -0.00000207       0.00000226      -0.00000023
Se       1.88113988       1.33016656       6.41101788       0.00077662       0.00054692       0.00000223
Se       5.52166538       3.90440728       6.41101773      -0.00077769      -0.00055078      -0.00000019
Se       4.61153427       1.33016674       4.83462406      -0.00038441       0.00054915       0.00067124
Se       2.79127113       3.90440698       7.98741168       0.00038721      -0.00054964      -0.00067008
Se       2.79127069       3.90440711       4.83462409       0.00038502      -0.00054908       0.00067158
Se       4.61153427       1.33016696       7.98741158      -0.00038636       0.00054698      -0.00067016
