9
Lattice="5.309680532591868 -1.1704349701707462e-08 3.065545376615082 1.7698934720680104 5.006014847085133 3.0655454246985503 -3.440071964236707e-08 3.456494965519122e-08 6.1310908128139845" Properties=species:S:1:pos:R:3:forces:R:3 energy=-56.453548431396484 free_energy=-56.453548431396484 stress="-5.790298746433109e-05 7.700356796647156e-09 -3.4660281755805045e-08 7.700356796647156e-09 -5.7952918723458424e-05 4.606257775208178e-08 -3.4660281755805045e-08 4.606257775208178e-08 -5.7953970099333674e-05" pbc="T T T"
Hf       1.76989395       1.25150334       3.06554488       0.00000357      -0.00000135      -0.00000421
Hf       5.30968050       3.75451227       9.19663591       0.00000056       0.00000831      -0.00000051
Cr      -0.00000004       0.00000032      -0.00000020       0.00000056      -0.00000414       0.00000084
S        1.82551467       1.29083324       6.13109054      -0.00088692      -0.00063434      -0.00000051
S        5.25405884       3.71518190       6.13109096       0.00088966       0.00063604       0.00000105
S        4.39692347       1.29083358       4.64648774       0.00044745      -0.00063142      -0.00076997
S        2.68265032       3.71518045       7.61569460      -0.00045142       0.00062644       0.00077626
S        2.68265064       3.71518109       4.64648735      -0.00044557       0.00062934      -0.00077170
S        4.39692353       1.29083339       7.61569466       0.00044248      -0.00062919       0.00076872
