9
Lattice="5.959463145355794 -7.203473773509178e-08 3.4406976817007626 1.9864876628879125 5.618635548645217 3.440697654534757 6.375934619859098e-08 1.181325430800336e-08 6.881395252967099" Properties=species:S:1:pos:R:3:forces:R:3 energy=-45.182430267333984 free_energy=-45.182430267333984 stress="-0.00014841147640254349 -1.243503966463777e-08 1.0316387744069289e-09 -1.243503966463777e-08 -0.0001484973618062213 -1.9130638406750222e-08 1.0316387744069289e-09 -1.9130638406750222e-08 -0.0001484566746512428" pbc="T T T"
Hf       1.98648806       1.40465873       3.44069740       0.00000095       0.00000017      -0.00000131
Hf       5.95946332       4.21397722      10.32209336       0.00000042       0.00000289       0.00000079
Co      -0.00000006      -0.00000014      -0.00000001       0.00000034       0.00000023      -0.00000002
Te       1.97727867       1.39814718       6.88139529       0.00223159       0.00157650       0.00000028
Te       5.96867222       4.22048821       6.88139527      -0.00223358      -0.00157759       0.00000017
Te       4.97082367       1.39814693       5.15307121      -0.00111650       0.00157718       0.00193071
Te       2.97512699       4.22048840       8.60971920       0.00111509      -0.00157790      -0.00193013
Te       2.97512716       4.22048860       5.15307141       0.00111627      -0.00157926       0.00192931
Te       4.97082345       1.39814683       8.60971929      -0.00111477       0.00157782      -0.00192967
