9
Lattice="4.194935267830641 2.095010600555034e-08 2.4219469206675424 1.3983117770926057 3.9550228569496904 2.4219469182476874 -3.237509266658095e-08 -2.5856361744050198e-08 4.843893897410391" Properties=species:S:1:pos:R:3:forces:R:3 energy=-69.82508087158203 free_energy=-69.82508087158203 stress="0.0002154732937924564 4.916912033081644e-08 1.1563864887875752e-07 4.916912033081644e-08 0.00021535542327910662 2.1924788651261906e-09 1.1563864887875752e-07 2.1924788651261906e-09 0.00021514578838832676" pbc="T T T"
Hf       1.39831189       0.98875631       2.42194710       0.00000517       0.00000525      -0.00000006
Hf       4.19493519       2.96626666       7.26583981       0.00000031      -0.00000258      -0.00001237
Co       0.00000031      -0.00000010       0.00000004      -0.00000530       0.00000426      -0.00000270
O        1.45521039       1.02898893       4.84389411       0.00369465       0.00261492       0.00000132
O        4.13803660       2.92603422       4.84389423      -0.00370219      -0.00262129       0.00000327
O        3.46733006       1.02898887       3.68219577      -0.00184977       0.00262180       0.00320807
O        2.12591692       2.92603377       6.00559216       0.00185347      -0.00262070      -0.00320560
O        2.12591638       2.92603366       3.68219586       0.00184642      -0.00262150       0.00321114
O        3.46733021       1.02898905       6.00559187      -0.00184217       0.00262022      -0.00320265
