9
Lattice="5.145866275318808 -4.710439205970723e-08 2.9709673094101072 1.715288744524911 4.851568944915181 2.970967256589928 4.0339690089898124e-08 -3.616680357261562e-08 5.941934548949894" Properties=species:S:1:pos:R:3:forces:R:3 energy=-53.530826568603516 free_energy=-53.530826568603516 stress="0.0003959231253247708 -1.9418312291463735e-08 3.4548972571712966e-09 -1.9418312291463735e-08 0.00039596695569343865 2.922577735375853e-08 3.4548972571712966e-09 2.922577735375853e-08 0.0003959872992709279" pbc="T T T"
Hf       1.71529079       1.21289247       2.97096691       0.00001157       0.00000069      -0.00000161
Hf       5.14586414       3.63867651       8.91290069      -0.00001273      -0.00000311      -0.00000531
Co      -0.00000004       0.00000028       0.00000025       0.00000145      -0.00000128      -0.00000091
S        1.76738356       1.24972974       5.94193500      -0.00276130      -0.00194609       0.00000218
S        5.09377160       3.60183883       5.94193512       0.00276440       0.00194645       0.00000026
S        4.26217279       1.24972891       4.50156617       0.00137374      -0.00195372      -0.00238806
S        2.59898183       3.60183958       7.38230237      -0.00137788       0.00195557       0.00239360
S        2.59898201       3.60183979       4.50156672      -0.00137571       0.00195616      -0.00239027
S        4.26217366       1.24972923       7.38230287       0.00137648      -0.00195444       0.00238961
