9
Lattice="5.2998109088410095 -1.5091117780383164e-08 3.0598472187474846 1.7666036337105262 4.996709698937844 3.0598471985547904 -2.5026176880727582e-08 -4.24270419380578e-08 6.119694480841535" Properties=species:S:1:pos:R:3:forces:R:3 energy=-50.521446228027344 free_energy=-50.521446228027344 stress="7.365900273725856e-06 -3.751312149802288e-09 -5.675850900388468e-08 -3.751312149802288e-09 7.415506843244657e-06 -3.339150289605186e-09 -5.675850900388468e-08 -3.339150289605186e-09 7.3953297032858245e-06" pbc="T T T"
Hf       1.76660348       1.24917762       3.05984728      -0.00000034      -0.00000045       0.00000019
Hf       5.29981078       3.74753246       9.17954102       0.00000142      -0.00000047      -0.00000455
C        0.00000037      -0.00000034      -0.00000034       0.00000308      -0.00000297      -0.00000381
S        1.64227737       1.16126569       6.11969438      -0.00214155      -0.00151321      -0.00000308
S        5.42413719       3.83544402       6.11969479       0.00213794       0.00151004       0.00000097
S        4.47867225       1.16126519       4.48210129       0.00106765      -0.00150941      -0.00184933
S        2.58774232       3.83544402       7.75728802      -0.00107104       0.00151637       0.00185917
S        2.58774222       3.83544437       4.48210145      -0.00106683       0.00151207      -0.00185163
S        4.47867205       1.16126555       7.75728772       0.00106963      -0.00151187       0.00185243
