9
Lattice="5.27234036139191 7.703536022365607e-08 3.0439871854621763 1.7574468445201432 4.970810277462256 3.043987211858882 2.6210756353899204e-08 5.086304867207547e-08 6.087974325526024" Properties=species:S:1:pos:R:3:forces:R:3 energy=-54.52503967285156 free_energy=-54.52503967285156 stress="-7.50001854612492e-05 -6.560797771726357e-08 3.845107010569393e-10 -6.560797771726357e-08 -7.501711661461741e-05 -3.844264995223057e-08 3.845107010569393e-10 -3.844264995223057e-08 -7.495741010643542e-05" pbc="T T T"
Hf       1.75744686       1.24270134       3.04398506       0.00000077      -0.00001419      -0.00001506
Hf       5.27234041       3.72810843       9.13195827      -0.00000091       0.00000738      -0.00003390
Fe      -0.00000022      -0.00000016       0.00000033      -0.00000003       0.00000135       0.00000277
S        1.78136017       1.25961188       6.08797428      -0.00260520      -0.00184137       0.00000076
S        5.24842668       3.71119908       6.08797584       0.00260210       0.00184232       0.00001280
S        4.38166060       1.25961109       4.58669128       0.00130513      -0.00184661      -0.00224948
S        2.64812769       3.71119775       7.58925902      -0.00130057       0.00184143       0.00226367
S        2.64812703       3.71119980       4.58669187      -0.00130332       0.00185210      -0.00224763
S        4.38165970       1.25961242       7.58925880       0.00130245      -0.00184190       0.00226605
