9
Lattice="4.2248170766409965 -5.468551022343878e-08 2.439199444268549 1.4082723239140595 3.983195657856877 2.439199415530847 1.1222374857684953e-07 4.415781496516479e-08 4.878398694159881" Properties=species:S:1:pos:R:3:forces:R:3 energy=-69.3978042602539 free_energy=-69.3978042602539 stress="-0.00014053008635528386 -2.9940125045868626e-08 -2.6578757683637377e-07 -2.9940125045868626e-08 -0.0001407515665050596 -2.0452358739930787e-07 -2.6578757683637377e-07 -2.0452358739930787e-07 -0.0001403522619511932" pbc="T T T"
Hf       1.40827380       0.99579907       2.43919758       0.00001461      -0.00000279      -0.00001586
Hf       4.22481785       2.98739526       7.31759964       0.00000977      -0.00001349       0.00001454
Fe      -0.00000013      -0.00000003       0.00000003       0.00000244      -0.00000112      -0.00000038
O        1.45555494       1.02923424       4.87839818      -0.00114089      -0.00079229      -0.00000283
O        4.17753363       2.95396264       4.87839822       0.00113112       0.00079739       0.00000017
O        3.49704004       1.02923289       3.69974891       0.00057501      -0.00080341      -0.00097486
O        2.13604964       2.95396243       6.05704928      -0.00058287       0.00080916       0.00098076
O        2.13605066       2.95396228       3.69974756      -0.00055388       0.00080165      -0.00099623
O        3.49703742       1.02923387       6.05705097       0.00054488      -0.00079533       0.00099537
