9
Lattice="5.9588599542769 -1.2748764544352599e-08 3.440349482592159 1.9862866237415582 5.618067222724784 3.4403495097237524 -8.586180928479906e-09 2.7157929084799395e-08 6.880698980055993" Properties=species:S:1:pos:R:3:forces:R:3 energy=-46.239070892333984 free_energy=-46.239070892333984 stress="-0.00017235241830348969 -1.5894030980234675e-08 -2.0355785945724847e-09 -1.5894030980234675e-08 -0.00017230048251803964 3.701793716004431e-08 -2.0355785945724847e-09 3.701793716004431e-08 -0.00017227396892849356" pbc="T T T"
Hf       1.98628651       1.40451680       3.44034964      -0.00000001      -0.00000088       0.00000137
Hf       5.95885946       4.21355001      10.32104896      -0.00000146      -0.00000246       0.00000193
Fe      -0.00000007       0.00000012       0.00000009       0.00000309      -0.00000204      -0.00000169
Te       1.95578341       1.38294764       6.88069887       0.00058430       0.00041161      -0.00000077
Te       5.98936316       4.23511969       6.88069869      -0.00058389      -0.00041351      -0.00000032
Te       4.98096857       1.38294799       5.13410758      -0.00029066       0.00041257       0.00050497
Te       2.96417827       4.23511939       8.62729004       0.00028869      -0.00040865      -0.00050059
Te       2.96417855       4.23511943       5.13410754       0.00029077      -0.00041129       0.00050122
Te       4.98096837       1.38294791       8.62729047      -0.00029072       0.00041462      -0.00050632
