9
Lattice="5.58607448917443 -2.7469482318350144e-08 3.225121695778713 1.8620248125999979 5.266601513068269 3.2251216805823293 2.1468883527781833e-08 -3.4309492193172715e-09 6.450243354372248" Properties=species:S:1:pos:R:3:forces:R:3 energy=-49.6522331237793 free_energy=-49.6522331237793 stress="-7.850350812077522e-05 -7.360548437418402e-08 1.3917590635514898e-08 -7.360548437418402e-08 -7.8505756391678e-05 9.523664523669595e-09 1.3917590635514898e-08 9.523664523669595e-09 -7.846049265936017e-05" pbc="T T T"
Hf       1.86202400       1.31664799       3.22512175      -0.00000770      -0.00002685       0.00000156
Hf       5.58607447       3.94995079       9.67536565      -0.00000193      -0.00000381       0.00000744
Fe       0.00000015       0.00000012      -0.00000008       0.00000086       0.00000016      -0.00000463
Se       1.86764004       1.32062142       6.45024347       0.00047576       0.00034237      -0.00000088
Se       5.58045868       3.94598117       6.45024327      -0.00048500      -0.00033218       0.00000123
Se       4.65225438       1.32062144       4.84254573      -0.00023454       0.00034282       0.00041515
Se       2.79584493       3.94598120       8.05794071       0.00024047      -0.00032750      -0.00042009
Se       2.79584588       3.94598072       4.84254556       0.00024390      -0.00033179       0.00041294
Se       4.65225473       1.32062109       8.05794093      -0.00023219       0.00033706      -0.00041312
