9
Lattice="6.1655633644120105 6.010722199070603e-08 3.559689643110073 2.0551878775821493 5.812948931020207 3.559689586341741 -1.857500666975042e-08 -8.266118958707961e-08 7.119379318393015" Properties=species:S:1:pos:R:3:forces:R:3 energy=-40.15694046020508 free_energy=-40.15694046020508 stress="-0.00017329046386294067 -1.1609802702539085e-10 1.8017553671256792e-08 -1.1609802702539085e-10 -0.0001733005337882787 -2.8375623628562607e-08 1.8017553671256792e-08 -2.8375623628562607e-08 -0.00017331026901956648" pbc="T T T"
Hf       2.05518776       1.45323745       3.55968993      -0.00000044       0.00000192       0.00000254
Hf       6.16556411       4.35971118      10.67906825       0.00000382      -0.00000281      -0.00000416
Ge       0.00000018       0.00000002      -0.00000022      -0.00000367      -0.00000114      -0.00000420
Te       2.15062675       1.52072312       7.11937933      -0.00428774      -0.00303089      -0.00000021
Te       6.07012427       4.29222582       7.11937980       0.00429140       0.00303361       0.00000262
Te       5.09024978       1.52072288       5.42218685       0.00214260      -0.00302923      -0.00371294
Te       3.13050099       4.29222623       8.81657157      -0.00214533       0.00303278       0.00371354
Te       3.13050090       4.29222602       5.42218713      -0.00214607       0.00303007      -0.00371342
Te       5.09025020       1.52072292       8.81657155       0.00214547      -0.00303396       0.00371629
