9
Lattice="5.667771236597255 -1.8908534697719615e-08 3.2722892177333063 1.8892570409882745 5.3436258865791375 3.2722892524615315 1.6170719713382765e-08 5.396761577877845e-08 6.5445784074580935" Properties=species:S:1:pos:R:3:forces:R:3 energy=-44.41731643676758 free_energy=-44.41731643676758 stress="-8.098923717625439e-05 -3.80328746274472e-09 3.729282127551414e-08 -3.80328746274472e-09 -8.098057878669351e-05 -4.045917734174509e-08 3.729282127551414e-08 -4.045917734174509e-08 -8.097352838376537e-05" pbc="T T T"
Hf       1.88925687       1.33590691       3.27228873      -0.00000108       0.00000466      -0.00000551
Hf       5.66777199       4.00771794       9.81686935       0.00000269      -0.00001074       0.00001772
Ge      -0.00000004       0.00000020      -0.00000011      -0.00000279      -0.00000071       0.00000059
Se       1.95074612       1.37938673       6.54457837      -0.00476688      -0.00335863      -0.00000079
Se       5.60628182       3.96423984       6.54457769       0.00476521       0.00336818      -0.00001121
Se       4.69239837       1.37938647       4.96168521       0.00238536      -0.00336236      -0.00412555
Se       2.86462997       3.96423972       8.12747151      -0.00238389       0.00336514       0.00412008
Se       2.86463054       3.96423977       4.96168485      -0.00237828       0.00336404      -0.00412318
Se       4.69239757       1.37938608       8.12747184       0.00238010      -0.00336926       0.00412802
