9
Lattice="5.440556076861955 6.562101063246922e-08 3.141106623237495 1.8135187513251707 5.129405418203291 3.1411066281396423 4.928135848863703e-08 4.085102005507499e-08 6.28221316111717" Properties=species:S:1:pos:R:3:forces:R:3 energy=-49.49424362182617 free_energy=-49.49424362182617 stress="0.00018274989270139486 -7.547728553269906e-10 -4.736732606147598e-08 -7.547728553269906e-10 0.0001827986561693251 4.1310126874805064e-08 -4.736732606147598e-08 4.1310126874805064e-08 0.00018271860608365387" pbc="T T T"
Hf       1.81351803       1.28235002       3.14110729      -0.00000727      -0.00001409       0.00000953
Hf       5.44055628       3.84705488       9.42331910       0.00000128       0.00000972      -0.00001261
Ge       0.00000009      -0.00000007      -0.00000000      -0.00000044      -0.00000362      -0.00000095
S        1.84667399       1.30579603       6.28221322      -0.00129443      -0.00091404      -0.00000190
S        5.40740045       3.82360990       6.28221358       0.00129622       0.00091875       0.00000402
S        4.51721856       1.30579534       4.74037367       0.00064382      -0.00092193      -0.00111747
S        2.73685666       3.82361038       7.82405267      -0.00064138       0.00092411       0.00112182
S        2.73685577       3.82360989       4.74037367      -0.00064835       0.00091755      -0.00111878
S        4.51721969       1.30579568       7.82405260       0.00065058      -0.00091654       0.00111681
