9
Lattice="4.28188396032967 1.3158196218430175e-08 2.472146718067852 1.4272946326330904 4.036998874790133 2.4721467755993003 -3.2612889535809766e-08 4.7400556952789695e-08 4.9442934926228395" Properties=species:S:1:pos:R:3:forces:R:3 energy=-71.36223602294922 free_energy=-71.36223602294922 stress="-1.3927150575909764e-05 1.311891963950984e-07 -1.1869244076478935e-07 1.311891963950984e-07 -1.3894895346311387e-05 -8.545429253103975e-09 -1.1869244076478935e-07 -8.545429253103975e-09 -1.402310863340972e-05" pbc="T T T"
Hf       1.42729518       1.00924951       2.47214695       0.00000586      -0.00000213       0.00000219
Hf       4.28188267       3.02774944       7.41644074      -0.00001210       0.00000480       0.00000717
Ge      -0.00000021       0.00000017      -0.00000005       0.00000304      -0.00000470       0.00000690
O        1.47041466       1.03973945       4.94429344      -0.00136930      -0.00096905      -0.00000060
O        4.23876443       2.99725909       4.94429349       0.00136596       0.00096697      -0.00000107
O        3.54667675       1.03974021       3.74556233       0.00068441      -0.00096238      -0.00118172
O        2.16250190       2.99725892       6.14302453      -0.00067976       0.00096256       0.00117588
O        2.16250204       2.99725922       3.74556226      -0.00067830       0.00096405      -0.00117797
O        3.54667678       1.03973978       6.14302426       0.00067952      -0.00096035       0.00116974
