9
Lattice="4.343362116620983 -4.285535451019666e-08 2.5076412911345325 1.4477873334212201 4.094961099540308 2.5076412883309915 9.960047618920294e-08 6.699455444762291e-08 5.01528240975598" Properties=species:S:1:pos:R:3:forces:R:3 energy=-69.23998260498047 free_energy=-69.23998260498047 stress="0.0002394135808572173 2.015430879964697e-07 -2.897313322591799e-07 2.015430879964697e-07 0.0002391546149738133 -8.28826784982084e-08 -2.897313322591799e-07 -8.28826784982084e-08 0.000239783083088696" pbc="T T T"
Hf       1.44778966       1.02374015       2.50764035       0.00003160      -0.00000688      -0.00000836
Hf       4.34336237       3.07121862       7.52292472       0.00000866      -0.00002795       0.00001479
Ir      -0.00000015       0.00000008      -0.00000002      -0.00000708      -0.00000816      -0.00001214
O        1.54469277       1.09226412       5.01528182      -0.00196800      -0.00137067      -0.00000739
O        4.24645578       3.00269786       5.01528238       0.00196683       0.00139478      -0.00000239
O        3.57101550       1.09226328       3.84538534       0.00097859      -0.00138104      -0.00169960
O        2.22013325       3.00269798       6.18517945      -0.00099944       0.00139675       0.00170392
O        2.22013485       3.00269833       3.84538479      -0.00096999       0.00138500      -0.00170878
O        3.57101400       1.09226412       6.18518133       0.00095822      -0.00138181       0.00172040
