9
Lattice="5.727527972590845 -2.9260338917388514e-08 3.306789832840364 1.9091760024874074 5.399964982886417 3.3067897649254085 7.137039610464277e-08 -3.2712003291022197e-08 6.6135795420635946" Properties=species:S:1:pos:R:3:forces:R:3 energy=-49.44031524658203 free_energy=-49.44031524658203 stress="5.7875047787092626e-05 -8.740722989841743e-08 7.694128889568219e-09 -8.740722989841743e-08 5.795709876110777e-05 -5.728687924033693e-08 7.694128889568219e-09 -5.728687924033693e-08 5.8021880249725655e-05" pbc="T T T"
Hf       1.90917537       1.34999217       3.30678975      -0.00000553       0.00001177      -0.00000201
Hf       5.72752860       4.04997352       9.92036964       0.00000702      -0.00000037       0.00000754
Ir       0.00000002      -0.00000014      -0.00000005       0.00000266       0.00000301      -0.00000784
Se       1.95005145       1.37889447       6.61357960      -0.00229216      -0.00162140       0.00000205
Se       5.68665293       4.02107025       6.61357929       0.00229043       0.00161499      -0.00000384
Se       4.75250231       1.37889457       4.99558419       0.00114894      -0.00162256      -0.00198621
Se       2.88420136       4.02107024       8.23157530      -0.00115535       0.00162205       0.00199038
Se       2.88420178       4.02107006       4.99558378      -0.00114852       0.00162223      -0.00199097
Se       4.75250238       1.37889452       8.23157509       0.00115287      -0.00162986       0.00199109
