9
Lattice="5.451751751444047 -6.569467725935484e-08 3.1475702825738456 1.8172505209523047 5.139960849498818 3.147570284175611 -1.1622263500354333e-07 -8.022001469823029e-08 6.295140766451166" Properties=species:S:1:pos:R:3:forces:R:3 energy=-53.657318115234375 free_energy=-53.657318115234375 stress="7.077689951984212e-05 -4.573544654107309e-09 3.443431140226494e-08 -4.573544654107309e-09 7.079143688315526e-05 2.541173849124334e-08 3.443431140226494e-08 2.541173849124334e-08 7.082102820277214e-05" pbc="T T T"
Hf       1.81724884       1.28498672       3.14757008      -0.00001909      -0.00003934       0.00000043
Hf       5.45175096       3.85497116       9.44270967      -0.00000394       0.00000914      -0.00001179
Ir      -0.00000018       0.00000033       0.00000053       0.00000312      -0.00000459      -0.00000272
S        1.87240906       1.32399287       6.29514081      -0.00064361      -0.00046259       0.00000239
S        5.39659302       3.81596857       6.29514009       0.00063968       0.00046617      -0.00000195
S        4.51554851       1.32399243       4.76912530       0.00033468      -0.00046235      -0.00054586
S        2.75345618       3.81596960       7.82115609      -0.00031370       0.00048208       0.00055456
S        2.75345480       3.81596763       4.76912466      -0.00032300       0.00046277      -0.00055796
S        4.51554724       1.32399359       7.82115781       0.00032574      -0.00045127       0.00056338
