9
Lattice="4.400566725468757 -3.2470441349338494e-08 2.5406683396824703 1.466855542425716 4.148893898201651 2.540668343349413 -2.389249524145521e-09 2.801606839400519e-09 5.0813366835032205" Properties=species:S:1:pos:R:3:forces:R:3 energy=-71.11369323730469 free_energy=-71.11369323730469 stress="4.698033808381297e-05 4.0386414212889576e-08 2.990617531395401e-08 4.0386414212889576e-08 4.7162284317892045e-05 -3.418901428631216e-08 2.990617531395401e-08 -3.418901428631216e-08 4.706031904788688e-05" pbc="T T T"
Hf       1.46685551       1.03722340       2.54067005      -0.00000228      -0.00000086       0.00002429
Hf       4.40056672       3.11167127       7.62200661      -0.00000199       0.00001088       0.00002038
Mo      -0.00000006      -0.00000006       0.00000018       0.00000699       0.00000294       0.00000603
O        1.55845786       1.10199521       5.08133615      -0.00023426      -0.00017646      -0.00000680
O        4.30896452       3.04689841       5.08133573       0.00022967       0.00016570      -0.00001250
O        3.62133738       1.10199575       3.89033173       0.00011526      -0.00016823      -0.00020945
O        2.24608392       3.04689789       6.27234079      -0.00011566       0.00016485       0.00019643
O        2.24608437       3.04689795       3.89033176      -0.00011926       0.00016371      -0.00020862
O        3.62133873       1.10199580       6.27234058       0.00012164      -0.00016158       0.00018945
