9
Lattice="5.281495856972379 9.037603295935863e-08 3.0492730757820685 1.7604986724086633 4.97944216100944 3.0492731308430394 1.894826302902074e-08 8.083406735750052e-08 6.098546118744759" Properties=species:S:1:pos:R:3:forces:R:3 energy=-55.859764099121094 free_energy=-55.859764099121094 stress="-8.409212023252621e-05 5.0508560889284126e-08 -5.210902820351748e-09 5.0508560889284126e-08 -8.402697130804881e-05 5.433602456861308e-09 -5.210902820351748e-09 5.433602456861308e-09 -8.407072891714051e-05" pbc="T T T"
Hf       1.76049810       1.24486159       3.04927333      -0.00000617       0.00000856       0.00000083
Hf       5.28149608       3.73458068       9.14781823       0.00000166      -0.00000990      -0.00000586
Mn      -0.00000035      -0.00000007      -0.00000018       0.00000045      -0.00000014       0.00000005
S        1.79959604       1.27250786       6.09854584      -0.00806499      -0.00569856      -0.00000014
S        5.24239783       3.70693459       6.09854633       0.00806463       0.00570017       0.00000124
S        4.38169831       1.27250737       4.60776951       0.00403255      -0.00569904      -0.00698179
S        2.66029751       3.70693500       7.58932359      -0.00402883       0.00569791       0.00698566
S        2.66029653       3.70693517       4.60776965      -0.00403225       0.00570107      -0.00698012
S        4.38169810       1.27250709       7.58932320       0.00403261      -0.00569969       0.00698006
