9
Lattice="5.409996987858062 -5.988016095121502e-08 3.1234631300083864 1.8033322626007753 5.100593944214284 3.1234631477267563 -9.061589092516231e-08 -4.237465511317826e-08 6.246926416968117" Properties=species:S:1:pos:R:3:forces:R:3 energy=-56.611228942871094 free_energy=-56.611228942871094 stress="0.0001538491778774187 -1.1017633028131968e-07 -1.524380088824273e-08 -1.1017633028131968e-07 0.00015387953317258507 3.1386065302285715e-08 -1.524380088824273e-08 3.1386065302285715e-08 0.00015392729255836457" pbc="T T T"
Hf       1.80333176       1.27514917       3.12346260      -0.00000084       0.00000994      -0.00000374
Hf       5.40999837       3.82544551       9.37038859       0.00001558      -0.00000487      -0.00000580
Mo      -0.00000046      -0.00000026       0.00000036       0.00001125      -0.00000124      -0.00000241
S        1.89717510       1.34150683       6.24692696      -0.00677106      -0.00478238       0.00000482
S        5.31615385       3.75908771       6.24692633       0.00675789       0.00477317       0.00000033
S        4.46140880       1.34150605       4.76646572       0.00338115      -0.00478563      -0.00585523
S        2.75192051       3.75908753       7.72738703      -0.00338525       0.00479025       0.00586811
S        2.75191952       3.75908717       4.76646601      -0.00339067       0.00478664      -0.00586164
S        4.46140921       1.34150555       7.72738722       0.00338195      -0.00478554       0.00585589
