9
Lattice="5.995870040881989 -2.4298393384011965e-08 3.4617172337031734 1.9986233637614008 5.6529604638757425 3.461717164924308 6.484248499041829e-08 -3.838599345838152e-08 6.923434355095861" Properties=species:S:1:pos:R:3:forces:R:3 energy=-46.56852722167969 free_energy=-46.56852722167969 stress="-0.0003704881528392434 -2.6999295243967936e-08 1.1100148578080393e-09 -2.6999295243967936e-08 -0.0003705365816131234 -5.313380846416749e-09 1.1100148578080393e-09 -5.313380846416749e-09 -0.0003704835253302008" pbc="T T T"
Hf       1.99862370       1.41324010       3.46171748       0.00000177      -0.00000200       0.00000082
Hf       5.99587004       4.23972013      10.38515055      -0.00000107       0.00000043      -0.00000493
Mn       0.00000008       0.00000017       0.00000004      -0.00000288      -0.00000017       0.00000379
Te       2.01724557       1.42640817       6.92343432      -0.00837875      -0.00592379       0.00000322
Te       5.97724732       4.22655208       6.92343485       0.00838389       0.00592699      -0.00000008
Te       4.98724704       1.42640825       5.20870352       0.00419023      -0.00592778      -0.00725850
Te       3.00724670       4.22655236       8.63816534      -0.00418895       0.00592447       0.00725611
Te       3.00724622       4.22655210       5.20870350      -0.00419240       0.00592687      -0.00725793
Te       4.98724720       1.42640829       8.63816545       0.00418812      -0.00592493       0.00725763
