9
Lattice="4.207707052041725 -7.711706135778203e-08 2.42932072708771 1.4025689907056025 3.967063910369016 2.429320647300767 6.170550729263208e-08 -5.408628818493907e-08 4.858641347298343" Properties=species:S:1:pos:R:3:forces:R:3 energy=-73.27516174316406 free_energy=-73.27516174316406 stress="-0.00010831092367880046 -1.952091537305023e-07 -8.783029414871635e-08 -1.952091537305023e-07 -0.0001080549118341878 -7.15794712391471e-08 -8.783029414871635e-08 -7.15794712391471e-08 -0.00010834393469849601" pbc="T T T"
Hf       1.40256852       0.99176508       2.42932052      -0.00000520      -0.00000705      -0.00000136
Hf       4.20770664       2.97529828       7.28796228      -0.00000529       0.00000220       0.00000455
Mn       0.00000009      -0.00000003       0.00000020      -0.00000018      -0.00000225      -0.00000709
O        1.46536032       1.03616567       4.85864138      -0.00017726      -0.00012824       0.00000090
O        4.14491604       2.93089798       4.85864110       0.00017965       0.00012770      -0.00000269
O        3.47502697       1.03616591       3.69835963       0.00009254      -0.00012462      -0.00015622
O        2.13524948       2.93089794       6.01892302      -0.00009041       0.00013113       0.00016308
O        2.13524924       2.93089826       3.69835987      -0.00008824       0.00013144      -0.00015767
O        3.47502719       1.03616600       6.01892272       0.00009510      -0.00013097       0.00015767
