9
Lattice="6.224282944605444 3.496626367774482e-08 3.5935913442426606 2.0747610064091497 5.868310180423156 3.5935913582592844 4.904196307022143e-09 2.0634580823882416e-08 7.187182679990992" Properties=species:S:1:pos:R:3:forces:R:3 energy=-46.66899871826172 free_energy=-46.66899871826172 stress="-6.582282367162406e-05 4.021156030376005e-08 -6.564231824768285e-09 4.021156030376005e-08 -6.587465031770989e-05 5.472768460634825e-09 -6.564231824768285e-09 5.472768460634825e-09 -6.589198164874688e-05" pbc="T T T"
Hf       2.07476063       1.46707742       3.59359089      -0.00000282      -0.00000180      -0.00000226
Hf       6.22428327       4.40123331      10.78077422       0.00000323       0.00000293       0.00000198
Nb       0.00000005       0.00000006      -0.00000049       0.00000049      -0.00000053       0.00000554
Te       2.17854326       1.54046275       7.18718276      -0.00137615      -0.00097423       0.00000015
Te       6.12050068       4.32784734       7.18718260       0.00137611       0.00097331       0.00000050
Te       5.13501144       1.54046250       5.48026537       0.00068717      -0.00097384      -0.00118992
Te       3.16403254       4.32784765       8.89410049      -0.00068586       0.00097053       0.00118890
Te       3.16403254       4.32784748       5.48026517      -0.00068804       0.00097323      -0.00119152
Te       5.13501146       1.54046247       8.89410050       0.00068573      -0.00096945       0.00118690
