9
Lattice="5.732942517010825 1.4438772092976122e-07 3.309916060392824 1.9109810128181726 5.405069538336758 3.3099159951213144 1.6647362421798448e-07 3.777369096289568e-08 6.619831832444839" Properties=species:S:1:pos:R:3:forces:R:3 energy=-51.14448928833008 free_energy=-51.14448928833008 stress="5.748664534621639e-06 6.221592485644578e-08 7.850554339938753e-08 6.221592485644578e-08 5.722908099414781e-06 -1.2375002711451089e-07 7.850554339938753e-08 -1.2375002711451089e-07 5.625144240184454e-06" pbc="T T T"
Hf       1.91098014       1.35126680       3.30991870      -0.00000680      -0.00001188       0.00002548
Hf       5.73294211       4.05380399       9.92974955      -0.00000686       0.00001778       0.00001313
Nb       0.00000054      -0.00000014      -0.00000035      -0.00001184       0.00000261      -0.00000430
Se       1.99856821       1.41319990       6.61983152      -0.00175996      -0.00125088      -0.00000852
Se       5.64535576       3.99186859       6.61983151       0.00177581       0.00125134      -0.00000585
Se       4.73365871       1.41320021       5.04072526       0.00087443      -0.00124493      -0.00152896
Se       2.91026498       3.99187060       8.19893696      -0.00087646       0.00125127       0.00151351
Se       2.91026516       3.99186934       5.04072556      -0.00087596       0.00124487      -0.00152937
Se       4.73365925       1.41319965       8.19893673       0.00088752      -0.00126015       0.00152506
