9
Lattice="5.973651178570517 -7.144311925295791e-08 3.448889177674746 1.9912170173368222 5.632012250045117 3.448889134078109 -3.2866996224027155e-09 -5.5718827195658674e-08 6.897778361042238" Properties=species:S:1:pos:R:3:forces:R:3 energy=-43.68480682373047 free_energy=-43.68480682373047 stress="-3.42436833307147e-05 6.346057901396307e-09 4.706655065689347e-09 6.346057901396307e-09 -3.418191408854909e-05 8.855938204987979e-09 4.706655065689347e-09 8.855938204987979e-09 -3.423056114115752e-05" pbc="T T T"
Hf       1.99121660       1.40800229       3.44888985      -0.00000260      -0.00000439       0.00000438
Hf       5.97365141       4.22400965      10.34666778       0.00000229       0.00000349       0.00000514
Ni       0.00000002       0.00000009       0.00000023      -0.00000374      -0.00000125      -0.00000391
Te       2.02432324       1.43141241       6.89777824       0.00103438       0.00073284      -0.00000211
Te       5.94054483       4.20059983       6.89777834      -0.00103132      -0.00072922      -0.00000139
Te       4.96148985       1.43141255       5.20200433      -0.00051644       0.00073332       0.00089546
Te       3.00337835       4.20059980       8.59355188       0.00051446      -0.00073004      -0.00089811
Te       3.00337866       4.20059947       5.20200414       0.00051965      -0.00073297       0.00089560
Te       4.96148979       1.43141237       8.59355190      -0.00051665       0.00072816      -0.00089528
