9
Lattice="5.370392950181128 9.089509751543726e-08 3.1005977342606275 1.790131032171156 5.063255163843456 3.100597798206682 -7.935280826442612e-08 2.220672187920701e-08 6.201195605964359" Properties=species:S:1:pos:R:3:forces:R:3 energy=-57.101837158203125 free_energy=-57.101837158203125 stress="-4.370762781036319e-06 -1.6401353164496868e-08 -3.5012707400028376e-08 -1.6401353164496868e-08 -4.328624527261127e-06 4.8829235765879275e-08 -3.5012707400028376e-08 4.8829235765879275e-08 -4.312265900807688e-06" pbc="T T T"
Hf       1.79013123       1.26581330       3.10059761       0.00000158      -0.00000458      -0.00000143
Hf       5.37039347       3.79744160       9.30179377       0.00000270      -0.00000077       0.00000545
Nb      -0.00000018      -0.00000012       0.00000028      -0.00000013      -0.00001024      -0.00001088
S        1.92115259       1.35846024       6.20119537       0.00009936       0.00006875      -0.00000300
S        5.23937053       3.70479511       6.20119545      -0.00008991      -0.00006154      -0.00000297
S        4.40981673       1.35846051       4.76436480      -0.00004882       0.00007021       0.00008699
S        2.75070740       3.70479462       7.63802582       0.00003727      -0.00005761      -0.00007299
S        2.75070752       3.70479523       4.76436517       0.00004755      -0.00006828       0.00008252
S        4.40981624       1.35846054       7.63802634      -0.00004943       0.00006390      -0.00008425
