9
Lattice="4.379289672914357 1.7635359935931074e-08 2.5283840590581894 1.459763244923087 4.128833809194418 2.528384052144668 1.774947481172915e-08 4.0834737502946696e-09 5.0567680873733805" Properties=species:S:1:pos:R:3:forces:R:3 energy=-76.4905014038086 free_energy=-76.4905014038086 stress="2.7759571821661666e-05 8.738687107268106e-09 8.288932917821512e-08 8.738687107268106e-09 2.7747073545469902e-05 -9.31251094016261e-08 8.288932917821512e-08 -9.31251094016261e-08 2.7413752832217142e-05" pbc="T T T"
Hf       1.45976361       1.03220845       2.52838392       0.00000508      -0.00000004      -0.00000295
Hf       4.37928988       3.09662583       7.58515217       0.00000616       0.00000846       0.00000136
Nb       0.00000000       0.00000005      -0.00000007       0.00000072       0.00000576       0.00000801
O        1.55990896       1.10302186       5.05676811      -0.00334525      -0.00236485      -0.00000002
O        4.27914411       3.02581195       5.05676809       0.00333458       0.00235865       0.00000023
O        3.59933519       1.10302184       3.87930480       0.00167068      -0.00236392      -0.00289060
O        2.23971749       3.02581186       6.23423133      -0.00166612       0.00235272       0.00288212
O        2.23971757       3.02581161       3.87930480      -0.00167274       0.00236290      -0.00289328
O        3.59933492       1.10302195       6.23423163       0.00166686      -0.00235934       0.00289565
