9
Lattice="4.1947982521330704 2.6666510043049535e-08 2.4218677757209934 1.3982660690218254 3.954893633930344 2.4218678452869926 -2.268825701426506e-08 6.915758688250746e-08 4.843735590739204" Properties=species:S:1:pos:R:3:forces:R:3 energy=-66.55256652832031 free_energy=-66.55256652832031 stress="-0.0008116988465189934 -5.4638690016872715e-08 -1.6097478905408025e-08 -5.4638690016872715e-08 -0.000811748206615448 -2.3408281535353126e-08 -1.6097478905408025e-08 -2.3408281535353126e-08 -0.0008117550751194358" pbc="T T T"
Hf       1.39826538       0.98872280       2.42186747      -0.00000471      -0.00000914      -0.00000488
Hf       4.19479795       2.96617005       7.26560335      -0.00000647      -0.00000249       0.00000110
Ni      -0.00000004       0.00000011      -0.00000006       0.00000009      -0.00000072      -0.00000916
O        1.43112859       1.01196035       4.84373557      -0.00797647      -0.00564253      -0.00000009
O        4.16193579       2.94293327       4.84373575       0.00798205       0.00564486       0.00000186
O        3.47923436       1.01196087       3.66126113       0.00399552      -0.00563908      -0.00690967
O        2.11383030       2.94293319       6.02621001      -0.00399306       0.00564703       0.00691682
O        2.11383052       2.94293359       3.66126159      -0.00399122       0.00564718      -0.00691071
O        3.47923422       1.01196070       6.02620995       0.00399473      -0.00564551       0.00691366
