9
Lattice="4.288860315595672 -5.185314900283887e-08 2.4761746556266355 1.4296200365754892 4.04357631939844 2.4761746898094397 -8.671149836627848e-08 -1.9449080992423684e-08 4.952349461442039" Properties=species:S:1:pos:R:3:forces:R:3 energy=-73.0218505859375 free_energy=-73.0218505859375 stress="2.8144959287601523e-05 -3.447991403504602e-08 1.3849331992332736e-07 -3.447991403504602e-08 2.8528504117275588e-05 1.728184173543923e-08 1.3849331992332736e-07 1.728184173543923e-08 2.8417527573765256e-05" pbc="T T T"
Hf       1.42961990       1.01089399       2.47617481       0.00000116      -0.00000019       0.00000177
Hf       4.28886006       3.03268303       7.42852359      -0.00000363       0.00000966      -0.00000533
Os       0.00000001      -0.00000007       0.00000001       0.00001306       0.00001143       0.00000862
O        1.53354889       1.08438154       4.95234952       0.00683349       0.00482309       0.00000201
O        4.18493231       2.95919458       4.95234950      -0.00685638      -0.00484309      -0.00000044
O        3.52208596       1.08438241       3.80426649      -0.00341044       0.00483511       0.00591758
O        2.19639394       2.95919366       6.10043255       0.00341853      -0.00483856      -0.00592327
O        2.19639369       2.95919356       3.80426657       0.00341505      -0.00483529       0.00592041
O        3.52208631       1.08438234       6.10043220      -0.00341089       0.00483714      -0.00592236
