9
Lattice="5.239240695220173 1.2871448212178642e-07 3.0248771498214544 1.7464137247842917 4.939603474512433 3.0248770833838807 7.995648980805206e-08 -2.4831267882707257e-08 6.049754161154117" Properties=species:S:1:pos:R:3:forces:R:3 energy=-56.14684295654297 free_energy=-56.14684295654297 stress="1.678697117313277e-05 8.601053735901587e-08 8.577480059557274e-08 8.601053735901587e-08 1.6811785826575942e-05 1.4578404261555988e-08 8.577480059557274e-08 1.4578404261555988e-08 1.6699043044354767e-05" pbc="T T T"
Hf       1.74641466       1.23490076       3.02487721       0.00000439      -0.00000405       0.00000659
Hf       5.23924240       3.70470378       9.07462673       0.00000910       0.00000668      -0.00002304
Os       0.00000001      -0.00000010      -0.00000097      -0.00000225      -0.00000239       0.00001432
S        1.88820946       1.33516601       6.04975456      -0.00030017      -0.00021064       0.00000356
S        5.09744473       3.60443758       6.04975681       0.00030220       0.00021183       0.00000969
S        4.29513519       1.33516503       4.66011428       0.00014538      -0.00021195      -0.00025594
S        2.69051788       3.60443863       7.43939500      -0.00014341       0.00019848       0.00025129
S        2.69051758       3.60443814       4.66011564      -0.00015354       0.00021803      -0.00025702
S        4.29513604       1.33516466       7.43939425       0.00013846      -0.00020647       0.00024939
