9
Lattice="5.390114758552685 1.7098893678400848e-07 3.111984237099418 1.7967050299808325 5.081849066023704 3.1119843249952264 3.8439892081384604e-08 1.3483104972054355e-07 6.223968407618989" Properties=species:S:1:pos:R:3:forces:R:3 energy=-49.57010269165039 free_energy=-49.57010269165039 stress="2.0826757463510148e-05 2.6276541831293798e-08 4.9736561535951296e-09 2.6276541831293798e-08 2.0732284610858187e-05 -8.070045964814199e-09 4.9736561535951296e-09 -8.070045964814199e-09 2.0773408323293552e-05" pbc="T T T"
Hf       1.79670557       1.27046124       3.11198573       0.00000508      -0.00001154       0.00001149
Hf       5.39011507       3.81138551       9.33595449       0.00000341      -0.00001551       0.00001486
Pd       0.00000019       0.00000002      -0.00000039      -0.00000174       0.00000135       0.00000549
S        1.89519307       1.34010505       6.22396787      -0.00569451      -0.00401640      -0.00000466
S        5.29162590       3.74174543       6.22396792       0.00568736       0.00402886      -0.00000647
S        4.44251805       1.34010510       4.75326943       0.00284481      -0.00401723      -0.00493455
S        2.74430145       3.74174574       7.69466635      -0.00284600       0.00402534       0.00492036
S        2.74430205       3.74174496       4.75326976      -0.00284344       0.00402528      -0.00493145
S        4.44251803       1.34010459       7.69466688       0.00284475      -0.00401980       0.00492525
