9
Lattice="4.2919930973465625 7.488183101632737e-08 2.4779834614538303 1.430664437368 4.046529643256196 2.4779834597450825 2.1705119856741692e-07 1.5138559994643394e-07 4.955966546963978" Properties=species:S:1:pos:R:3:forces:R:3 energy=-65.65214538574219 free_energy=-65.65214538574219 stress="-6.953306728973985e-05 7.653535760709929e-08 -4.5830483941244893e-07 7.653535760709929e-08 -6.873034726595506e-05 -2.687874882667529e-07 -4.5830483941244893e-07 -2.687874882667529e-07 -6.956857396289706e-05" pbc="T T T"
Hf       1.43066454       1.01163057       2.47798322      -0.00000042      -0.00002003       0.00000243
Hf       4.29199307       3.03489818       7.43395327      -0.00000310       0.00000629       0.00004273
Pd      -0.00000028      -0.00000025      -0.00000016       0.00001346       0.00002638       0.00001742
O        1.53393096       1.08465232       4.95596613      -0.00236592      -0.00167847      -0.00000854
O        4.18872688       2.96187782       4.95596586       0.00233948       0.00166808      -0.00000732
O        3.52502820       1.08465386       3.80640532       0.00118778      -0.00166140      -0.00206228
O        2.19762916       2.96187714       6.10552752      -0.00117625       0.00165433       0.00202665
O        2.19763028       2.96187819       3.80640630      -0.00117160       0.00168089      -0.00203661
O        3.52502798       1.08465165       6.10552648       0.00117628      -0.00167711       0.00202533
