9
Lattice="6.371358608318201 5.5854629982139484e-08 3.6785054160587225 2.123786204178734 6.00697452551176 3.678505504833697 -1.216254935943232e-07 2.2724486716597852e-08 7.357011042778945" Properties=species:S:1:pos:R:3:forces:R:3 energy=-37.41109848022461 free_energy=-37.41109848022461 stress="7.195831130957231e-05 5.4682556260843285e-09 4.26394120012219e-09 5.4682556260843285e-09 7.192174234660342e-05 -5.509511513679399e-09 4.26394120012219e-09 -5.509511513679399e-09 7.19355812179856e-05" pbc="T T T"
Hf       2.12378660       1.50174428       3.67850552       0.00000091       0.00000544       0.00000022
Hf       6.37135873       4.50523023      11.03551545       0.00000400      -0.00000441      -0.00000528
Pb       0.00000002      -0.00000006       0.00000030      -0.00000066       0.00000059      -0.00000614
Te       2.34260949       1.65647554       7.35701098      -0.00156732      -0.00110636      -0.00000055
Te       6.15253505       4.35049909       7.35701140       0.00156739       0.00110757       0.00000028
Te       5.20005354       1.65647519       5.70726481       0.00078025      -0.00110493      -0.00135426
Te       3.29509115       4.35049900       9.00675708      -0.00078502       0.00110798       0.00135937
Te       3.29509055       4.35049928       5.70726506      -0.00078418       0.00110226      -0.00135390
Te       5.20005364       1.65647587       9.00675719       0.00078446      -0.00110818       0.00136031
