9
Lattice="5.409800167084919 7.751548211490868e-09 3.123349560898721 1.8032667208554793 5.100408495858324 3.1233495761656878 -4.797731309814872e-09 1.530563236294375e-08 6.246699130107356" Properties=species:S:1:pos:R:3:forces:R:3 energy=-51.673858642578125 free_energy=-51.673858642578125 stress="-0.00014104378351476043 3.5730213454598925e-08 -1.5643815132193595e-08 3.5730213454598925e-08 -0.00014097402163315564 4.7400479097348125e-09 -1.5643815132193595e-08 4.7400479097348125e-09 -0.0001409898977726698" pbc="T T T"
Hf       1.80326676       1.27510201       3.12334961      -0.00000193      -0.00000178       0.00000154
Hf       5.40980022       3.82530648       9.37004878       0.00000107       0.00000146      -0.00000373
Pt       0.00000001       0.00000001      -0.00000014      -0.00000275      -0.00000334       0.00000073
S        1.86737124       1.32043095       6.24669916       0.00232959       0.00164747       0.00000033
S        5.34569557       3.77997763       6.24669915      -0.00232673      -0.00164413       0.00000220
S        4.47611451       1.32043093       4.74054052      -0.00116652       0.00164497       0.00201750
S        2.73695231       3.77997766       7.75285776       0.00116467      -0.00164646      -0.00201631
S        2.73695237       3.77997762       4.74054044       0.00116557      -0.00164652       0.00201589
S        4.47611454       1.32043079       7.75285776      -0.00116313       0.00164825      -0.00201869
