9
Lattice="4.373616123365839 6.279630606286705e-08 2.525108513153763 1.4578720793639148 4.123484850104191 2.52510854946265 7.809901605190522e-08 9.969346357439494e-08 5.050216891036062" Properties=species:S:1:pos:R:3:forces:R:3 energy=-66.00186920166016 free_energy=-66.00186920166016 stress="0.00023239791335072368 2.0129655808887037e-07 -4.676772391576378e-08 2.0129655808887037e-07 0.00023234193213284016 -1.0094012736772129e-07 -4.676772391576378e-08 -1.0094012736772129e-07 0.0002324012020835653" pbc="T T T"
Hf       1.45787112       1.03087065       2.52510844      -0.00001783      -0.00000402      -0.00000339
Hf       4.37361422       3.09261309       7.57532638      -0.00003086      -0.00001301       0.00001542
Pt      -0.00000008       0.00000050       0.00000019       0.00001650      -0.00005822      -0.00000533
O        1.54846275       1.09492908       5.05021718      -0.00107868      -0.00075692       0.00000246
O        4.28302583       3.02855587       5.05021657       0.00110386       0.00076738      -0.00000930
O        3.59938469       1.09492910       3.86611583       0.00052903      -0.00074023      -0.00092684
O        2.23210486       3.02855623       6.23431738      -0.00053270       0.00077911       0.00095874
O        2.23210447       3.02855696       3.86611699      -0.00053283       0.00078611      -0.00094861
O        3.59938534       1.09492860       6.23431684       0.00054356      -0.00076117       0.00091690
