9
Lattice="4.164855014284073 -7.794076273101105e-08 2.4045801588296554 1.3882849401582638 3.926662893433149 2.4045801434487757 3.8816435557028366e-08 8.609701304303978e-09 4.809160250427268" Properties=species:S:1:pos:R:3:forces:R:3 energy=-75.96073913574219 free_energy=-75.96073913574219 stress="-3.386460957699455e-05 -5.517876644489661e-08 5.8150739334905666e-08 -5.517876644489661e-08 -3.3928892662515864e-05 1.8864207973479097e-08 5.8150739334905666e-08 1.8864207973479097e-08 -3.380691850907169e-05" pbc="T T T"
Hf       1.38828459       0.98166573       2.40458005      -0.00000383      -0.00000155      -0.00000014
Hf       4.16485488       2.94499690       7.21374054      -0.00000002      -0.00000127      -0.00000056
P       -0.00000002       0.00000023       0.00000001       0.00001039      -0.00001268      -0.00000167
O        1.37069354       0.96922645       4.80916018       0.00005844       0.00004022      -0.00000279
O        4.18244669       2.95743646       4.80916046      -0.00005780      -0.00004022       0.00000097
O        3.47950853       0.96922678       3.59163549      -0.00002885       0.00004250       0.00004676
O        2.07363174       2.95743609       6.02668488       0.00002189      -0.00003451      -0.00003718
O        2.07363160       2.95743620       3.59163560       0.00002338      -0.00003394       0.00003922
O        3.47950847       0.96922645       6.02668498      -0.00002363       0.00004143      -0.00004503
