9
Lattice="5.566494932077057 -7.966692845164028e-09 3.213817277349918 1.8554982891308358 5.248141752561127 3.213817301686051 7.726886169200322e-09 3.526926179203818e-08 6.427634541316481" Properties=species:S:1:pos:R:3:forces:R:3 energy=-45.70956039428711 free_energy=-45.70956039428711 stress="0.00027833780040964484 2.3044595121035627e-09 -3.4229984180456086e-08 2.3044595121035627e-09 0.00027839181711897254 9.386845079006889e-09 -3.4229984180456086e-08 9.386845079006889e-09 0.00027840619441121817" pbc="T T T"
Hf       1.85549856       1.31203611       3.21381726       0.00000219       0.00000555       0.00000339
Hf       5.56649452       3.93610599       9.64145277      -0.00000219      -0.00000481       0.00000906
Pb      -0.00000005      -0.00000005       0.00000029      -0.00000101      -0.00000172      -0.00000728
S        2.01952507       1.42802004       6.42763441      -0.00184730      -0.00130528      -0.00000138
S        5.40246831       3.82012146       6.42763408       0.00185028       0.00130481      -0.00000403
S        4.55673237       1.42802021       4.96277718       0.00092366      -0.00130352      -0.00160155
S        2.86526080       3.82012175       7.89249146      -0.00092769       0.00131014       0.00160182
S        2.86526116       3.82012157       4.96277727      -0.00092061       0.00130379      -0.00160313
S        4.55673217       1.42802005       7.89249182       0.00092287      -0.00130931       0.00160319
