9
Lattice="5.820176601821155 1.2192773766160912e-08 3.3602806640377865 1.9400588414343023 5.487315358161301 3.3602807287036662 1.1124332564613636e-07 1.578601501235411e-07 6.7205611353964905" Properties=species:S:1:pos:R:3:forces:R:3 energy=-40.68314743041992 free_energy=-40.68314743041992 stress="4.668162000598386e-05 3.095354372817383e-08 -2.2050189230071737e-08 3.095354372817383e-08 4.6608198317699134e-05 -2.637905005542507e-08 -2.2050189230071737e-08 -2.637905005542507e-08 4.6689354348927736e-05" pbc="T T T"
Hf       1.94006046       1.37183205       3.36027906       0.00001843       0.00003606      -0.00001717
Hf       5.82017543       4.11548328      10.08083980      -0.00001044      -0.00004447      -0.00001745
Pb       0.00000033      -0.00000019      -0.00000029       0.00000138       0.00000148       0.00000341
Se       2.13163070       1.50729193       6.72056149      -0.00039552      -0.00026628       0.00000551
Se       5.62860526       3.98002346       6.72056272       0.00039423       0.00026116       0.00001794
Se       4.75436144       1.50729176       5.20632642       0.00019769      -0.00026368      -0.00034280
Se       3.00587368       3.98002404       8.23479587      -0.00019289       0.00026120       0.00034308
Se       3.00587479       3.98002415       5.20632744      -0.00019374       0.00027130      -0.00034438
Se       4.75436014       1.50729168       8.23479765       0.00018052      -0.00025679       0.00035159
