9
Lattice="5.687424535688364 4.335181929015311e-08 3.283636132721351 1.8958082753658618 5.362155234216877 3.2836360358467442 1.416295490146056e-07 -1.849949580253481e-08 6.567272020133129" Properties=species:S:1:pos:R:3:forces:R:3 energy=-47.36963653564453 free_energy=-47.36963653564453 stress="-6.0128335462650284e-05 -8.858055622340544e-08 7.753136799237836e-09 -8.858055622340544e-08 -6.010423749103211e-05 -8.03981521357855e-08 7.753136799237836e-09 -8.03981521357855e-08 -6.003678572596982e-05" pbc="T T T"
Hf       1.89580888       1.34053817       3.28363451       0.00000765      -0.00000529      -0.00001434
Hf       5.68742485       4.02161674       9.85090860      -0.00000121       0.00000384       0.00000258
Pt       0.00000018      -0.00000017      -0.00000027      -0.00000477       0.00000294       0.00000213
Se       1.94859633       1.37786584       6.56727289      -0.00339395      -0.00239930       0.00000728
Se       5.63463638       3.98428971       6.56727151       0.00339317       0.00240368      -0.00000381
Se       4.71312636       1.37786520       4.97117054       0.00169739      -0.00240502      -0.00293928
Se       2.87010636       3.98428985       8.16337404      -0.00169587       0.00239921       0.00293773
Se       2.87010670       3.98428951       4.97117055      -0.00169677       0.00240573      -0.00294429
Se       4.71312578       1.37786620       8.16337440       0.00169462      -0.00240555       0.00295186
