9
Lattice="5.249166971126823 -2.211206987683138e-08 3.030608007319541 1.7497222885067982 4.948962046952523 3.0306080321825366 -9.615349447553393e-09 2.3651771304488663e-08 6.061216031293347" Properties=species:S:1:pos:R:3:forces:R:3 energy=-51.47047424316406 free_energy=-51.47047424316406 stress="-7.537951751146466e-05 -4.2265941857522193e-08 -5.1426166436385756e-08 -4.2265941857522193e-08 -7.528931746492162e-05 2.306182267375334e-08 -5.1426166436385756e-08 2.306182267375334e-08 -7.523522072006017e-05" pbc="T T T"
Hf       1.74972100       1.23724209       3.03060963      -0.00000879       0.00001003       0.00001335
Hf       5.24916630       3.71172046       9.09182281      -0.00000296      -0.00000939      -0.00001250
P        0.00000012      -0.00000019       0.00000025       0.00000484      -0.00000326      -0.00000680
S        1.75390575       1.24019899       6.06121601      -0.00240821      -0.00169867       0.00000012
S        5.24498345       3.70876294       6.06121630       0.00240940       0.00169629       0.00000140
S        4.37221359       1.24019874       4.54953471       0.00120100      -0.00170296      -0.00208527
S        2.62667622       3.70876288       7.57289714      -0.00120330       0.00170588       0.00209361
S        2.62667526       3.70876296       4.54953518      -0.00120518       0.00170320      -0.00208563
S        4.37221521       1.24019933       7.57289631       0.00121334      -0.00170100       0.00208145
