9
Lattice="5.6904017455657865 -3.1014465338323437e-08 3.2853550485945315 1.8968005866428483 5.364962307868064 3.285354989655785 4.7756320544441766e-08 -3.841611873450451e-08 6.570710014472683" Properties=species:S:1:pos:R:3:forces:R:3 energy=-45.369903564453125 free_energy=-45.369903564453125 stress="-4.755301051773131e-05 4.78741402076821e-09 4.7759041166273164e-08 4.78741402076821e-09 -4.751708547701128e-05 6.479052405694574e-09 4.7759041166273164e-08 6.479052405694574e-09 -4.754349356517196e-05" pbc="T T T"
Hf       1.89679790       1.34123986       3.28535518      -0.00003229      -0.00000718       0.00000480
Hf       5.69040146       4.02372154       9.85606365      -0.00000233       0.00000071      -0.00001607
Pd       0.00000007      -0.00000027       0.00000027       0.00000299       0.00000723      -0.00000397
Se       1.97999570       1.40006807       6.57070998      -0.00700629      -0.00495681       0.00000181
Se       5.60720730       3.96489439       6.57071036       0.00700307       0.00495097       0.00000215
Se       4.70040485       1.40006802       5.00008191       0.00351351      -0.00495785      -0.00606084
Se       2.88679926       3.96489448       8.14133901      -0.00349411       0.00496101       0.00606662
Se       2.88679813       3.96489407       5.00008141      -0.00350416       0.00495625      -0.00606096
Se       4.70040489       1.40006873       8.14133852       0.00351939      -0.00495407       0.00606626
