9
Lattice="5.700098756293689 4.2957108935939134e-08 3.2909535201763314 1.9000329583519786 5.374104485819708 3.290953521757541 4.302737490079941e-08 3.236156080761631e-08 6.581906965827058" Properties=species:S:1:pos:R:3:forces:R:3 energy=-48.32286834716797 free_energy=-48.32286834716797 stress="-2.2620903109782375e-05 1.2404024474221842e-09 -2.388190090130138e-09 1.2404024474221842e-09 -2.258763743157033e-05 2.147871464019957e-10 -2.388190090130138e-09 2.147871464019957e-10 -2.2642489057034254e-05" pbc="T T T"
Hf       1.90003302       1.34352542       3.29095404       0.00000162      -0.00001033       0.00000638
Hf       5.70009854       4.03057942       9.87286081      -0.00000437       0.00001284       0.00000732
Rh      -0.00000004      -0.00000008       0.00000023       0.00000014       0.00000385       0.00000020
Se       1.95165999       1.38003107       6.58190634      -0.00220680      -0.00156891      -0.00000727
Se       5.64847232       3.99407307       6.58190627       0.00220656       0.00156549      -0.00000660
Se       4.72426924       1.38003153       4.98114074       0.00110757      -0.00156534      -0.00191236
Se       2.87586289       3.99407310       8.18267348      -0.00110218       0.00156572       0.00190997
Se       2.87586262       3.99407285       4.98114030      -0.00110522       0.00156245      -0.00191367
Se       4.72426851       1.38003186       8.18267385       0.00110269      -0.00156611       0.00191623
