9
Lattice="4.294488671914359 9.89592557356259e-09 2.479424192262217 1.4314962365156194 4.0488828294318635 2.479424186695066 1.2624911148627268e-08 2.108815437999457e-09 4.958848362657482" Properties=species:S:1:pos:R:3:forces:R:3 energy=-71.00486755371094 free_energy=-71.00486755371094 stress="-7.722356531303376e-05 4.709163192728738e-08 5.234660704900307e-08 4.709163192728738e-08 -7.751657540211454e-05 -4.206111015037095e-08 5.234660704900307e-08 -4.206111015037095e-08 -7.725823525106534e-05" pbc="T T T"
Hf       1.43149574       1.01222010       2.47942483      -0.00000406      -0.00001001       0.00000834
Hf       4.29448836       3.03666065       7.43827332      -0.00000560      -0.00001988       0.00001409
Ru       0.00000001       0.00000012       0.00000031      -0.00000443      -0.00000500      -0.00001359
O        1.52539758       1.07861903       4.95884778      -0.00766380      -0.00541554      -0.00001129
O        4.20058748       2.97026435       4.95884832       0.00766823       0.00542891       0.00000211
O        3.53179072       1.07862011       3.80045657       0.00383957      -0.00540453      -0.00664015
O        2.19419469       2.97026410       6.11723925      -0.00383658       0.00542510       0.00663806
O        2.19419532       2.97026428       3.80045699      -0.00383153       0.00542313      -0.00663847
O        3.53178988       1.07861884       6.11723947       0.00383873      -0.00542241       0.00664118
