9
Lattice="6.152018779745973 2.6595449800622227e-08 3.551869602689915 2.050672988774106 5.8001788158257135 3.5518695384002 1.6699547629201248e-08 -6.693013437947517e-08 7.1037391764553615" Properties=species:S:1:pos:R:3:forces:R:3 energy=-48.808433532714844 free_energy=-48.808433532714844 stress="-0.00017276649305131286 9.013880308827993e-09 2.912068086668995e-10 9.013880308827993e-09 -0.00017278821906074882 -3.4306437690645453e-09 2.912068086668995e-10 -3.4306437690645453e-09 -0.00017279607709497213" pbc="T T T"
Hf       2.05067282       1.45004479       3.55186987      -0.00000222       0.00000007       0.00000239
Hf       6.15201901       4.35013358      10.65560901       0.00000089      -0.00000518       0.00000276
Re       0.00000021       0.00000008      -0.00000025      -0.00000269      -0.00000392      -0.00000210
Te       2.11692144       1.49688961       7.10373927      -0.00777470      -0.00549519      -0.00000130
Te       6.08576998       4.30328927       7.10373881       0.00777818       0.00550124      -0.00000066
Te       5.09355809       1.49688958       5.38517714       0.00388736      -0.00549572      -0.00673273
Te       3.10913365       4.30328934       8.82230092      -0.00388849       0.00549898       0.00673271
Te       3.10913373       4.30328929       5.38517732      -0.00388775       0.00549617      -0.00673350
Te       5.09355820       1.49688959       8.82230115       0.00388952      -0.00549651       0.00673226
