9
Lattice="5.377441722464536 -1.7325014903825829e-07 3.1046671381224114 1.792480391715356 5.0699007504189115 3.104667171200533 -1.412521053343126e-07 -5.936814481482056e-08 6.209334520900774" Properties=species:S:1:pos:R:3:forces:R:3 energy=-52.62053680419922 free_energy=-52.62053680419922 stress="-1.2913525324620423e-06 -1.3815582455833919e-08 1.2076092126278581e-08 -1.3815582455833919e-08 -1.332432134404371e-06 1.5669721520339408e-08 1.2076092126278581e-08 1.5669721520339408e-08 -1.3935041351942345e-06" pbc="T T T"
Hf       1.79247774       1.26747632       3.10466829      -0.00002192       0.00001500       0.00001413
Hf       5.37744140       3.80242568       9.31399776      -0.00000048       0.00000079      -0.00003418
Rh      -0.00000015       0.00000024       0.00000050      -0.00000182       0.00000120      -0.00000444
S        1.87779862       1.32780397       6.20933444      -0.00171041      -0.00121289      -0.00000028
S        5.29212481       3.74209519       6.20933576       0.00171864       0.00119984       0.00000973
S        4.43854260       1.32780354       4.73088874       0.00085711      -0.00121564      -0.00147223
S        2.73138089       3.74209676       7.68778081      -0.00084782       0.00121474       0.00148571
S        2.73137860       3.74209568       4.73088799      -0.00086123       0.00120366      -0.00147808
S        4.43854341       1.32780473       7.68778055       0.00086844      -0.00120622       0.00148010
