9
Lattice="5.316741817871178 -3.0404553311155775e-07 3.069622225720066 1.7722471078497604 5.012672188984208 3.0696220146126887 2.9221339227420107e-08 -2.3789004793638344e-07 6.1392444008272085" Properties=species:S:1:pos:R:3:forces:R:3 energy=-54.48207473754883 free_energy=-54.48207473754883 stress="-4.2344516259618104e-05 -1.3628739914395283e-08 4.2388407450744126e-08 -1.3628739914395283e-08 -4.2284482333343476e-05 -2.234722629168573e-08 4.2388407450744126e-08 -2.234722629168573e-08 -4.2283147195121273e-05" pbc="T T T"
Hf       1.77225016       1.25316538       3.06962110       0.00002195      -0.00001946      -0.00001033
Hf       5.31674281       3.75950520       9.20886759       0.00000771       0.00001327       0.00001460
Ru       0.00000009       0.00000031       0.00000013      -0.00000357      -0.00000199      -0.00000332
S        1.87812491       1.32803554       6.13924384      -0.00157130      -0.00110751      -0.00000542
S        5.21086257       3.68463712       6.13924375       0.00156868       0.00111765      -0.00000434
S        4.37767825       1.32803470       4.69612658       0.00077814      -0.00111270      -0.00136125
S        2.71131008       3.68463617       7.58236211      -0.00078893       0.00111312       0.00136435
S        2.71131002       3.68463768       4.69612737      -0.00078642       0.00112063      -0.00135827
S        4.37767692       1.32803453       7.58236200       0.00077385      -0.00112301       0.00136340
