9
Lattice="5.73095367345246 -2.1574736968843046e-08 3.308767640679966 1.910317867562564 5.403194915299375 3.3087676463046276 -1.7189118989956288e-08 -5.265768272295564e-09 6.61753531113235" Properties=species:S:1:pos:R:3:forces:R:3 energy=-53.337181091308594 free_energy=-53.337181091308594 stress="-0.00014280267350841314 -6.263465301969973e-09 5.228991639683045e-08 -6.263465301969973e-09 -0.00014282221673056483 -4.1646766035796645e-09 5.228991639683045e-08 -4.1646766035796645e-09 -0.00014279663446359336" pbc="T T T"
Hf       1.91031792       1.35079876       3.30876769      -0.00000146      -0.00000084       0.00000144
Hf       5.73095363       4.05239607       9.92630281       0.00000220       0.00000131       0.00000074
Re       0.00000005      -0.00000007       0.00000012      -0.00000034       0.00000171      -0.00000229
Se       1.97025397       1.39318006       6.61753533       0.00064212       0.00045341      -0.00000043
Se       5.67101753       4.01001482       6.61753538      -0.00064349      -0.00045478       0.00000055
Se       4.74582656       1.39317997       5.01505770      -0.00032073       0.00045437       0.00055560
Se       2.89544493       4.01001497       8.22001287       0.00032020      -0.00045255      -0.00055671
Se       2.89544488       4.01001494       5.01505767       0.00032124      -0.00045338       0.00055474
Se       4.74582662       1.39318003       8.22001285      -0.00031981       0.00045037      -0.00055400
