9
Lattice="5.297882483420154 -7.273762637140467e-08 3.0587337934880003 1.7659608008640493 4.994891535233321 3.0587337213740255 -5.407124752597855e-08 -1.265553524602943e-07 6.117467680630197" Properties=species:S:1:pos:R:3:forces:R:3 energy=-58.451881408691406 free_energy=-58.451881408691406 stress="-4.1099607187788934e-05 -3.4836482143418834e-08 5.368784172787855e-08 -3.4836482143418834e-08 -4.1128114389721304e-05 1.7236921223684476e-08 5.368784172787855e-08 1.7236921223684476e-08 -4.105140033061616e-05" pbc="T T T"
Hf       1.76596083       1.24872421       3.05873625       0.00000082       0.00001114       0.00001892
Hf       5.29788111       3.74616630       9.17619745      -0.00000824      -0.00001654      -0.00003178
Re       0.00000028      -0.00000007       0.00000087       0.00000036       0.00000107      -0.00000788
S        1.89433906       1.33950017       6.11746610       0.00106895       0.00075865      -0.00001213
S        5.16950437       3.65539171       6.11746875      -0.00106895      -0.00075597       0.00000952
S        4.35071322       1.33950020       4.69927992      -0.00053310       0.00075924       0.00092673
S        2.71313094       3.65539042       7.53565577       0.00053215      -0.00075185      -0.00091535
S        2.71313029       3.65539113       4.69927980       0.00053525      -0.00076014       0.00092661
S        4.35071280       1.33950120       7.53565597      -0.00052696       0.00075430      -0.00091499
