9
Lattice="4.332397725929854 4.9786843937200273e-08 2.5013110052594922 1.4441325672839134 4.084623970826129 2.5013111004625777 -5.603210608635062e-08 7.697881554420643e-08 5.002622107569435" Properties=species:S:1:pos:R:3:forces:R:3 energy=-68.44771575927734 free_energy=-68.44771575927734 stress="0.0002955872332677245 -3.6937873204578864e-08 -1.5980067757936922e-07 -3.6937873204578864e-08 0.000295184989226982 -1.8105752985775325e-07 -1.5980067757936922e-07 -1.8105752985775325e-07 0.0002954759693238884" pbc="T T T"
Hf       1.44413153       1.02115743       2.50131126      -0.00001745       0.00001771       0.00000413
Hf       4.33239754       3.06346723       7.50393470      -0.00000407      -0.00000461       0.00003110
Rh      -0.00000009       0.00000012      -0.00000007       0.00000185       0.00001609       0.00000933
O        1.53135331       1.08283014       5.00262203      -0.00340845      -0.00241318      -0.00000172
O        4.24517710       3.00179381       5.00262083       0.00340260       0.00240015      -0.00001774
O        3.56672184       1.08283044       3.82750198       0.00171497      -0.00240193      -0.00295471
O        2.20980893       3.00179355       6.17774235      -0.00170092       0.00239436       0.00294087
O        2.20980914       3.00179341       3.82750150      -0.00170256       0.00239755      -0.00295722
O        3.56672145       1.08283033       6.17774218       0.00171443      -0.00240590       0.00294658
