9
Lattice="5.614984441690317 -6.697378447474013e-08 3.241812691053432 1.8716614257644104 5.2938581002537335 3.2418126766004334 -5.179730801554316e-08 -5.4327462448245815e-08 6.4836254718224335" Properties=species:S:1:pos:R:3:forces:R:3 energy=-46.889686584472656 free_energy=-46.889686584472656 stress="-0.00012048587814206257 -1.3297015044599902e-08 -5.8031641714251236e-08 -1.3297015044599902e-08 -0.0001205083608510904 -3.342015020280087e-08 -5.8031641714251236e-08 -3.342015020280087e-08 -0.00012051363592036068" pbc="T T T"
Hf       1.87166106       1.32346436       3.24181229      -0.00000014       0.00000070      -0.00000183
Hf       5.61498458       3.97039299       9.72543681       0.00000126      -0.00000648      -0.00001309
Si      -0.00000001       0.00000005      -0.00000022      -0.00000232       0.00000139      -0.00000047
Se       1.88708693       1.33437211       6.48362565      -0.00237307      -0.00167525       0.00000090
Se       5.59955896       3.95948606       6.48362604       0.00236917       0.00167534       0.00000439
Se       4.67144120       1.33437197       4.87607800       0.00118789      -0.00167640      -0.00205283
Se       2.81520512       3.95948580       8.09117316      -0.00118257       0.00167425       0.00205629
Se       2.81520449       3.95948633       4.87607839      -0.00118773       0.00167903      -0.00204802
Se       4.67144092       1.33437228       8.09117319       0.00118740      -0.00167264       0.00205453
