9
Lattice="5.838198338909019 1.8104278976398978e-07 3.3706853795146516 1.9460662125017387 5.504306509589424 3.370685502761682 -1.6645996960381735e-07 3.324120276688682e-08 6.741371047346429" Properties=species:S:1:pos:R:3:forces:R:3 energy=-42.99076461791992 free_energy=-42.99076461791992 stress="4.529758371063508e-05 -6.422171594522297e-08 6.90329855501659e-08 -6.422171594522297e-08 4.5322020014282316e-05 3.79041438236527e-08 6.90329855501659e-08 3.79041438236527e-08 4.512644591159187e-05" pbc="T T T"
Hf       1.94606248       1.37607539       3.37068731      -0.00004330      -0.00001250       0.00002436
Hf       5.83820189       4.12823231      10.11205366       0.00004144       0.00002688      -0.00003007
Sn      -0.00000010       0.00000027       0.00000011       0.00000038      -0.00000126      -0.00000158
Se       2.07318205       1.46596151       6.74137035       0.00020741       0.00014672      -0.00000710
Se       5.71108264       4.03834456       6.74137166      -0.00020006      -0.00014837       0.00000954
Se       4.80160729       1.46596029       5.16611544      -0.00010224       0.00012641       0.00019318
Se       2.98265741       4.03834591       8.31662704       0.00010367      -0.00013646      -0.00018883
Se       2.98265580       4.03834556       5.16611558       0.00008216      -0.00013795       0.00019480
Se       4.80160808       1.46596112       8.31662661      -0.00008942       0.00013661      -0.00019452
