9
Lattice="4.4511860114575175 -5.768848533500785e-08 2.5698934789295045 1.4837286339017277 4.196618355973621 2.5698934480901485 1.1883504431974076e-08 -2.9367432120889587e-08 5.139786937276169" Properties=species:S:1:pos:R:3:forces:R:3 energy=-66.62407684326172 free_energy=-66.62407684326172 stress="-0.0002434275229461491 6.097743465716121e-08 7.290674375326489e-08 6.097743465716121e-08 -0.00024358401424251497 -1.0460683341761978e-07 7.290674375326489e-08 -1.0460683341761978e-07 -0.0002433334302622825" pbc="T T T"
Hf       1.48372834       1.04915461       2.56989397      -0.00000498      -0.00000026       0.00000932
Hf       4.45118527       3.14746310       7.70968066      -0.00001146      -0.00000865       0.00000872
Sn       0.00000001       0.00000000      -0.00000007      -0.00000382      -0.00000048       0.00000306
O        1.58155556       1.11832842       5.13978686      -0.00130719      -0.00092530      -0.00000401
O        4.35335921       3.07828983       5.13978683       0.00131062       0.00092995      -0.00000235
O        3.66040876       1.11832865       3.93956052       0.00065888      -0.00091991      -0.00113440
O        2.27450642       3.07829017       6.34001319      -0.00065024       0.00092462       0.00112385
O        2.27450662       3.07828949       3.93956026      -0.00065114       0.00092283      -0.00114232
O        3.66040850       1.11832884       6.34001320       0.00065921      -0.00092253       0.00113764
