9
Lattice="6.116161693833733 8.610148375009453e-09 3.531167555677525 2.038720605476094 5.766372480023809 3.5311674989578536 2.982834177784095e-08 -4.8375308582057067e-08 7.062335059690829" Properties=species:S:1:pos:R:3:forces:R:3 energy=-41.42817687988281 free_energy=-41.42817687988281 stress="-0.0001872647408163175 9.994176153327317e-09 -1.1050665271739035e-08 9.994176153327317e-09 -0.00018728227587416768 1.6213487441518737e-08 -1.1050665271739035e-08 1.6213487441518737e-08 -0.00018727830320131034" pbc="T T T"
Hf       2.03872019       1.44159332       3.53116747      -0.00000329       0.00000181      -0.00000008
Hf       6.11616186       4.32477904      10.59350311       0.00000050      -0.00000251       0.00000277
Si      -0.00000006      -0.00000012       0.00000029       0.00000051      -0.00000076      -0.00000193
Te       2.06607649       1.46093656       7.06233521      -0.00290823      -0.00205784      -0.00000088
Te       6.08880605       4.30543580       7.06233486       0.00291014       0.00205593      -0.00000154
Te       5.08312352       1.46093673       5.32044187       0.00145423      -0.00205287      -0.00251840
Te       3.07175870       4.30543578       8.80422787      -0.00145527       0.00205711       0.00251952
Te       3.07175882       4.30543605       5.32044203      -0.00145351       0.00205582      -0.00251733
Te       5.08312374       1.46093663       8.80422779       0.00145510      -0.00205658       0.00251769
