9
Lattice="5.549945952085489 -1.1237803557313871e-07 3.2042628470986547 1.8499819055159146 5.232539265392104 3.20426279957386 9.75004859377299e-09 -5.13114237025331e-08 6.408525677309702" Properties=species:S:1:pos:R:3:forces:R:3 energy=-47.97319030761719 free_energy=-47.97319030761719 stress="0.00025825845659710467 1.2547470840118535e-09 -8.563874942524308e-09 1.2547470840118535e-09 0.00025833805557340384 -7.457344963768264e-09 -8.563874942524308e-09 -7.457344963768264e-09 0.0002582840097602457" pbc="T T T"
Hf       1.84998262       1.30813449       3.20426401       0.00000591      -0.00000265       0.00000919
Hf       5.54994525       3.92440459       9.61278987      -0.00000682       0.00000199       0.00001371
Sn      -0.00000009      -0.00000015      -0.00000000       0.00000265       0.00000494       0.00000659
S        1.96266315       1.38781220       6.40852553      -0.00170052      -0.00120696      -0.00000289
S        5.43726471       3.84472687       6.40852500       0.00169694       0.00120473      -0.00000868
S        4.56861424       1.38781277       4.90397832       0.00084645      -0.00120121      -0.00148046
S        2.83131370       3.84472727       7.91307199      -0.00084853       0.00120589       0.00146842
S        2.83131357       3.84472633       4.90397853      -0.00084719       0.00119963      -0.00147831
S        4.56861445       1.38781205       7.91307200       0.00085089      -0.00120613       0.00147223
