9
Lattice="4.1821302716535165 3.84352510049863e-08 2.4145541576698197 1.3940434485526965 3.94295041760538 2.414554177707761 5.982928278074243e-08 6.684705664602382e-08 4.829108211712267" Properties=species:S:1:pos:R:3:forces:R:3 energy=-77.61795806884766 free_energy=-77.61795806884766 stress="-0.00028037073207087815 8.759598379981526e-09 3.523909386515811e-09 8.759598379981526e-09 -0.000280324078630656 8.213873314844022e-08 3.523909386515811e-09 8.213873314844022e-08 -0.00028019052115269005" pbc="T T T"
Hf       1.39404374       0.98573740       2.41455470       0.00000040      -0.00000203       0.00000277
Hf       4.18213048       2.95721272       7.24366304       0.00000106      -0.00000108       0.00000196
Si       0.00000004       0.00000008      -0.00000007      -0.00000163      -0.00000175      -0.00000286
O        1.39627254       0.98731411       4.82910825      -0.00225765      -0.00159615      -0.00000005
O        4.17990102       2.95563665       4.82910804       0.00225681       0.00159627      -0.00000269
O        3.48399384       0.98731387       3.62376157       0.00112832      -0.00159520      -0.00195378
O        2.09217976       2.95563688       6.03445449      -0.00112876       0.00159901       0.00195575
O        2.09217975       2.95563648       3.62376135      -0.00112572       0.00159568      -0.00195718
O        3.48399411       0.98731396       6.03445470       0.00112715      -0.00159436       0.00195605
