9
Lattice="5.16338058710723 -3.5169221439522804e-07 2.9810792320779806 1.7211266769424411 4.868081903870998 2.9810789789353653 -8.380782343195594e-08 -3.6929624756273777e-07 5.962158609315454" Properties=species:S:1:pos:R:3:forces:R:3 energy=-46.04182434082031 free_energy=-46.04182434082031 stress="-8.556840839446522e-06 -1.514138148195343e-07 2.6144653020310216e-07 -1.514138148195343e-07 -8.246210200013593e-06 -6.186105849792511e-08 2.6144653020310216e-07 -6.186105849792511e-08 -8.305129995278548e-06" pbc="T T T"
Hf       1.72112817       1.21702061       2.98108302       0.00000359       0.00000028       0.00001223
Hf       5.16338017       3.65106124       8.94323356      -0.00000373       0.00000083      -0.00001378
Se      -0.00000054       0.00000041      -0.00000020       0.00000436      -0.00000497      -0.00000085
S        1.90785578       1.34905786       5.96215820       0.00120103       0.00085217       0.00000715
S        4.97665117       3.51902308       5.96215920      -0.00120759      -0.00085384      -0.00000783
S        4.20945094       1.34905708       4.63333184      -0.00059694       0.00085026       0.00104129
S        2.67505556       3.51902371       7.29098524       0.00059831      -0.00084639      -0.00103939
S        2.67505531       3.51902191       4.63333184       0.00059766      -0.00083637       0.00103021
S        4.20945211       1.34905880       7.29098473      -0.00059706       0.00083846      -0.00102878
