9
Lattice="6.31266509108412 3.3806518406816575e-08 3.6446188543006746 2.1042216804905824 5.951637810815303 3.644618938150202 -6.980449075263656e-08 5.333506268628933e-08 7.2892378295062406" Properties=species:S:1:pos:R:3:forces:R:3 energy=-38.80471420288086 free_energy=-38.80471420288086 stress="6.495403067674488e-05 -1.3893621364502451e-08 -1.7670217289378343e-08 -1.3893621364502451e-08 6.497807044070214e-05 7.297766391189953e-09 -1.7670217289378343e-08 7.297766391189953e-09 6.495587876997888e-05" pbc="T T T"
Hf       2.10422177       1.48790930       3.64461904      -0.00000130      -0.00000192       0.00000074
Hf       6.31266492       4.46372887      10.93385656       0.00000067       0.00000397       0.00000054
Sn      -0.00000020       0.00000006       0.00000007       0.00000361       0.00000321      -0.00000173
Te       2.24923730       1.59045091       7.28923784      -0.00545965      -0.00386182      -0.00000010
Te       6.16764957       4.36118689       7.28923795       0.00545582       0.00385870       0.00000029
Te       5.18804636       1.59045095       5.59251547       0.00272959      -0.00386161      -0.00472884
Te       3.22884047       4.36118692       8.98595993      -0.00273053       0.00386256       0.00472870
Te       3.22884028       4.36118679       5.59251548      -0.00272811       0.00385987      -0.00472702
Te       5.18804634       1.59045090       8.98596012       0.00272988      -0.00386281       0.00472730
