9
Lattice="5.373662497232149 7.332673296330108e-08 3.102485445840883 1.7912208717960163 5.066337582869711 3.102485497365586 -4.318353725136222e-08 3.2569240824725966e-08 6.204970966477874" Properties=species:S:1:pos:R:3:forces:R:3 energy=-52.2911491394043 free_energy=-52.2911491394043 stress="4.0410748624708503e-05 -7.695704518084767e-09 8.045801358491644e-09 -7.695704518084767e-09 4.0395712858298793e-05 -1.5568902611562407e-08 8.045801358491644e-09 -1.5568902611562407e-08 4.047247421112843e-05" pbc="T T T"
Hf       1.79122088       1.26658412       3.10248539      -0.00000047      -0.00000428      -0.00000038
Hf       5.37366201       3.79975326       9.30745609      -0.00000440      -0.00000179      -0.00000333
Si      -0.00000010      -0.00000010      -0.00000006       0.00000187      -0.00000126       0.00000338
S        1.78960481       1.26544197       6.20497082      -0.00008440      -0.00006038      -0.00000037
S        5.37527866       3.80089571       6.20497106       0.00008559       0.00006074      -0.00000007
S        4.47886013       1.26544180       4.65232920       0.00004113      -0.00006014      -0.00007367
S        2.68602368       3.80089592       7.75761268      -0.00003886       0.00006223       0.00007528
S        2.68602348       3.80089604       4.65232924      -0.00004166       0.00006360      -0.00007588
S        4.47885967       1.26544211       7.75761312       0.00004062      -0.00005841       0.00007480
