9
Lattice="4.388261652038298 -2.1366366860052262e-08 2.5335639744648306 1.4627538441078338 4.1372926649915085 2.533564008691076 -3.528769453128468e-08 1.6966240069306097e-08 5.067128010049751" Properties=species:S:1:pos:R:3:forces:R:3 energy=-64.56254577636719 free_energy=-64.56254577636719 stress="2.8613890208362136e-06 -7.093799769819498e-09 3.8665884716238e-08 -7.093799769819498e-09 2.825147021212615e-06 2.2780614727935244e-08 3.8665884716238e-08 2.2780614727935244e-08 2.947570010292111e-06" pbc="T T T"
Hf       1.46275404       1.03432365       2.53356417       0.00000104       0.00000199       0.00000171
Hf       4.38826200       3.10296902       7.60069175       0.00000047      -0.00000324      -0.00000053
Se       0.00000002      -0.00000015       0.00000007      -0.00000108      -0.00000315      -0.00000354
O        1.46745930       1.03765074       5.06712815       0.00098741       0.00070161       0.00000283
O        4.38355615       3.09964185       5.06712779      -0.00098699      -0.00069946      -0.00000040
O        3.65453143       1.03765055       3.80442127      -0.00049561       0.00069436       0.00085515
O        2.19648349       3.09964221       6.32983477       0.00049567      -0.00069523      -0.00085515
O        2.19648355       3.09964184       3.80442103       0.00049219      -0.00069785       0.00085250
O        3.65453185       1.03765085       6.32983503      -0.00049290       0.00070065      -0.00085235
