9
Lattice="4.244044670001214 1.3643142445630916e-08 2.4503004036882032 1.4146815654191378 4.001323764572082 2.4503004108083384 3.645988487182434e-08 3.450136783843552e-08 4.900600744226039" Properties=species:S:1:pos:R:3:forces:R:3 energy=-67.78118896484375 free_energy=-67.78118896484375 stress="-0.00011298519530100748 2.1825220741789053e-08 1.3161979950382374e-07 2.1825220741789053e-08 -0.00011286254448350519 4.752153515141799e-08 1.3161979950382374e-07 4.752153515141799e-08 -0.00011294586875010282" pbc="T T T"
Hf       1.41468166       1.00033099       2.45030039       0.00000002       0.00000083      -0.00000160
Hf       4.24404485       3.00099294       7.35090117      -0.00000047      -0.00000065      -0.00000015
S       -0.00000017       0.00000022      -0.00000017       0.00000354      -0.00000232       0.00000067
O        1.36933136       0.96826366       4.90060077       0.00074504       0.00052907      -0.00000025
O        4.28939493       3.03306018       4.90060082      -0.00074853      -0.00052780      -0.00000048
O        3.55937892       0.96826350       3.63617631      -0.00037335       0.00052676       0.00064316
O        2.09934737       3.03305995       6.16502532       0.00037164      -0.00052492      -0.00064467
O        2.09934722       3.03306022       3.63617620       0.00037416      -0.00052807       0.00064716
O        3.55937892       0.96826364       6.16502537      -0.00037186       0.00052692      -0.00064389
