9
Lattice="6.152380972002978 -7.087662520514526e-08 3.552078844693736 2.0507935961287656 5.800520446549438 3.552078834963817 -1.3986311487654027e-09 -1.290565599010641e-08 7.104157691810005" Properties=species:S:1:pos:R:3:forces:R:3 energy=-45.69560623168945 free_energy=-45.69560623168945 stress="-0.00021465917234309018 -2.4840915102686267e-08 9.128940270386465e-09 -2.4840915102686267e-08 -0.0002146503102267161 -1.2115698666548269e-08 9.128940270386465e-09 -1.2115698666548269e-08 -0.00021463667508214712" pbc="T T T"
Hf       2.05079344       1.45012974       3.55207930      -0.00000010      -0.00000193       0.00000182
Hf       6.15238074       4.35039081      10.65623555      -0.00000094       0.00000271      -0.00000546
Ti      -0.00000022      -0.00000014       0.00000032       0.00000309       0.00000167      -0.00000119
Te       2.13386966       1.50887344       7.10415785      -0.00676966      -0.00478750       0.00000086
Te       6.06930518       4.29164703       7.10415794       0.00676511       0.00478390       0.00000128
Te       5.08544597       1.50887332       5.40006428       0.00338504      -0.00478826      -0.00586112
Te       3.11772872       4.29164680       8.80825099      -0.00338470       0.00478716       0.00586288
Te       3.11772839       4.29164663       5.40006423      -0.00338542       0.00478949      -0.00586289
Te       5.08544638       1.50887382       8.80825106       0.00338756      -0.00478728       0.00586374
