9
Lattice="5.728519083866557 1.104827391150466e-07 3.307361977021661 1.9095064222305849 5.4008995802080975 3.307362051885045 -8.994562379729692e-08 2.8087385895561935e-08 6.61472410983373" Properties=species:S:1:pos:R:3:forces:R:3 energy=-53.335330963134766 free_energy=-53.335330963134766 stress="6.948324153199792e-05 -1.4172972129244954e-08 -4.249887197715907e-08 -1.4172972129244954e-08 6.949725502636284e-05 -7.899683396317414e-08 -4.249887197715907e-08 -7.899683396317414e-08 6.943898915778846e-05" pbc="T T T"
Hf       1.90950661       1.35022413       3.30736188       0.00000441      -0.00001011      -0.00000418
Hf       5.72851902       4.05067480       9.92208794       0.00000440       0.00000263       0.00001363
Ta       0.00000009      -0.00000032      -0.00000103       0.00000351       0.00001280       0.00001177
Se       1.99760812       1.41252225       6.61472421      -0.00671441      -0.00475018       0.00000147
Se       5.64041755       3.98837807       6.61472317       0.00670261       0.00474158      -0.00000561
Se       4.72971494       1.41252233       5.03734105       0.00335804      -0.00474717      -0.00581688
Se       2.90830994       3.98837784       8.19210693      -0.00335404       0.00474080       0.00580778
Se       2.90831034       3.98837805       5.03734138      -0.00335624       0.00475378      -0.00581647
Se       4.72971501       1.41252173       8.19210702       0.00335171      -0.00474409       0.00580839
