9
Lattice="4.290705327062722 1.1894337213894527e-08 2.4772399584688856 1.4302351386379246 4.045315784615512 2.477239926594065 5.8178462392105165e-08 2.0998683394892794e-09 4.954479816169691" Properties=species:S:1:pos:R:3:forces:R:3 energy=-76.91822814941406 free_energy=-76.91822814941406 stress="-0.00011155696847708896 -1.2015803463327757e-07 4.750765469907492e-08 -1.2015803463327757e-07 -0.00011216391430934891 -6.129135243782002e-08 4.750765469907492e-08 -6.129135243782002e-08 -0.00011196466948604211" pbc="T T T"
Hf       1.43023521       1.01132939       2.47724035       0.00000026       0.00000057       0.00000302
Hf       4.29070603       3.03398655       7.43171999       0.00000752      -0.00000089       0.00000026
Ti       0.00000011      -0.00000007       0.00000021       0.00000067       0.00000206      -0.00000071
O        1.50703567       1.06563524       4.95447962      -0.00229761      -0.00162032       0.00000117
O        4.21390477       2.97968045       4.95447961       0.00229666       0.00162467      -0.00000121
O        3.53718729       1.06563522       3.78237121       0.00114802      -0.00162598      -0.00199389
O        2.18375298       2.97968066       6.12658833      -0.00114980       0.00162159       0.00198889
O        2.18375277       2.97968058       3.78237134      -0.00115255       0.00162236      -0.00198922
O        3.53718728       1.06563512       6.12658832       0.00114626      -0.00162449       0.00199169
