9
Lattice="5.432681616514787 3.5480849245450296e-08 3.1365600938117617 1.810893971886863 5.121980565906472 3.136559979039806 2.9169812231491003e-07 6.569537758283894e-08 6.273119682387719" Properties=species:S:1:pos:R:3:forces:R:3 energy=-44.90947341918945 free_energy=-44.90947341918945 stress="0.00023251397942658514 8.868043011034388e-08 3.551404503809863e-08 8.868043011034388e-08 0.00023264203628059477 -1.2953491079770174e-07 3.551404503809863e-08 -1.2953491079770174e-07 0.00023313856218010187" pbc="T T T"
Hf       1.81090061       1.28049663       3.13655280       0.00007080       0.00001260      -0.00006316
Hf       5.43267547       3.84148218       9.40967371      -0.00007219      -0.00003229      -0.00005293
Te      -0.00000003      -0.00000035       0.00000226      -0.00000246       0.00001680      -0.00009070
S        1.94759522       1.37715512       6.27312200      -0.00708759      -0.00502181       0.00002378
S        5.29598139       3.74482487       6.27312205       0.00708246       0.00502044       0.00001957
S        4.45888529       1.37715673       4.82322509       0.00353175      -0.00499281      -0.00612634
S        2.78469473       3.74482122       7.72301709      -0.00353500       0.00501248       0.00619459
S        2.78469075       3.74482535       4.82322599      -0.00352645       0.00499991      -0.00612032
S        4.45887987       1.37716150       7.72301778       0.00353852      -0.00501487       0.00621575
