9
Lattice="4.369180399060223 3.756161931443966e-08 2.5225475424623296 1.4563934913919443 4.1193028669964376 2.5225475604321836 -1.906344714285697e-09 2.0660500959528665e-08 5.045095088226545" Properties=species:S:1:pos:R:3:forces:R:3 energy=-79.55731201171875 free_energy=-79.55731201171875 stress="8.942046406446025e-05 7.365111542867453e-08 -8.097899240055995e-08 7.365111542867453e-08 8.925168367568403e-05 4.6960469290979745e-08 -8.097899240055995e-08 4.6960469290979745e-08 8.937839447753504e-05" pbc="T T T"
Hf       1.45639357       1.02982622       2.52254728      -0.00000002       0.00000301      -0.00000549
Hf       4.36918074       3.08947702       7.56764283       0.00000438      -0.00000122      -0.00000073
Ta      -0.00000001       0.00000003       0.00000010       0.00000316      -0.00000128       0.00001017
O        1.55231080       1.09764969       5.04509513      -0.00166881      -0.00118139       0.00000055
O        4.27326285       3.02165314       5.04509504       0.00167033       0.00118005       0.00000012
O        3.59302503       1.09764964       3.86688825       0.00083555      -0.00118199      -0.00143880
O        2.23254892       3.02165325       6.22330175      -0.00083616       0.00117415       0.00144050
O        2.23254895       3.02165313       3.86688831      -0.00083338       0.00117931      -0.00144213
O        3.59302465       1.09764964       6.22330214       0.00082594      -0.00117108       0.00143495
