9
Lattice="5.33275852126378 1.2563236039917048e-07 3.0788694750594647 1.777586238975894 5.027772806102456 3.078869567249551 4.281229066024382e-08 1.431823272176247e-07 6.157738875965831" Properties=species:S:1:pos:R:3:forces:R:3 energy=-56.11500930786133 free_energy=-56.11500930786133 stress="3.3254731533816084e-05 2.602658533135127e-08 1.3983773250458853e-08 2.602658533135127e-08 3.3209209505002946e-05 2.551925426530488e-08 1.3983773250458853e-08 2.551925426530488e-08 3.3180851460201666e-05" pbc="T T T"
Hf       1.77758524       1.25694465       3.07887020      -0.00000486       0.00001146       0.00000336
Hf       5.33275889       3.77082938       9.23660450       0.00000090      -0.00000245      -0.00002317
Ti       0.00000034      -0.00000015      -0.00000143      -0.00000621       0.00000125       0.00002964
S        1.87755920       1.32763510       6.15773946      -0.00045612      -0.00032026       0.00000594
S        5.23278555       3.70013750       6.15773985       0.00046140       0.00032288       0.00000800
S        4.39397850       1.32763462       4.70488443       0.00023480      -0.00034177      -0.00040078
S        2.71636635       3.70013843       7.61059547      -0.00021625       0.00031137       0.00038394
S        2.71636528       3.70013718       4.70488369      -0.00023998       0.00032593      -0.00039774
S        4.39397978       1.32763560       7.61059555       0.00022629      -0.00030829       0.00039119
