9
Lattice="5.850224324649401 2.2413891758265513e-07 3.377628503681712 1.9500749991241615 5.515643631392578 3.3776284813022 -1.0232364912474265e-08 -3.46445945887046e-08 6.755257025086382" Properties=species:S:1:pos:R:3:forces:R:3 energy=-39.68452453613281 free_energy=-39.68452453613281 stress="0.00037786076427437365 2.112487074157343e-08 1.5853181878355826e-08 2.112487074157343e-08 0.0003780903934966773 -5.275758496736671e-08 1.5853181878355826e-08 -5.275758496736671e-08 0.00037757112295366824" pbc="T T T"
Hf       1.95007332       1.37890143       3.37762598      -0.00003372      -0.00014314      -0.00004037
Hf       5.85022887       4.13673557      10.13288734       0.00006944       0.00005152       0.00002528
Te      -0.00000018       0.00000008       0.00000044      -0.00000174       0.00000206      -0.00001220
Se       2.08918506       1.47727728       6.75525769      -0.00644045      -0.00455280       0.00000899
Se       5.71111149       4.03837045       6.75525731       0.00641094       0.00459813      -0.00000160
Se       4.80563395       1.47727572       5.18691659       0.00323157      -0.00455847      -0.00555308
Se       2.99466571       4.03836886       8.32359585      -0.00323562       0.00457902       0.00554371
Se       2.99466737       4.03837136       5.18691826      -0.00321519       0.00460237      -0.00552848
Se       4.80563163       1.47727455       8.32359637       0.00321442      -0.00457862       0.00555784
