9
Lattice="6.219095733396961 2.2740421890225068e-09 3.5905966657168435 2.0730319135221946 5.863419716036777 3.5905966652909544 3.024124647543871e-08 2.0862227355891287e-08 7.181193279054325" Properties=species:S:1:pos:R:3:forces:R:3 energy=-48.4857177734375 free_energy=-48.4857177734375 stress="-4.3352214561309665e-05 1.1215057327262912e-08 -1.1436435798373168e-08 1.1215057327262912e-08 -4.334805635153316e-05 2.237790841519427e-09 -1.1436435798373168e-08 2.237790841519427e-09 -4.3372980144340545e-05" pbc="T T T"
Hf       2.07303187       1.46585448       3.59059646       0.00000132      -0.00000278      -0.00000218
Hf       6.21909582       4.39756499      10.77178999       0.00000007       0.00000180      -0.00000355
Ta       0.00000011       0.00000011       0.00000007       0.00000013      -0.00000087       0.00000333
Te       2.17153360       1.53550611       7.18119359      -0.00055447      -0.00039159       0.00000025
Te       6.12059402       4.32791382       7.18119322       0.00055343       0.00039239       0.00000079
Te       5.13332900       1.53550600       5.47119991       0.00027625      -0.00039133      -0.00047831
Te       3.15879880       4.32791365       8.89118654      -0.00027542       0.00039068       0.00047892
Te       3.15879866       4.32791373       5.47119998      -0.00027695       0.00039238      -0.00047812
Te       5.13332883       1.53550609       8.89118669       0.00027592      -0.00039075       0.00047894
