9
Lattice="4.4301639027039785 -1.495683647391644e-07 2.5577565019604425 1.476721223360763 4.176798753309202 2.5577563920206323 -2.1886150583169627e-08 -1.50124157609226e-07 5.115513041828805" Properties=species:S:1:pos:R:3:forces:R:3 energy=-64.95438385009766 free_energy=-64.95438385009766 stress="0.00039548863423988223 -3.9820693586989364e-07 -1.407281757792589e-07 -3.9820693586989364e-07 0.00039530033245682716 1.1261919041771762e-07 -1.407281757792589e-07 1.1261919041771762e-07 0.0003947275981772691" pbc="T T T"
Hf       1.47672004       1.04419934       2.55775704      -0.00000138      -0.00000152       0.00000901
Hf       4.43016810       3.13259993       7.67327060       0.00002951       0.00000662       0.00001219
Te       0.00000005      -0.00000033       0.00000034       0.00000271      -0.00000493      -0.00001718
O        1.55271148       1.09793364       5.11551229      -0.00416114      -0.00293411      -0.00000178
O        4.35417237       3.07886547       5.11551289       0.00416059       0.00293762      -0.00000073
O        3.65380659       1.09793373       3.90244390       0.00207444      -0.00293631      -0.00361345
O        2.25307701       3.07886445       6.32858083      -0.00209291       0.00294202       0.00361872
O        2.25307640       3.07886610       3.90244634      -0.00209263       0.00294715      -0.00359119
O        3.65380818       1.09793112       6.32857930       0.00208203      -0.00295607       0.00358467
