9
Lattice="6.070212857136887 -2.5910391019844444e-08 3.5046390480463208 2.0234042651443715 5.723051609857306 3.504639041359501 1.4133572304658941e-08 1.8043280354786877e-09 7.009278071612582" Properties=species:S:1:pos:R:3:forces:R:3 energy=-46.301856994628906 free_energy=-46.301856994628906 stress="-9.30775422602892e-06 -1.0372365188970889e-08 1.8842646554162457e-08 -1.0372365188970889e-08 -9.294401024817489e-06 -2.582660485472843e-08 1.8842646554162457e-08 -2.582660485472843e-08 -9.303607839683536e-06" pbc="T T T"
Hf       2.02340405       1.43076379       3.50463937      -0.00000124       0.00000439       0.00000172
Hf       6.07021258       4.29228801      10.51391640      -0.00000302      -0.00000555      -0.00000636
V       -0.00000005      -0.00000002       0.00000022      -0.00000058       0.00000053      -0.00000350
Te       2.08835363       1.47668890       7.00927808      -0.00003652      -0.00002554      -0.00000072
Te       6.00526383       4.24636258       7.00927839       0.00003739       0.00002352       0.00000319
Te       5.02603617       1.47668913       5.31320633       0.00001863      -0.00002374      -0.00003061
Te       3.06758110       4.24636253       8.70534968      -0.00001722       0.00002797       0.00003250
Te       3.06758122       4.24636221       5.31320621      -0.00001926       0.00002345      -0.00003303
Te       5.02603600       1.47668920       8.70534999       0.00002184      -0.00002507       0.00003669
