9
Lattice="5.347869275905325 -5.312459350818012e-08 3.0875938010385013 1.7826231112524675 5.042019266335802 3.087593680885471 7.545149192067022e-08 -9.380450511560444e-08 6.175187471391144" Properties=species:S:1:pos:R:3:forces:R:3 energy=-56.03793716430664 free_energy=-56.03793716430664 stress="-3.658413334051147e-05 -1.3501745277366695e-09 1.3996180880937459e-09 -1.3501745277366695e-09 -3.657390334410593e-05 8.643765148086402e-10 1.3996180880937459e-09 8.643765148086402e-10 -3.660197035060264e-05" pbc="T T T"
Hf       1.78262274       1.26050482       3.08759340      -0.00000398       0.00000069      -0.00000363
Hf       5.34786939       3.78151346       9.26278023      -0.00000030      -0.00000969      -0.00001023
V       -0.00000017      -0.00000015      -0.00000009       0.00000381      -0.00000159       0.00000292
S        1.85956205       1.31490919       6.17518737      -0.00098121      -0.00068977       0.00000082
S        5.27093013       3.72711023       6.17518770       0.00097984       0.00069031       0.00000271
S        4.41808873       1.31490916       4.69802198       0.00049281      -0.00069079      -0.00084460
S        2.71240503       3.72711032       7.65235344      -0.00048673       0.00069374       0.00084984
S        2.71240403       3.72711013       4.69802224      -0.00049308       0.00069490      -0.00084835
S        4.41808795       1.31490939       7.65235354       0.00048903      -0.00068787       0.00085074
