9
Lattice="5.604257207247671 -4.1815527572993635e-08 3.235619362770176 1.868085676154311 5.283744277260899 3.2356193977070986 -7.7213007796987e-08 -1.1809008574022315e-08 6.471238859277189" Properties=species:S:1:pos:R:3:forces:R:3 energy=-50.777652740478516 free_energy=-50.777652740478516 stress="-9.207180846715346e-05 -9.556427649215493e-09 -1.1929460086435029e-08 -9.556427649215493e-09 -9.209193376591429e-05 -1.1644894826190466e-08 -1.1929460086435029e-08 -1.1644894826190466e-08 -9.210839925799519e-05" pbc="T T T"
Hf       1.86808538       1.32093591       3.23561953      -0.00000624      -0.00000384       0.00000210
Hf       5.60425672       3.96281027       9.70685642      -0.00000654       0.00001866      -0.00001914
V       -0.00000006      -0.00000022       0.00000027       0.00000076      -0.00000217      -0.00000561
Se       1.91571254       1.35461300       6.47124016       0.00000694      -0.00000395       0.00000634
Se       5.55663073       3.92913033       6.47124065       0.00000149      -0.00000641       0.00001126
Se       4.64640027       1.35461249       4.89467494      -0.00000678      -0.00000103       0.00000882
Se       2.82594252       3.92913170       8.04780163       0.00000444       0.00000979      -0.00000024
Se       2.82594198       3.92913063       4.89467472       0.00000452      -0.00000405       0.00000063
Se       4.64640113       1.35461278       8.04780214       0.00000131      -0.00000711      -0.00000441
