9
Lattice="4.401413135269162 7.5918650194368e-08 2.5411570703372393 1.4671377221360749 4.1496921485934255 2.5411571763337406 1.6184065618594867e-08 1.4126256128238046e-07 5.082314112642849" Properties=species:S:1:pos:R:3:forces:R:3 energy=-71.89491271972656 free_energy=-71.89491271972656 stress="0.00012915518891531974 -5.404522163132697e-09 -1.1093514995508258e-09 -5.404522163132697e-09 0.00012906019401270896 3.126212844151155e-09 -1.1093514995508258e-09 3.126212844151155e-09 0.0001290096261072904" pbc="T T T"
Hf       1.46713772       1.03742401       2.54115766      -0.00000039       0.00000908       0.00000957
Hf       4.40141375       3.11226957       7.62347256       0.00001015       0.00000364       0.00001818
W       -0.00000008      -0.00000004       0.00000029       0.00000653      -0.00000063      -0.00001612
O        1.55062607       1.09645894       5.08231464      -0.00000724      -0.00000382       0.00000197
O        4.31792463       3.05323342       5.08231295       0.00000715      -0.00000095      -0.00001935
O        3.62609955       1.09645796       3.88403856      -0.00001361       0.00000037       0.00000567
O        2.24245119       3.05323391       6.28058904      -0.00000577       0.00001219       0.00000575
O        2.24245055       3.05323336       3.88403877      -0.00000323      -0.00000788      -0.00000449
O        3.62610030       1.09645848       6.28058904       0.00000658      -0.00001136      -0.00000131
