9
Lattice="5.741984982030196 2.3741163992741834e-08 3.3151365880491603 1.9139950124017966 5.41359535844188 3.315136594962908 1.495647482307862e-08 1.904339889237304e-08 6.630273150192946" Properties=species:S:1:pos:R:3:forces:R:3 energy=-53.21116256713867 free_energy=-53.21116256713867 stress="-0.00013389333616942167 3.5512035534424058e-09 1.6756869669620755e-08 3.5512035534424058e-09 -0.00013391755055636168 -8.349839042409712e-09 1.6756869669620755e-08 -8.349839042409712e-09 -0.00013390225649345666" pbc="T T T"
Hf       1.91399512       1.35339889       3.31513671      -0.00000027       0.00000036       0.00000202
Hf       5.74198510       4.06019637       9.94541012       0.00000407      -0.00000148       0.00000250
W       -0.00000006      -0.00000004      -0.00000017       0.00000200       0.00000121      -0.00000571
Se       1.98123170       1.40094250       6.63027321       0.00008479       0.00006309       0.00000057
Se       5.67474826       4.01265302       6.63027303      -0.00008768      -0.00006266      -0.00000105
Se       4.75136914       1.40094252       5.03093356      -0.00004826       0.00006421       0.00007555
Se       2.90461081       4.01265302       8.22961270       0.00004223      -0.00005828      -0.00007713
Se       2.90461088       4.01265293       5.03093354       0.00004455      -0.00006580       0.00007759
Se       4.75136909       1.40094241       8.22961267      -0.00004159       0.00005932      -0.00007454
