9
Lattice="5.468222662297026 -3.797583449830219e-08 3.157079817309679 1.8227408931615263 5.155489639033011 3.1570797453720876 2.108876802270455e-08 -7.319315511891276e-08 6.314159598092527" Properties=species:S:1:pos:R:3:forces:R:3 energy=-58.50482940673828 free_energy=-58.50482940673828 stress="0.0002678271848708391 9.001018952403683e-08 3.605508558379711e-09 9.001018952403683e-08 0.0002678019809536636 3.919528168694342e-08 3.605508558379711e-09 3.919528168694342e-08 0.00026771731791086495" pbc="T T T"
Hf       1.82274195       1.28887304       3.15707737       0.00001297       0.00000836      -0.00002549
Hf       5.46822269       3.86661541       9.47124318      -0.00000292      -0.00002068       0.00004031
W        0.00000018       0.00000012      -0.00000005      -0.00000770       0.00000054       0.00000446
S        1.90815702       1.34927152       6.31416001      -0.00496995      -0.00350395       0.00000713
S        5.38280582       3.80621807       6.31415826       0.00497359       0.00351602      -0.00001215
S        4.51414394       1.34927219       4.80959184       0.00248536      -0.00350112      -0.00430918
S        2.77681887       3.80621823       7.81872720      -0.00248948       0.00349864       0.00429481
S        2.77682054       3.80621891       4.80959181      -0.00247258       0.00351250      -0.00430009
S        4.51414319       1.34927069       7.81872708       0.00247088      -0.00351042       0.00430015
