9
Lattice="4.432352715976581 1.1078121899277792e-07 2.5590202475535038 1.4774510242886036 4.178862264505273 2.559020222408373 1.9733782850639645e-07 1.0874255770580653e-07 5.118040153307859" Properties=species:S:1:pos:R:3:forces:R:3 energy=-73.3143310546875 free_energy=-73.3143310546875 stress="-9.159512956102844e-06 -3.8219663878180654e-08 -2.75641923508374e-07 -3.8219663878180654e-08 -9.394115295435768e-06 -2.556063805059239e-07 -2.75641923508374e-07 -2.556063805059239e-07 -9.404992852068972e-06" pbc="T T T"
Hf       1.47745027       1.04471573       2.55901963      -0.00000603      -0.00000218      -0.00000887
Hf       4.43235272       3.13414673       7.67706170      -0.00000391      -0.00000312       0.00001515
Zr       0.00000009      -0.00000006       0.00000004       0.00000149       0.00000233       0.00000074
O        1.59422459       1.12728725       5.11804037      -0.00058982      -0.00041075       0.00000559
O        4.31557956       3.05157536       5.11803946       0.00058380       0.00040905      -0.00000822
O        3.63524073       1.12728671       3.93965946       0.00029706      -0.00041057      -0.00050467
O        2.27456358       3.05157545       6.29642146      -0.00029077       0.00041953       0.00050427
O        2.27456366       3.05157562       3.93965906      -0.00028744       0.00041170      -0.00051092
O        3.63524059       1.12728717       6.29642146       0.00029420      -0.00041547       0.00050697
