9
Lattice="5.761466615528328 -1.3477472246415162e-07 3.326384392009817 1.9204887891971203 5.431962864085937 3.3263843150700585 7.131428217862643e-08 -4.3804748808706374e-08 6.652768660499683" Properties=species:S:1:pos:R:3:forces:R:3 energy=-50.03486633300781 free_energy=-50.03486633300781 stress="0.00013931331341154873 -4.075071657894114e-08 -2.783703578757013e-08 -4.075071657894114e-08 0.0001393206330249086 1.424288154083797e-08 -2.783703578757013e-08 1.424288154083797e-08 0.00013927575491834432" pbc="T T T"
Hf       1.92048835       1.35799135       3.32638460      -0.00000495       0.00000707       0.00000299
Hf       5.76146625       4.07397220       9.97915318      -0.00000564       0.00000123       0.00000589
Zr       0.00000017      -0.00000007      -0.00000002       0.00000075       0.00000106       0.00000287
Se       2.03708114       1.44043338       6.65276890      -0.00716984      -0.00507464       0.00000196
Se       5.64487497       3.99152886       6.65276895       0.00717425       0.00506438      -0.00000264
Se       4.74292622       1.44043334       5.09054794       0.00358867      -0.00507131      -0.00621060
Se       2.93902952       3.99152936       8.21498882      -0.00358548       0.00507635       0.00620899
Se       2.93902905       3.99152902       5.09054772      -0.00358230       0.00506565      -0.00621432
Se       4.74292623       1.44043331       8.21498934       0.00358438      -0.00506952       0.00620516
