9
Lattice="5.969047500025307 9.250048627864619e-09 3.4462310871560926 1.989682504714464 5.627671637209341 3.4462310941102543 -4.756820601693886e-08 -2.5118733561285505e-08 6.892462256702689" Properties=species:S:1:pos:R:3:forces:R:3 energy=-16.16762351989746 free_energy=-16.16762351989746 stress="0.0001634464570088312 2.971954682351452e-09 9.688969626608923e-09 2.971954682351452e-09 0.000163426244398579 -2.111291230733059e-08 9.688969626608923e-09 -2.111291230733059e-08 0.00016341420996468514" pbc="T T T"
Hg       1.98968255       1.40691773       3.44623128      -0.00000034       0.00000047       0.00000048
Hg       5.96904737       4.22075374      10.33869340       0.00000021       0.00000099       0.00000016
Au      -0.00000015      -0.00000026       0.00000021       0.00000077       0.00000435      -0.00000322
Cl       1.99652144       1.41175364       6.89246241      -0.00276479      -0.00195456      -0.00000026
Cl       5.96220881       4.21591812       6.89246214       0.00276214       0.00195226      -0.00000017
Cl       4.97078665       1.41175391       5.17526956       0.00138220      -0.00195390      -0.00239420
Cl       2.98794347       4.21591776       8.60965466      -0.00138177       0.00195438       0.00239453
Cl       2.98794330       4.21591793       5.17526954      -0.00138171       0.00195187      -0.00239253
Cl       4.97078642       1.41175387       8.60965459       0.00138307      -0.00195593       0.00239524
