9
Lattice="6.713370940742367 4.267166623271577e-08 3.8759664630369945 2.237790401832478 6.329426766010738 3.875966379863109 4.198552717428295e-08 -7.217859490421429e-08 7.751932853352945" Properties=species:S:1:pos:R:3:forces:R:3 energy=-12.222990989685059 free_energy=-12.222990989685059 stress="-3.132945130346343e-05 8.143899443702196e-10 -5.23186782785956e-09 8.143899443702196e-10 -3.1330269848695025e-05 9.794452360267769e-09 -5.23186782785956e-09 9.794452360267769e-09 -3.1321924325311556e-05" pbc="T T T"
Hg       2.23779036       1.58235674       3.87596653      -0.00000017      -0.00000000       0.00000012
Hg       6.71337101       4.74707000      11.62789923       0.00000017       0.00000011       0.00000002
Au       0.00000020      -0.00000013       0.00000008      -0.00000183      -0.00000000      -0.00000119
I        2.34548388       1.65850752       7.75193293      -0.00040919      -0.00028880      -0.00000029
I        6.60567736       4.67091914       7.75193300       0.00041078       0.00029017      -0.00000053
I        5.54062930       1.65850734       5.90721506       0.00020495      -0.00028935      -0.00035550
I        3.41053241       4.67091925       9.59665052      -0.00020555       0.00028980       0.00035569
I        3.41053205       4.67091942       5.90721502      -0.00020427       0.00028847      -0.00035423
I        5.54062902       1.65850766       9.59665038       0.00020508      -0.00029035       0.00035591
