9
Lattice="5.983061444342052 2.8235494260155e-08 3.4543220093010865 1.9943538495513236 5.640883992851133 3.4543219951848454 -9.609708949016323e-08 -8.523958344159525e-08 6.90864418504718" Properties=species:S:1:pos:R:3:forces:R:3 energy=-15.456727027893066 free_energy=-15.456727027893066 stress="0.00018437665130477399 -1.2550811057110423e-08 1.1912045572159968e-08 -1.2550811057110423e-08 0.0001844182115746662 -2.317191327705359e-09 1.1912045572159968e-08 -2.317191327705359e-09 0.00018432411889079958" pbc="T T T"
Hg       1.99435398       1.41022084       3.45432142       0.00000067      -0.00000067      -0.00000077
Hg       5.98306112       4.23066310      10.36296623       0.00000053       0.00000002      -0.00000062
Ag      -0.00000019       0.00000019      -0.00000128       0.00000239      -0.00000290       0.00001568
Cl       2.00533815       1.41798805       6.90864383      -0.00441396      -0.00312239       0.00000112
Cl       5.97207696       4.22289603       6.90864375       0.00441206       0.00312100       0.00000095
Cl       4.98039203       1.41798813       5.19099615       0.00220835      -0.00312392      -0.00382519
Cl       2.99702272       4.22289632       8.62629280      -0.00220504       0.00311859       0.00381914
Cl       2.99702338       4.22289536       5.19099678      -0.00221014       0.00312620      -0.00382853
Cl       4.98039255       1.41798774       8.62629312       0.00220531      -0.00311595       0.00381809
