9
Lattice="5.124516536201941 -9.359779362610584e-08 2.95864105674097 1.7081721653816224 4.831440385855199 2.9586409270232434 5.264003210340612e-08 -1.2164889648171005e-07 5.9172820223066624" Properties=species:S:1:pos:R:3:forces:R:3 energy=-24.34505844116211 free_energy=-24.34505844116211 stress="-0.0002791340521071106 -4.790723373560013e-09 1.1268178612411361e-09 -4.790723373560013e-09 -0.0002791097213048488 2.426992828929997e-09 1.1268178612411361e-09 2.426992828929997e-09 -0.0002790889411699027" pbc="T T T"
Hg       1.70817250       1.20786039       2.95864117      -0.00000011      -0.00000021      -0.00000013
Hg       5.12451594       3.62358064       8.87592255       0.00000002       0.00000045      -0.00000033
Au       0.00000010       0.00000006      -0.00000049       0.00000332      -0.00000740       0.00001408
F        1.65526481       1.17044812       5.91728216       0.00188431       0.00133269      -0.00000127
F        5.17742429       3.66099180       5.91728259      -0.00188469      -0.00133188      -0.00000085
F        4.29688392       1.17044868       4.39214219      -0.00094055       0.00133093       0.00162829
F        2.53580481       3.66099104       7.44242199       0.00094181      -0.00133093      -0.00163192
F        2.53580473       3.66099153       4.39214195       0.00093960      -0.00132882       0.00162736
F        4.29688392       1.17044837       7.44242214      -0.00094371       0.00133517      -0.00163523
