9
Lattice="6.250004797875686 -2.3065979013576717e-08 3.6084419430699612 2.0833349100570313 5.892561012430019 3.6084419444926343 -5.479946547678467e-09 -2.1324978875623464e-09 7.2168838956314625" Properties=species:S:1:pos:R:3:forces:R:3 energy=-13.844146728515625 free_energy=-13.844146728515625 stress="1.4371438737725839e-05 -1.2016084793842197e-09 -5.932394020469189e-10 -1.2016084793842197e-09 1.4363449736265466e-05 -9.831265801452105e-10 -5.932394020469189e-10 -9.831265801452105e-10 1.4373275007528719e-05" pbc="T T T"
Hg       2.08333491       1.47314025       3.60844195       0.00000018       0.00000009       0.00000019
Hg       6.25000477       4.41942076      10.82532583       0.00000009       0.00000008       0.00000009
Au       0.00000016       0.00000002      -0.00000011      -0.00000144      -0.00000029       0.00000221
Br       2.13841691       1.51208915       7.21688391       0.00681651       0.00482027      -0.00000055
Br       6.19492269       4.38047183       7.21688390      -0.00681633      -0.00481990      -0.00000017
Br       5.18079631       1.51208908       5.46036539      -0.00340797       0.00481960       0.00590214
Br       3.15254336       4.38047190       8.97340238       0.00340866      -0.00482006      -0.00590348
Br       3.15254335       4.38047190       5.46036540       0.00340813      -0.00481988       0.00590254
Br       5.18079631       1.51208906       8.97340249      -0.00340796       0.00482006      -0.00590295
