9
Lattice="5.030942214595949 8.722610414330591e-08 2.9046158940656857 1.6769807821371143 4.7432178858994085 2.904615960401708 5.081950253729755e-08 1.1717949765803794e-07 5.809231700109413" Properties=species:S:1:pos:R:3:forces:R:3 energy=-23.237701416015625 free_energy=-23.237701416015625 stress="0.0002316302270628512 1.1218372897303652e-08 8.944882168293589e-09 1.1218372897303652e-08 0.00023163293371908367 1.2316013764390732e-09 8.944882168293589e-09 1.2316013764390732e-09 0.00023156691167969257" pbc="T T T"
Hg       1.67698083       1.18580419       2.90461625       0.00000075      -0.00000127       0.00000156
Hg       5.03094246       3.55741325       8.71384827       0.00000015      -0.00000088       0.00000174
Ag       0.00000028       0.00000021      -0.00000004      -0.00000902       0.00000002       0.00000083
F        1.68967873       1.19478372       5.80923152      -0.00432366      -0.00305605      -0.00000016
F        5.01824407       3.54843432       5.80923157       0.00432867       0.00306109      -0.00000043
F        4.18610273       1.19478327       4.36791991       0.00216210      -0.00305817      -0.00374645
F        2.52181982       3.54843542       7.25054340      -0.00215945       0.00305545       0.00374144
F        2.52181989       3.54843546       4.36791996      -0.00216001       0.00305620      -0.00374073
F        4.18610356       1.19478262       7.25054350       0.00216031      -0.00305673       0.00374287
