9
Lattice="6.245490203997863 -4.889835015084522e-08 3.605835479155676 2.0818300508593097 5.88830456891026 3.605835428992301 2.6426178982768248e-08 -4.275118874121359e-08 7.211670912539884" Properties=species:S:1:pos:R:3:forces:R:3 energy=-13.422444343566895 free_energy=-13.422444343566895 stress="-2.4135624698828906e-05 -6.914523176249077e-09 8.205863211152575e-10 -6.914523176249077e-09 -2.412799403828103e-05 8.981539956209872e-10 8.205863211152575e-10 8.981539956209872e-10 -2.4125083655235358e-05" pbc="T T T"
Hg       2.08183017       1.47207612       3.60583543       0.00000009       0.00000005       0.00000018
Hg       6.24549009       4.41622826      10.81750622      -0.00000020       0.00000007      -0.00000023
Ag      -0.00000020      -0.00000010       0.00000111       0.00000074      -0.00000072      -0.00001340
Br       2.12661722       1.50374536       7.21167105      -0.00065707      -0.00046450      -0.00000027
Br       6.20070315       4.38455922       7.21167097       0.00065702       0.00046457      -0.00000009
Br       5.18218175       1.50374525       5.44753967       0.00032681      -0.00046234      -0.00056589
Br       3.14513897       4.38455880       8.97580161      -0.00033082       0.00046805       0.00057338
Br       3.14513865       4.38455925       5.44753965      -0.00032721       0.00046243      -0.00056660
Br       5.18218132       1.50374572       8.97580154       0.00033063      -0.00046761       0.00057298
