9
Lattice="7.036908543970306 1.0469091845074169e-07 4.062760841711188 2.34563614178767 6.6344609399748835 4.0627610811487305 -1.4197638919196613e-07 1.928574619804546e-07 8.125521929332718" Properties=species:S:1:pos:R:3:forces:R:3 energy=-17.535259246826172 free_energy=-17.535259246826172 stress="-7.228867616504431e-05 1.298019736140077e-08 -1.9189658750917715e-09 1.298019736140077e-08 -7.230445044115186e-05 5.709372974394e-09 -1.9189658750917715e-09 5.709372974394e-09 -7.230841583805159e-05" pbc="T T T"
Hg       2.34563632       1.65861515       4.06276114       0.00000027      -0.00000011       0.00000072
Hg       7.03690836       4.97584593      12.18828309      -0.00000024      -0.00000012       0.00000047
Ba       0.00000016      -0.00000010       0.00000023      -0.00000003      -0.00000038       0.00000564
Br       2.59986393       1.83838198       8.12552142       0.00169864       0.00120229       0.00000009
Br       6.78268074       4.79607976       8.12552104      -0.00169891      -0.00120243      -0.00000001
Br       5.73697567       1.83838251       6.31430871      -0.00084761       0.00120054       0.00147137
Br       3.64556740       4.79608101       9.93673560       0.00085052      -0.00120381      -0.00147404
Br       3.64556849       4.79607837       6.31430947       0.00084858      -0.00120091       0.00146975
Br       5.73697711       1.83838039       9.93673476      -0.00085118       0.00120482      -0.00147405
