9
Lattice="6.759974530395788 3.9501698209696554e-08 3.902872788417155 2.2533248625462825 6.373364225177505 3.9028728198738767 -1.7240861997448868e-07 -8.338487686572822e-08 7.8057458754547895" Properties=species:S:1:pos:R:3:forces:R:3 energy=-19.289817810058594 free_energy=-19.289817810058594 stress="-0.00011780622298829257 2.568891321885758e-09 8.82299655557972e-09 2.568891321885758e-09 -0.00011779987835325301 -2.716233460375861e-09 8.82299655557972e-09 -2.716233460375861e-09 -0.00011780751083279029" pbc="T T T"
Hg       2.25332480       1.59334089       3.90287334      -0.00000025      -0.00000004       0.00000028
Hg       6.75997448       4.78002324      11.70861846       0.00000016      -0.00000045      -0.00000003
Ba      -0.00000008       0.00000043       0.00000016       0.00000051      -0.00000514      -0.00000100
Cl       2.46597237       1.74370593       7.80574547       0.00244667       0.00172897      -0.00000080
Cl       6.54732603       4.62965796       7.80574521      -0.00244477      -0.00172725       0.00000018
Cl       5.52698879       1.74370552       6.03846699      -0.00122462       0.00173084       0.00212067
Cl       3.48631092       4.62965880       9.57302334       0.00122336      -0.00172848      -0.00211823
Cl       3.48631106       4.62965871       6.03846786       0.00122304      -0.00173022       0.00211899
Cl       5.52698850       1.74370534       9.57302513      -0.00122406       0.00173177      -0.00212003
