9
Lattice="6.713428878897326 2.029786453906642e-07 3.8759999142483372 2.2378096435202384 6.329481762520337 3.8760002158825877 -1.2524168151770215e-07 2.80866055515531e-07 7.7520000454216405" Properties=species:S:1:pos:R:3:forces:R:3 energy=-13.971100807189941 free_energy=-13.971100807189941 stress="-8.247356163337827e-05 1.4845393803142315e-09 -8.027690734380144e-10 1.4845393803142315e-09 -8.246999641414732e-05 -3.424241556970742e-09 -8.027690734380144e-10 -3.424241556970742e-09 -8.246635843534023e-05" pbc="T T T"
Hg       2.23780933       1.58237052       3.87600016       0.00000014      -0.00000008       0.00000010
Hg       6.71342890       4.74711161      11.62799997       0.00000008       0.00000027       0.00000013
Be       0.00000066       0.00000100       0.00000052      -0.00000209      -0.00000393      -0.00000448
I        2.11898694       1.49835063       7.75200039       0.00516655       0.00365310      -0.00000121
I        6.83225095       4.83113120       7.75200012      -0.00516211      -0.00365083      -0.00000142
I        5.65393551       1.49834973       5.71109641      -0.00258450       0.00365400       0.00447550
I        3.29730368       4.83113149       9.79290295       0.00258059      -0.00364915      -0.00446973
I        3.29730306       4.83113171       5.71109670       0.00258302      -0.00365339       0.00447267
I        5.65393464       1.49835112       9.79290348      -0.00258171       0.00365003      -0.00447157
