9
Lattice="6.146361030929498 5.1908029415092026e-08 3.548603046628811 2.0487870387258353 5.794844670149647 3.548603082176194 2.6592698730489487e-08 6.234040889614793e-08 7.0972060471977025" Properties=species:S:1:pos:R:3:forces:R:3 energy=-16.438215255737305 free_energy=-16.438215255737305 stress="-1.206297292810632e-05 3.412494953280998e-09 3.5472857984331085e-09 3.412494953280998e-09 -1.206359956995584e-05 3.804668580187354e-09 3.5472857984331085e-09 3.804668580187354e-09 -1.205953140015481e-05" pbc="T T T"
Hg       2.04878686       1.44871124       3.54860303      -0.00000019       0.00000007       0.00000007
Hg       6.14636132       4.34613350      10.64580913       0.00000029       0.00000023       0.00000005
Be       0.00000009       0.00000023      -0.00000002       0.00000012       0.00000020      -0.00000018
Br       1.99625962       1.41156875       7.09720621       0.00293896       0.00207743      -0.00000098
Br       6.19888796       4.38327568       7.09720620      -0.00293595      -0.00207570      -0.00000039
Br       5.14823135       1.41156889       5.27741467      -0.00147036       0.00207742       0.00254355
Br       3.04691720       4.38327568       8.91699734       0.00146726      -0.00207636      -0.00254260
Br       3.04691695       4.38327595       5.27741474       0.00146861      -0.00207885       0.00254352
Br       5.14823108       1.41156923       8.91699741      -0.00146896       0.00207551      -0.00254296
