9
Lattice="4.497077641966321 -9.501972271560807e-08 2.596388958661528 1.4990258236975496 4.2398854452717085 2.5963889021489175 2.017578544319646e-08 -5.4947047175597183e-08 5.1927778823775546" Properties=species:S:1:pos:R:3:forces:R:3 energy=-31.290639877319336 free_energy=-31.290639877319336 stress="-5.5812437494751066e-05 -1.3915538943365391e-08 -1.8622623443320663e-08 -1.3915538943365391e-08 -5.575078830588609e-05 -2.6876550762722218e-08 -1.8622623443320663e-08 -2.6876550762722218e-08 -5.59388026886154e-05" pbc="T T T"
Hg       1.49902586       1.05997132       2.59638905       0.00000044       0.00000047      -0.00000050
Hg       4.49707778       3.17991396       7.78916698      -0.00000046       0.00000029       0.00000029
Be       0.00000005       0.00000022       0.00000005       0.00000014      -0.00000041      -0.00000001
F        1.41832924       1.00291034       5.19277796       0.00026929       0.00019008      -0.00000032
F        4.57777436       3.23697503       5.19277776      -0.00027293      -0.00019085       0.00000065
F        3.78791291       1.00291037       3.82469784      -0.00013477       0.00018930       0.00023705
F        2.20819065       3.23697507       6.56085784       0.00013700      -0.00018892      -0.00023711
F        2.20819039       3.23697481       3.82469783       0.00013542      -0.00018886       0.00023705
F        3.78791263       1.00291028       6.56085762      -0.00013426       0.00018913      -0.00023526
