9
Lattice="8.458800499098393 7.31981862033363e-07 4.883690305735237 2.8196002685075245 7.975034033245364 4.883691324142265 -5.47589222015127e-07 8.600847694819842e-07 9.767381559922699" Properties=species:S:1:pos:R:3:forces:R:3 energy=-16.41498374938965 free_energy=-16.41498374938965 stress="-4.191987045487622e-06 -1.5428607724743415e-08 -1.730624177298523e-08 -1.5428607724743415e-08 -4.159350282861851e-06 1.2854250108773613e-08 -1.730624177298523e-08 1.2854250108773613e-08 -4.157314833719283e-06" pbc="T T T"
Hg       2.81959874       1.99375969       4.88369095      -0.00000040       0.00000013       0.00000028
Hg       8.45880201       5.98127582      14.65107232       0.00000033      -0.00000007      -0.00000036
Ba      -0.00000157      -0.00000086       0.00000190       0.00000715       0.00000329      -0.00001319
I        2.77429198       1.96172589       9.76738281       0.00118229       0.00083451      -0.00000005
I        8.50410944       6.01331008       9.76738204      -0.00118969      -0.00083904      -0.00000168
I        7.07165178       1.96172409       7.28629848      -0.00059300       0.00083779       0.00102624
I        4.20674968       6.01330844      12.24846293       0.00058802      -0.00082982      -0.00101867
I        4.20674426       6.01331245       7.28630091       0.00059529      -0.00083895       0.00102931
I        7.07165447       1.96172689      12.24846034      -0.00058998       0.00083216      -0.00102194
