9
Lattice="6.022768918987762 1.2448120123424813e-07 3.477247386448167 2.0075898025288006 5.678321653674178 3.4772473076325365 2.091648542585616e-07 5.1372844297748316e-08 6.954494410612129" Properties=species:S:1:pos:R:3:forces:R:3 energy=-21.28519058227539 free_energy=-21.28519058227539 stress="-6.0010635934304446e-05 -2.0744641560099808e-08 -8.033253173778121e-09 -2.0744641560099808e-08 -5.9925427194684744e-05 -2.3218751366016477e-09 -8.033253173778121e-09 -2.3218751366016477e-09 -6.007793854223564e-05" pbc="T T T"
Hg       2.00759005       1.41958047       3.47724771       0.00000061       0.00000043       0.00000048
Hg       6.02276929       4.25874123      10.43174209      -0.00000005      -0.00000025      -0.00000017
Co       0.00000014       0.00000026      -0.00000114      -0.00000194      -0.00000143       0.00000454
Cl       1.83924463       1.30054286       6.95449370       0.00675520       0.00477456       0.00000132
Cl       6.19111381       4.37777927       6.95449441      -0.00675386      -0.00477241       0.00000072
Cl       5.10314652       1.30054421       5.07007955      -0.00337425       0.00477006       0.00584942
Cl       2.92721220       4.37777862       8.83891092       0.00337689      -0.00477514      -0.00585443
Cl       2.92721193       4.37777806       5.07007889       0.00337520      -0.00476977       0.00585157
Cl       5.10314714       1.30054300       8.83891022      -0.00337771       0.00477387      -0.00585356
