9
Lattice="6.216979282657831 7.961430719390654e-08 3.5893745262521604 2.07232645617451 5.861424113110231 3.5893746066870666 -1.2328190840464343e-07 1.1338758125363863e-08 7.1787492660348295" Properties=species:S:1:pos:R:3:forces:R:3 energy=-18.765382766723633 free_energy=-18.765382766723633 stress="-0.00028493942227214575 1.1681478007119495e-08 -5.053795160137042e-09 1.1681478007119495e-08 -0.00028494137222878635 -2.2933361876198433e-09 -5.053795160137042e-09 -2.2933361876198433e-09 -0.00028494762955233455" pbc="T T T"
Hg       2.07232647       1.46535601       3.58937439      -0.00000023      -0.00000010      -0.00000001
Hg       6.21697921       4.39606815      10.76812392       0.00000019      -0.00000014      -0.00000005
Co      -0.00000007      -0.00000029       0.00000004       0.00000041       0.00000126      -0.00000025
Br       2.00227041       1.41581942       7.17874903       0.00583398       0.00412512       0.00000035
Br       6.28703485       4.44560471       7.17874918      -0.00583361      -0.00412509       0.00000023
Br       5.21584403       1.41581945       5.32339194      -0.00291726       0.00412470       0.00505203
Br       3.07346167       4.44560516       9.03410645       0.00291733      -0.00412571      -0.00505213
Br       3.07346171       4.44560484       5.32339215       0.00291695      -0.00412525       0.00505181
Br       5.21584419       1.41581937       9.03410656      -0.00291763       0.00412527      -0.00505216
