9
Lattice="4.715453552323566 1.7206054682165832e-07 2.7224683768870745 1.5718180047768768 4.445772242716772 2.722468391120866 1.0140322209166814e-07 8.913557601018692e-08 5.444936578138696" Properties=species:S:1:pos:R:3:forces:R:3 energy=-26.629634857177734 free_energy=-26.629634857177734 stress="0.00034022811450995505 1.5501392169881e-08 2.21325215932211e-08 1.5501392169881e-08 0.00034025771310552955 -9.93961091211304e-09 2.21325215932211e-08 -9.93961091211304e-09 0.00034024741034954786" pbc="T T T"
Hg       1.57181809       1.11144263       2.72246899       0.00000023      -0.00000113       0.00000115
Hg       4.71545344       3.33432971       8.16740526      -0.00000048      -0.00000011       0.00000183
Cu       0.00000002      -0.00000001      -0.00000030       0.00000066       0.00000098       0.00000558
F        1.55812852       1.10176379       5.44493649      -0.00589743      -0.00416830      -0.00000245
F        4.72914335       3.34400873       5.44493648       0.00589758       0.00416842       0.00000094
F        3.93638958       1.10176334       4.07184659       0.00294633      -0.00416973      -0.00510538
F        2.35088226       3.34400944       6.81802672      -0.00294520       0.00416794       0.00510189
F        2.35088262       3.34400966       4.07184693      -0.00294742       0.00417045      -0.00510579
F        3.93638879       1.10176291       6.81802655       0.00294617      -0.00416839       0.00510231
