9
Lattice="6.945699971165366 -3.7183208368960113e-07 4.010102104090469 2.3152329161103546 6.548469088663054 4.010102202894958 -4.726994706809923e-10 1.206760314389172e-07 8.020204208999653" Properties=species:S:1:pos:R:3:forces:R:3 energy=-11.314668655395508 free_energy=-11.314668655395508 stress="7.923251541797072e-05 -1.175472275072309e-09 -7.325375861455541e-10 -1.175472275072309e-09 7.923939119791612e-05 5.038305328497472e-09 -7.325375861455541e-10 5.038305328497472e-09 7.923335215309635e-05" pbc="T T T"
Hg       2.31523312       1.63711701       4.01010174      -0.00000013       0.00000005       0.00000007
Hg       6.94569984       4.91135184      12.03030715       0.00000022      -0.00000012      -0.00000018
Cd       0.00000044       0.00000019      -0.00000113      -0.00000208      -0.00000087       0.00000414
I        2.44322583       1.72762349       8.02020375      -0.00671476      -0.00474750       0.00000077
I        6.81770645       4.82084508       8.02020419       0.00671649       0.00474872      -0.00000032
I        5.72408530       1.72762370       6.12600057       0.00335778      -0.00475119      -0.00581747
I        3.53684702       4.82084607       9.91440852      -0.00335617       0.00474878       0.00581495
I        3.53684731       4.82084506       6.12600025      -0.00335978       0.00475033      -0.00581752
I        5.72408622       1.72762292       9.91440901       0.00335842      -0.00474823       0.00581551
