9
Lattice="6.15234040459954 4.5304030880663315e-08 3.5520551320069185 2.0507801503043 5.800482745863188 3.552055179248987 -1.0421261482891791e-07 -1.5829933161012535e-08 7.104110444515351" Properties=species:S:1:pos:R:3:forces:R:3 energy=-26.39319610595703 free_energy=-26.39319610595703 stress="5.6373643019469455e-05 -1.9814310192600715e-08 -7.995818451789205e-10 -1.9814310192600715e-08 5.640389645122923e-05 1.6883799913713915e-10 -7.995818451789205e-10 1.6883799913713915e-10 5.6413158745272085e-05" pbc="T T T"
Hg       2.05078026       1.45012071       3.55205517      -0.00000003       0.00000005      -0.00000010
Hg       6.15234028       4.35036216      10.65616552       0.00000017       0.00000003      -0.00000008
Cr       0.00000062       0.00000023       0.00000027      -0.00000548      -0.00000305      -0.00000433
Cl       1.89148151       1.33748080       7.10411151      -0.00107309      -0.00076231      -0.00000231
Cl       6.31163702       4.46300323       7.10411171       0.00108121       0.00076219      -0.00000263
Cl       5.20659939       1.33748024       5.19012710       0.00053776      -0.00076152      -0.00093210
Cl       2.99652145       4.46300201       9.01809233      -0.00054166       0.00076625       0.00093961
Cl       2.99652182       4.46300153       5.19012677      -0.00053929       0.00076324      -0.00093542
Cl       5.20659929       1.33748032       9.01809241       0.00054041      -0.00076506       0.00093748
