9
Lattice="7.453563129566398 9.900537071240445e-07 4.303316657306068 2.4845220226675115 7.027286946233098 4.303316577550105 -2.2530271229522225e-07 -2.56993634711549e-07 8.606633704847454" Properties=species:S:1:pos:R:3:forces:R:3 energy=-16.052101135253906 free_energy=-16.052101135253906 stress="-4.602063199854456e-06 3.496382205980808e-08 7.277082270107371e-10 3.496382205980808e-08 -4.6046761781326495e-06 -7.591880901713921e-09 7.277082270107371e-10 -7.591880901713921e-09 -4.645147328119492e-06" pbc="T T T"
Hg       2.48452312       1.75682032       4.30331920      -0.00000035      -0.00000003      -0.00000044
Hg       7.45356241       5.27046762      12.90994803       0.00000042      -0.00000036       0.00000027
C        0.00000117       0.00000021      -0.00000011      -0.00000356      -0.00000214       0.00000002
Br       1.85419186       1.31111187       8.60663382       0.00029817       0.00020859       0.00000028
Br       8.08389189       5.71617573       8.60663314      -0.00028950      -0.00020495      -0.00000066
Br       6.52646737       1.31111289       5.90909378      -0.00015202       0.00021207       0.00026202
Br       3.41161818       5.71617442      11.30417302       0.00014842      -0.00021195      -0.00025967
Br       3.41161780       5.71617456       5.90909421       0.00014934      -0.00021130       0.00025892
Br       6.52646692       1.31111277      11.30417336      -0.00015081       0.00021020      -0.00026080
