9
Lattice="4.580520305599511 -3.4014091725132472e-09 2.64456473428721 1.5268401272275576 4.318556043107543 2.6445646848060576 4.5462590948386656e-08 -2.8454868899604375e-08 5.289129389830885" Properties=species:S:1:pos:R:3:forces:R:3 energy=-29.166324615478516 free_energy=-29.166324615478516 stress="-0.0003828366461675614 -1.5899503935656867e-08 -8.49826164994738e-08 -1.5899503935656867e-08 -0.00038272381061688066 8.665946182873085e-09 -8.49826164994738e-08 8.665946182873085e-09 -0.0003824499435722828" pbc="T T T"
Hg       1.52684008       1.07963873       2.64456517       0.00000047       0.00000216      -0.00000283
Hg       4.58052074       3.23891690       7.93369397      -0.00000275      -0.00000028       0.00000050
C        0.00000009       0.00000018       0.00000035      -0.00000392       0.00000092      -0.00000858
F        1.28247524       0.90684728       5.28912909       0.00112846       0.00079380       0.00000799
F        4.82488530       3.41170921       5.28912937      -0.00112808      -0.00080010       0.00000001
F        3.93928198       0.90684758       3.75522139      -0.00055577       0.00079267       0.00096637
F        2.16807824       3.41170898       6.82303686       0.00056195      -0.00079845      -0.00095889
F        2.16807777       3.41170841       3.75522152       0.00056387      -0.00078818       0.00096220
F        3.93928240       0.90684701       6.82303716      -0.00056510       0.00079753      -0.00096679
