9
Lattice="6.553377124129132 -8.471925195341473e-08 3.7835946128913496 2.1844589683893187 6.178583140775327 3.7835946009628487 1.3399898014941358e-07 8.01419941672426e-08 7.567188993689731" Properties=species:S:1:pos:R:3:forces:R:3 energy=-13.616127014160156 free_energy=-13.616127014160156 stress="3.576221570256166e-05 2.375098162588074e-08 8.070236701129829e-10 2.375098162588074e-08 3.576475864974782e-05 2.4164002354609693e-08 8.070236701129829e-10 2.4164002354609693e-08 3.575472874217667e-05" pbc="T T T"
Hg       2.18445897       1.54464571       3.78359469       0.00000033       0.00000054      -0.00000028
Hg       6.55337733       4.63393824      11.35078334      -0.00000003       0.00000089      -0.00000073
C        0.00000115       0.00000190      -0.00000157       0.00000284       0.00000271      -0.00000120
I        2.17288533       1.53646250       7.56718900       0.00034344       0.00024253       0.00000043
I        6.56494821       4.64211868       7.56718948      -0.00034785      -0.00024527      -0.00000056
I        5.46693393       1.53646223       5.66536872      -0.00017208       0.00024468       0.00029892
I        3.27090246       4.64212160       9.46900946       0.00017151      -0.00024331      -0.00029898
I        3.27090278       4.64212055       5.66536996       0.00017333      -0.00024560       0.00030082
I        5.46693471       1.53646131       9.46901005      -0.00017154       0.00024274      -0.00029862
