9
Lattice="5.0228897798441485 -1.8344533851068023e-08 2.8999667566222955 1.674296543467669 4.73562574553114 2.89996681294577 -8.233798542926165e-08 1.0760090828598072e-08 5.799933655858209" Properties=species:S:1:pos:R:3:forces:R:3 energy=-28.25242042541504 free_energy=-28.25242042541504 stress="0.00019200998940505087 7.260948819975965e-08 1.7093622517450058e-08 7.260948819975965e-08 0.000192159233847633 7.771009613577462e-09 1.7093622517450058e-08 7.771009613577462e-09 0.00019196519860997796" pbc="T T T"
Hg       1.67429492       1.18390468       2.89996605      -0.00001332      -0.00000897      -0.00000743
Hg       5.02288747       3.55172033       8.69989907      -0.00001525       0.00000554      -0.00001074
Ca      -0.00000026       0.00000003      -0.00000084       0.00000057      -0.00000039       0.00001355
F        1.73978901       1.23021588       5.79993431       0.00149539       0.00105019       0.00000318
F        4.95739717       3.50541025       5.79993457      -0.00149199      -0.00105023       0.00000591
F        4.15299678       1.23021540       4.40666913      -0.00073948       0.00105068       0.00129849
F        2.54419128       3.50541005       7.19319980       0.00075599      -0.00105745      -0.00129647
F        2.54419209       3.50540969       4.40666736       0.00075173      -0.00105206       0.00128981
F        4.15299655       1.23021668       7.19319924      -0.00074360       0.00106275      -0.00129615
