9
Lattice="6.151798364693731 1.2653608981806494e-07 3.5517422796732765 2.0505996029203857 5.799971014709375 3.551742229923007 4.4684715857703615e-08 -2.9334505308150965e-08 7.10348448195037" Properties=species:S:1:pos:R:3:forces:R:3 energy=-26.3931941986084 free_energy=-26.3931941986084 stress="-3.2410735002486035e-05 2.70965507809251e-08 -3.3954567157934434e-08 2.70965507809251e-08 -3.237176133552566e-05 -1.2585698705436243e-08 -3.3954567157934434e-08 -1.2585698705436243e-08 -3.2495885534444824e-05" pbc="T T T"
Hg       2.05059934       1.44999269       3.55174295      -0.00000009       0.00000021       0.00000009
Hg       6.15179829       4.34997810      10.65522758      -0.00000004      -0.00000042       0.00000017
Cr       0.00000052       0.00000003      -0.00000301      -0.00000442      -0.00000027       0.00003139
Cl       1.89109621       1.33720803       7.10348333       0.00258559       0.00182540       0.00000350
Cl       6.31130099       4.46276313       7.10348470      -0.00258069      -0.00182283      -0.00000087
Cl       5.20624937       1.33720853       5.18947913      -0.00128616       0.00181863       0.00223246
Cl       2.99614766       4.46276439       9.01749133       0.00129744      -0.00183521      -0.00225139
Cl       2.99614833       4.46276277       5.18947949       0.00128897      -0.00181800       0.00223532
Cl       5.20625146       1.33720705       9.01749055      -0.00130052       0.00183243      -0.00225048
