9
Lattice="6.580427740717543 -2.677363106376765e-07 3.799211967807513 2.193475840121198 6.204086829187115 3.79921165781744 5.888480090702706e-08 -3.3802092294974545e-07 7.598423833623596" Properties=species:S:1:pos:R:3:forces:R:3 energy=-13.092113494873047 free_energy=-13.092113494873047 stress="0.0002748306724242866 -1.045656894405056e-09 -3.779502044665151e-09 -1.045656894405056e-09 0.00027481847791932523 4.352548987895943e-09 -3.779502044665151e-09 4.352548987895943e-09 0.0002748341648839414" pbc="T T T"
Hg       2.19347610       1.55102173       3.79921164       0.00000016      -0.00000028       0.00000022
Hg       6.58042768       4.65306460      11.39763584      -0.00000000       0.00000029      -0.00000063
Cu      -0.00000006       0.00000010       0.00000017      -0.00000001       0.00000022      -0.00000016
I        2.21600442       1.56695167       7.59842361      -0.00395828      -0.00279777       0.00000043
I        6.55789904       4.63713461       7.59842374       0.00395727       0.00279812      -0.00000018
I        5.47242509       1.56695132       5.71832835       0.00197876      -0.00279855      -0.00342778
I        3.30147886       4.63713486       9.47851903      -0.00197822       0.00279794       0.00342721
I        3.30147860       4.63713493       5.71832873      -0.00197828       0.00279855      -0.00342649
I        5.47242480       1.56695113       9.47851870       0.00197858      -0.00279852       0.00342735
