9
Lattice="7.039887016257654 3.95184603848274e-07 4.064481275666011 2.34662946875075 6.637269057593544 4.06448111848592 2.450797364121869e-07 -1.9207956749118723e-08 8.128962126841529" Properties=species:S:1:pos:R:3:forces:R:3 energy=-20.535568237304688 free_energy=-20.535568237304688 stress="-6.0594884416786954e-05 6.975688915389355e-09 -2.692805312065616e-09 6.975688915389355e-09 -6.058831786504015e-05 6.284514686427656e-09 -2.692805312065616e-09 6.284514686427656e-09 -6.056729762349278e-05" pbc="T T T"
Hg       2.34662860       1.65931783       4.06448079      -0.00000061      -0.00000003      -0.00000050
Hg       7.03988815       4.97795143      12.19344439       0.00000071       0.00000002       0.00000049
Cr       0.00000056       0.00000133      -0.00000113      -0.00000740      -0.00001323       0.00001112
I        2.16726063       1.53248488       8.12896208      -0.00371865      -0.00263029      -0.00000045
I        7.21925429       5.10478338       8.12896180       0.00373188       0.00263982       0.00000140
I        5.95625724       1.53248587       5.94138607       0.00186228      -0.00263698      -0.00323018
I        3.43025936       5.10478490      10.31653884      -0.00186126       0.00263264       0.00322713
I        3.43026058       5.10478429       5.94138580      -0.00186582       0.00263697      -0.00323179
I        5.95625750       1.53248401      10.31653939       0.00185890      -0.00262892       0.00322271
