9
Lattice="7.116874325835222 0.0005121480815932027 4.10904648304988 2.3725542214749873 6.687860900138332 4.109419374752758 9.173530590116958e-06 0.000467610417599819 8.218076963680607" Properties=species:S:1:pos:R:3:forces:R:3 energy=-19.13132095336914 free_energy=-19.13132095336914 stress="-2.932610186689999e-05 -1.977453393919859e-05 1.56883161253063e-05 -1.977453393919859e-05 6.229199061635882e-05 -1.7134751033154316e-05 1.56883161253063e-05 -1.7134751033154316e-05 -1.8218730474472977e-05" pbc="T T T"
Hg       2.37360441       1.74213669       4.11072786      -0.00007692       0.00006471      -0.00014122
Hg       7.11769812       5.00658430      12.32813589       0.00015417      -0.00210112       0.00022788
C        0.00029877      -0.33484210       0.00049334       0.00286030      -0.00251198       0.00287518
Cl       1.71310051       1.22722321       8.21766341       0.00165807       0.00023021      -0.00272386
Cl       7.85438012       5.55532627       8.22051170      -0.00151518      -0.00201853      -0.00313483
Cl       6.25859442       1.22636276       5.59283468      -0.00165950      -0.00118574      -0.00039087
Cl       3.19240747       5.55585914      10.91237961      -0.00240131      -0.00102870      -0.00314775
Cl       3.19161111       5.55649997       5.52711036      -0.00205454       0.00734949       0.00046554
Cl       6.25605598       1.22021153      10.83631619       0.00303484       0.00120123       0.00596984
