9
Lattice="6.0215297899184135 -8.650042148579558e-08 3.4765307206602047 2.0071764709225604 5.677153447278104 3.4765307971534414 -5.057481132104379e-08 5.7922942547415116e-08 6.953061528918713" Properties=species:S:1:pos:R:3:forces:R:3 energy=-21.28522300720215 free_energy=-21.28522300720215 stress="0.00016074854647740722 -3.409577331581204e-08 5.178433237773561e-09 -3.409577331581204e-08 0.0001608024031156674 6.58728982472212e-09 5.178433237773561e-09 6.58728982472212e-09 0.0001606689183972776" pbc="T T T"
Hg       2.00717675       1.41928813       3.47653049       0.00000040       0.00000047      -0.00000091
Hg       6.02152964       4.25786526      10.42959183      -0.00000024       0.00000072      -0.00000019
Co       0.00000030       0.00000222      -0.00000205      -0.00000227      -0.00001515       0.00001282
Cl       1.84060342       1.30150348       6.95306171      -0.00356090      -0.00251755       0.00000096
Cl       6.18810155       4.37564818       6.95306095       0.00356838       0.00252472       0.00000137
Cl       5.10122740       1.30150401       5.07053900       0.00178339      -0.00252478      -0.00308368
Cl       2.92747874       4.37565052       8.83558520      -0.00178137       0.00252087       0.00307953
Cl       2.92747906       4.37564912       5.07053973      -0.00178701       0.00252822      -0.00308618
Cl       5.10122776       1.30150220       8.83558555       0.00177953      -0.00251749       0.00307640
