9
Lattice="7.06010129536261 -3.3371802928715936e-07 4.076151996718488 2.353366138495507 6.65632879025157 4.076153114458399 -4.6553256401114727e-07 1.0397639302922158e-06 8.15230479976338" Properties=species:S:1:pos:R:3:forces:R:3 energy=-20.535945892333984 free_energy=-20.535945892333984 stress="-1.3235975529823918e-05 -1.6938543012656737e-07 -8.520444083615075e-08 -1.6938543012656737e-07 -1.3128334103384987e-05 1.1657272835918775e-07 -8.520444083615075e-08 1.1657272835918775e-07 -1.297094513574848e-05" pbc="T T T"
Hg       2.35336777       1.66408115       4.07615206      -0.00000019      -0.00000091       0.00000018
Hg       7.06009869       4.99224813      12.22845675      -0.00000048       0.00000041       0.00000057
Cr      -0.00000278      -0.00000169       0.00000539       0.00002573       0.00001935      -0.00005271
I        2.16720148       1.53244469       8.15230481      -0.00549392      -0.00388326      -0.00000032
I        7.24626845       5.12388636       8.15230470       0.00546669       0.00386478      -0.00000059
I        5.97649596       1.53244469       5.95300971       0.00274870      -0.00388449      -0.00476225
I        3.43697125       5.12388082      10.35159892      -0.00276319       0.00390727       0.00478759
I        3.43696790       5.12388737       5.95300766      -0.00273828       0.00387218      -0.00474468
I        5.97649931       1.53244668      10.35159999       0.00275487      -0.00389529       0.00477236
