9
Lattice="6.552170098345975 -1.6720474539899717e-07 3.782897084560433 2.184056649659725 6.1774448346219195 3.782896897753208 1.1235004275496166e-07 -1.4934766413567342e-07 7.565793974524848" Properties=species:S:1:pos:R:3:forces:R:3 energy=-13.616128921508789 free_energy=-13.616128921508789 stress="-1.1854538570332807e-05 5.514940504269816e-09 3.768355405497914e-09 5.514940504269816e-09 -1.1848541362269316e-05 2.8278241970269846e-09 3.768355405497914e-09 2.8278241970269846e-09 -1.1831723895738833e-05" pbc="T T T"
Hg       2.18405674       1.54436092       3.78289716       0.00000005       0.00000017       0.00000027
Hg       6.55217017       4.63308345      11.34869103       0.00000029      -0.00000006       0.00000020
C        0.00000013       0.00000067       0.00000044       0.00000002       0.00000295       0.00000190
I        2.17291535       1.53648283       7.56579441       0.00005859       0.00004092       0.00000040
I        6.56331122       4.64096158       7.56579392      -0.00005978      -0.00004259      -0.00000047
I        5.46571265       1.53648296       5.66469655      -0.00002909       0.00004110       0.00005031
I        3.27051451       4.64096108       9.46689037       0.00002950      -0.00004292      -0.00005209
I        3.27051431       4.64096152       5.66469732       0.00002900      -0.00004107       0.00005013
I        5.46571245       1.53648299       9.46689046      -0.00002885       0.00004131      -0.00005084
