9
Lattice="6.271467722921572 -1.7065930997894025e-07 3.62083387730057 2.0904892389570304 5.9127967244297635 3.6208336021082954 1.7308448735748217e-07 -2.146510952929752e-07 7.241667454809992" Properties=species:S:1:pos:R:3:forces:R:3 energy=-20.012414932250977 free_energy=-20.012414932250977 stress="-5.338513074093498e-05 -4.6721746471689585e-09 -1.2172135299692854e-08 -4.6721746471689585e-09 -5.334373781806789e-05 3.266038461902099e-08 -1.2172135299692854e-08 3.266038461902099e-08 -5.335634705261327e-05" pbc="T T T"
Hg       2.09048871       1.47819893       3.62083314      -0.00000068      -0.00000044      -0.00000003
Hg       6.27146756       4.43459687      10.86250102      -0.00000054      -0.00000005       0.00000003
Ca       0.00000019       0.00000000       0.00000086      -0.00000017       0.00000028      -0.00000529
Cl       2.16570397       1.53138343       7.24166652      -0.00084803      -0.00059935      -0.00000010
Cl       6.19625269       4.38141279       7.24166737       0.00084846       0.00059959      -0.00000022
Cl       5.18861702       1.53138350       5.49638933       0.00042544      -0.00059860      -0.00073302
Cl       3.17334130       4.38141278       8.98694616      -0.00042542       0.00060069       0.00073655
Cl       3.17334153       4.38141264       5.49638829      -0.00042368       0.00059891      -0.00073533
Cl       5.18861549       1.53138432       8.98694704       0.00042467      -0.00060115       0.00073747
