9
Lattice="4.638297315896399 1.4186700647564087e-07 2.677922223980876 1.546099135654101 4.373029081606002 2.67792240307178 -1.0320310223341201e-07 1.4636500769245862e-07 5.355844626714845" Properties=species:S:1:pos:R:3:forces:R:3 energy=-29.777523040771484 free_energy=-29.777523040771484 stress="-2.2197798898559995e-05 1.3365568918288773e-07 -1.1669384569756858e-08 1.3365568918288773e-07 -2.213023617514409e-05 4.4458428050120347e-08 -1.1669384569756858e-08 4.4458428050120347e-08 -2.2271715351962484e-05" pbc="T T T"
Hg       1.54609919       1.09325683       2.67792257      -0.00000136       0.00000128      -0.00000052
Hg       4.63829714       3.27977223       8.03376692       0.00000003      -0.00000057       0.00000013
Co      -0.00000031       0.00000044      -0.00000033       0.00001157      -0.00001044       0.00002169
F        1.50657992       1.06531347       5.35584456      -0.00252328      -0.00178763      -0.00000006
F        4.67781646       3.30771575       5.35584401       0.00252224       0.00178822       0.00000272
F        3.88500751       1.06531336       3.98265894       0.00125927      -0.00178590      -0.00218265
F        2.29938825       3.30771636       6.72903076      -0.00125528       0.00177883       0.00217574
F        2.29938931       3.30771586       3.98265854      -0.00126445       0.00178764      -0.00218828
F        3.88500788       1.06531317       6.72903098       0.00125143      -0.00177157       0.00217081
