9
Lattice="5.019173279477373 -5.3551173885733565e-08 2.897821103863168 1.6730577093040726 4.732121887563247 2.897821103920656 -3.0328901744495835e-08 -2.1375345633065733e-08 5.795642260257538" Properties=species:S:1:pos:R:3:forces:R:3 energy=-23.128067016601562 free_energy=-23.128067016601562 stress="0.00028210695018060505 -1.800814075636481e-08 2.8585972700057027e-08 -1.800814075636481e-08 0.0002821022644639015 3.3389115916548917e-09 2.8585972700057027e-08 3.3389115916548917e-09 0.00028200721135362983" pbc="T T T"
Hg       1.67305739       1.18302954       2.89782151      -0.00000150      -0.00000612       0.00000177
Hg       5.01917360       3.54909090       8.69346352       0.00000306      -0.00000247      -0.00000015
Cd       0.00000010      -0.00000015       0.00000017       0.00000017       0.00000196      -0.00000241
F        1.75049810       1.23778909       5.79564203       0.00086880       0.00061643      -0.00000236
F        4.94173249       3.49433317       5.79564218      -0.00087029      -0.00061372       0.00000001
F        4.14392452       1.23778886       4.41379676      -0.00043565       0.00061792       0.00075334
F        2.54830674       3.49433330       7.17748733       0.00043455      -0.00061360      -0.00075388
F        2.54830678       3.49433359       4.41379719       0.00043437      -0.00061467       0.00075501
F        4.14392420       1.23778907       7.17748733      -0.00043327       0.00061393      -0.00075114
