9
Lattice="7.117399774640958 7.384706137965662e-06 4.1089044448468925 2.372472736291175 6.710341795635394 4.10890583065967 0.01044405510903986 0.007386822752508932 8.199719583266205" Properties=species:S:1:pos:R:3:forces:R:3 energy=-19.131345748901367 free_energy=-19.131345748901367 stress="-2.350849626964191e-06 2.3340087864198722e-05 -3.763805943890475e-05 2.3340087864198722e-05 -1.9271370547357947e-05 -2.548682277847547e-05 -3.763805943890475e-05 -2.548682277847547e-05 4.699952114606276e-06" pbc="T T T"
Hg       2.33967978       1.65433171       4.16553151       0.00049165       0.00034433      -0.00082061
Hg       7.13014943       5.04174186      12.30413700       0.00102806       0.00072819      -0.00178917
C        0.15833050       0.11195140      -0.27409566      -0.00110835      -0.00069460       0.00003791
Cl       1.63531074       1.15626772       8.21878723       0.00078407       0.00075126      -0.00011694
Cl       7.76886229       5.49348757       8.22693863       0.00305298       0.00230508      -0.00205679
Cl       6.25515743       1.21028722       5.60291683      -0.00161994       0.00115474       0.00220969
Cl       3.18940373       5.55271455      10.91152361      -0.00187945      -0.00080329      -0.00032257
Cl       3.22594689       5.49408678       5.60299310       0.00065355      -0.00221941       0.00282055
Cl       6.29842301       1.15607514      10.91138981      -0.00140256      -0.00156651       0.00003786
