9
Lattice="6.033097319643396 -9.04265871401345e-08 3.4832099562316 2.0110324147966523 5.68805952288803 3.483209852013203 -4.29049651099812e-08 -1.5797932352018556e-07 6.966419986776666" Properties=species:S:1:pos:R:3:forces:R:3 energy=-15.261813163757324 free_energy=-15.261813163757324 stress="0.0001944381365319714 -8.891456459991787e-09 -3.7228782279186134e-09 -8.891456459991787e-09 0.00019439548486843705 1.2226608170351483e-08 -3.7228782279186134e-09 1.2226608170351483e-08 0.00019444365170784295" pbc="T T T"
Hg       2.01103264       1.42201494       3.48320992       0.00000167      -0.00000009       0.00000001
Hg       6.03309713       4.26604458      10.44962949       0.00000038       0.00000054      -0.00000076
Cd       0.00000008      -0.00000008      -0.00000086       0.00000329      -0.00000266       0.00000734
Cl       2.08092856       1.47143895       6.96641937      -0.00721037      -0.00509900       0.00000166
Cl       5.96319987       4.21662122       6.96641939       0.00721076       0.00509749      -0.00000103
Cl       4.99263226       1.47143810       5.28534687       0.00360614      -0.00510076      -0.00624371
Cl       3.05149742       4.21661984       8.64749381      -0.00360584       0.00509714       0.00624588
Cl       3.05149698       4.21662111       5.28534703      -0.00360782       0.00510126      -0.00624722
Cl       4.99263395       1.47143839       8.64749387       0.00360171      -0.00509405       0.00623775
