9
Lattice="6.648030665099398 1.0654796691710939e-07 3.8382421723899642 2.2160102528360057 6.267823402266238 3.8382422924524695 -1.1389218887094304e-07 6.65120156048816e-08 7.676484542046959" Properties=species:S:1:pos:R:3:forces:R:3 energy=-17.668962478637695 free_energy=-17.668962478637695 stress="-3.550576002453454e-05 1.2127465254252456e-08 1.1477593986342072e-08 1.2127465254252456e-08 -3.551552799763158e-05 -1.9386796168419096e-08 1.1477593986342072e-08 -1.9386796168419096e-08 -3.5529919841792434e-05" pbc="T T T"
Hg       2.21601017       1.56695592       3.83824226       0.00000013       0.00000007       0.00000007
Hg       6.64803057       4.70086767      11.51472703       0.00000016       0.00000010       0.00000011
Ca       0.00000086       0.00000007      -0.00000151      -0.00000643      -0.00000061       0.00000979
Br       2.33073329       1.64807729       7.67648415      -0.00003883      -0.00002688      -0.00000014
Br       6.53330643       4.61974579       7.67648420       0.00004341       0.00003001       0.00000065
Br       5.48266412       1.64807815       5.85671706       0.00002082      -0.00003019      -0.00003624
Br       3.38137643       4.61974662       9.49625313      -0.00001673       0.00002441       0.00002971
Br       3.38137699       4.61974589       5.85671646      -0.00002157       0.00002964      -0.00003579
Br       5.48266434       1.64807690       9.49625321       0.00001901      -0.00002655       0.00003196
