9
Lattice="4.640096285125966 2.392895390663331e-07 2.678961012784974 1.5466988966575055 4.3747256575078515 2.678961169804946 -2.0444476710665784e-07 4.7745032934590576e-08 5.357922379678604" Properties=species:S:1:pos:R:3:forces:R:3 energy=-29.77751922607422 free_energy=-29.77751922607422 stress="0.00019830191740766168 4.85558530272101e-07 -7.080567598904963e-08 4.85558530272101e-07 0.0001981946697924286 1.3549767174936278e-07 -7.080567598904963e-08 1.3549767174936278e-07 0.0001977549254661426" pbc="T T T"
Hg       1.54670002       1.09368235       2.67896116       0.00000039       0.00000340      -0.00000166
Hg       4.64009666       3.28104530       8.03688474       0.00000037      -0.00000206       0.00000156
Co      -0.00000067       0.00000031      -0.00000112       0.00000722      -0.00003828       0.00001496
F        1.50687428       1.06552565       5.35792241      -0.00202350      -0.00143868      -0.00000505
F        4.67991800       3.30919998       5.35792147       0.00204960       0.00145079       0.00000332
F        3.88665917       1.06552269       3.98395218       0.00099130      -0.00142482      -0.00172816
F        2.30013639       3.30920211       6.73189119      -0.00100651       0.00143510       0.00174541
F        2.30013755       3.30920335       3.98395276      -0.00100746       0.00142917      -0.00174588
F        3.88665769       1.06552211       6.73189235       0.00098860      -0.00141464       0.00171568
