9
Lattice="6.583108230123769 3.0932815802655413e-07 3.8007593219908022 2.194369798217098 6.206613902020449 3.8007591547811734 1.7400640325970224e-07 -8.174809928445604e-08 7.601518342593582" Properties=species:S:1:pos:R:3:forces:R:3 energy=-16.351837158203125 free_energy=-16.351837158203125 stress="-2.537224645493552e-05 -8.976620335943153e-09 -5.673863601174389e-09 -8.976620335943153e-09 -2.536762985982932e-05 2.283414790582583e-09 -5.673863601174389e-09 2.283414790582583e-09 -2.5366924091940746e-05" pbc="T T T"
Hg       2.19436947       1.55165334       3.80075918       0.00000019       0.00000009      -0.00000026
Hg       6.58310879       4.65496063      11.40227791       0.00000007       0.00000001       0.00000034
Co       0.00000030       0.00000035       0.00000022      -0.00000103      -0.00000104       0.00000012
I        2.16261701       1.52920115       7.60151827       0.00052191       0.00036936      -0.00000003
I        6.61486100       4.67741260       7.60151856      -0.00052118      -0.00036804      -0.00000010
I        5.50179943       1.52920200       5.67364135      -0.00026059       0.00036891       0.00045125
I        3.27567877       4.67741206       9.52939529       0.00026064      -0.00036877      -0.00045159
I        3.27567800       4.67741319       5.67364019       0.00026085      -0.00036886       0.00045182
I        5.50179998       1.52920115       9.52939637      -0.00026087       0.00036832      -0.00045143
