9
Lattice="6.3776912140570685 2.789433206162875e-07 3.682161558686793 2.125897243840244 6.012945150313273 3.682161715441368 -5.5046937297258556e-08 1.5306035041833723e-07 7.364323212717656" Properties=species:S:1:pos:R:3:forces:R:3 energy=-23.569581985473633 free_energy=-23.569581985473633 stress="-1.975996383407619e-06 8.184911592934441e-08 -1.2790160930364891e-08 8.184911592934441e-08 -2.024169816650101e-06 2.452731173718803e-08 -1.2790160930364891e-08 2.452731173718803e-08 -2.0926408978994004e-06" pbc="T T T"
Hg       2.12589725       1.50323646       3.68216193       0.00000033      -0.00000008       0.00000015
Hg       6.37769114       4.50970909      11.04648453      -0.00000031      -0.00000000      -0.00000013
Cr      -0.00000119      -0.00000057       0.00000005       0.00001696       0.00000887      -0.00000119
Br       2.00017797       1.41434019       7.36432325       0.00137835       0.00097450      -0.00000011
Br       6.50341149       4.59860633       7.36432325      -0.00139395      -0.00098447       0.00000030
Br       5.37760315       1.41433891       5.41436532      -0.00069777       0.00098513       0.00120686
Br       3.12598551       4.59860654       9.31428110       0.00069636      -0.00098389      -0.00120641
Br       3.12598516       4.59860691       5.41436487       0.00069852      -0.00098736       0.00121019
Br       5.37760327       1.41433856       9.31428158      -0.00069866       0.00098728      -0.00120960
