9
Lattice="6.37744312881942 3.813686535266337e-08 3.6820185668044925 2.125814298681065 6.01271119018981 3.682018763475144 -1.1070117173685073e-07 1.6259383894326868e-07 7.364037325349024" Properties=species:S:1:pos:R:3:forces:R:3 energy=-23.569576263427734 free_energy=-23.569576263427734 stress="9.595994197297841e-05 -2.0018829260948223e-08 -1.215668721243901e-08 -2.0018829260948223e-08 9.597376629244536e-05 2.6387979801256733e-08 -1.215668721243901e-08 2.6387979801256733e-08 9.5992763817776e-05" pbc="T T T"
Hg       2.12581433       1.50317798       3.68201854       0.00000004      -0.00000005       0.00000008
Hg       6.37744289       4.50953342      11.04605619       0.00000005       0.00000003       0.00000002
Cr      -0.00000019      -0.00000129      -0.00000130      -0.00000031       0.00001724       0.00001680
Br       2.00071153       1.41471740       7.36403750      -0.00363929      -0.00257426      -0.00000057
Br       6.50254581       4.59799424       7.36403707       0.00363463       0.00256976       0.00000045
Br       5.37708709       1.41471801       5.41468679       0.00182378      -0.00258149      -0.00316048
Br       3.12617015       4.59799427       9.31338887      -0.00181660       0.00256853       0.00314660
Br       3.12617039       4.59799436       5.41468618      -0.00182018       0.00257247      -0.00315183
Br       5.37708719       1.41471718       9.31338877       0.00181804      -0.00257219       0.00314897
