9
Lattice="4.962245373302164 1.4427116767452723e-07 2.8649534594713804 1.6540818312631989 4.67844973520432 2.864953625501455 -1.1488906635788058e-08 1.9522068489223848e-07 5.729906938842096" Properties=species:S:1:pos:R:3:forces:R:3 energy=-34.68271255493164 free_energy=-34.68271255493164 stress="-0.0003769475733861327 1.7077393010822561e-07 -1.908989872845268e-07 1.7077393010822561e-07 -0.0003771347110159695 2.1387916149251396e-07 -1.908989872845268e-07 2.1387916149251396e-07 -0.0003772244381252676" pbc="T T T"
Hg       1.65408039       1.16961231       2.86495410      -0.00000312      -0.00000404       0.00000058
Hg       4.96224638       3.50883758       8.59486080       0.00000360      -0.00000045      -0.00000099
Cr       0.00000044       0.00000070      -0.00000334      -0.00001168      -0.00003378       0.00009094
F        1.57609263       1.11446663       5.72990622      -0.00172433      -0.00122208       0.00000102
F        5.04023182       3.56398306       5.72990648       0.00175820       0.00123823      -0.00000079
F        4.17419818       1.11446789       4.22989053       0.00087669      -0.00123946      -0.00151653
F        2.44212840       3.56398485       7.22992280      -0.00086169       0.00121292       0.00149309
F        2.44212845       3.56398413       4.22989184      -0.00087646       0.00123717      -0.00151729
F        4.17420200       1.11446336       7.22992673       0.00083864      -0.00118835       0.00144997
