9
Lattice="6.58397687920142 3.222632994926495e-08 3.801260896281939 2.194658934702884 6.20743324658584 3.8012609922625162 -1.1378178756955897e-08 1.0950608055642572e-07 7.6025218122714415" Properties=species:S:1:pos:R:3:forces:R:3 energy=-16.35183334350586 free_energy=-16.35183334350586 stress="-7.275305620169092e-07 1.1610190586708313e-09 -9.902403341754962e-10 1.1610190586708313e-09 -7.346463348767429e-07 -1.5074265169445766e-09 -9.902403341754962e-10 -1.5074265169445766e-09 -7.314571348615573e-07" pbc="T T T"
Hg       2.19465890       1.55185827       3.80126084      -0.00000031       0.00000004       0.00000021
Hg       6.58397672       4.65557508      11.40378286       0.00000030       0.00000014       0.00000017
Co      -0.00000003      -0.00000004       0.00000060       0.00000041       0.00000012      -0.00000208
I        2.16244650       1.52908079       7.60252164       0.00174868       0.00123575       0.00000017
I        6.61618989       4.67835316       7.60252173      -0.00174983      -0.00123697      -0.00000092
I        5.50275363       1.52908039       5.67399470      -0.00087490       0.00123780       0.00151527
I        3.27588216       4.67835252       9.53104886       0.00087454      -0.00123606      -0.00151357
I        3.27588185       4.67835264       5.67399464       0.00087558      -0.00123719       0.00151451
I        5.50275362       1.52908084       9.53104883      -0.00087442       0.00123639      -0.00151379
