9
Lattice="6.178978172810832 -8.408723177724843e-08 3.5674348373814104 2.0596592813783148 5.82559666240855 3.567434889828572 -8.070062641375854e-09 5.8528005421008096e-08 7.134869688740488" Properties=species:S:1:pos:R:3:forces:R:3 energy=-15.167719841003418 free_energy=-15.167719841003418 stress="2.9274302505655214e-05 -3.2986311460092566e-09 -3.819085492295926e-09 -3.2986311460092566e-09 2.929844231402967e-05 2.577468904974012e-09 -3.819085492295926e-09 2.577468904974012e-09 2.9284690754138865e-05" pbc="T T T"
Hg       2.05965927       1.45639914       3.56743481      -0.00000012       0.00000007      -0.00000015
Hg       6.17897821       4.36919757      10.70230464       0.00000039      -0.00000004       0.00000018
Cu      -0.00000000       0.00000031       0.00000015       0.00000035      -0.00000285       0.00000007
Br       2.02457432       1.43159039       7.13486962       0.00120360       0.00085114       0.00000024
Br       6.21406330       4.39400624       7.13486965      -0.00120449      -0.00085092       0.00000018
Br       5.16669096       1.43159021       5.32076784      -0.00060159       0.00085120       0.00104253
Br       3.07194628       4.39400643       8.94897149       0.00060207      -0.00085039      -0.00104241
Br       3.07194634       4.39400613       5.32076799       0.00060217      -0.00084947       0.00104220
Br       5.16669103       1.43159016       8.94897154      -0.00060214       0.00085139      -0.00104277
