9
Lattice="7.453042787476021 -1.4851592929673918e-06 4.303017623963958 2.4843471372852126 7.026793897753932 4.30301599292376 9.210270053567498e-07 -1.34634343733313e-06 8.606033652662006" Properties=species:S:1:pos:R:3:forces:R:3 energy=-16.052087783813477 free_energy=-16.052087783813477 stress="7.079749047989026e-05 -7.863551587661277e-08 1.0764875213453706e-08 -7.863551587661277e-08 7.08313164068386e-05 -1.0341638656541363e-08 1.0764875213453706e-08 -1.0341638656541363e-08 7.076714973663911e-05" pbc="T T T"
Hg       2.48434817       1.75669755       4.30301715      -0.00000026      -0.00000037      -0.00000018
Hg       7.45304259       5.27009198      12.90905078       0.00000031       0.00000022      -0.00000020
C        0.00000047      -0.00001240       0.00000210       0.00000113       0.00003729      -0.00000751
Br       1.85479225       1.31153721       8.60603257      -0.00567645      -0.00401184      -0.00000098
Br       8.08260013       5.71526045       8.60603230       0.00564387       0.00399038      -0.00000054
Br       6.52564629       1.31153622       5.90931268       0.00284232      -0.00401184      -0.00490960
Br       3.41174527       5.71525821      11.30275379      -0.00283101       0.00400916       0.00489590
Br       3.41174401       5.71525874       5.90931018      -0.00282802       0.00400555      -0.00489318
Br       6.52564528       1.31153617      11.30275482       0.00284816      -0.00401849       0.00491613
