9
Lattice="4.966704926872875 3.059528655636679e-08 2.8675284287521223 1.6555683198582272 4.682654419606139 2.867528459833677 -6.176700326703705e-08 -5.608886253887036e-09 5.735056964487761" Properties=species:S:1:pos:R:3:forces:R:3 energy=-34.68278884887695 free_energy=-34.68278884887695 stress="6.902233144501224e-05 -2.9669989132230512e-08 -1.3409191090829609e-08 -2.9669989132230512e-08 6.90404704073444e-05 -1.3396515008423648e-08 -1.3409191090829609e-08 -1.3396515008423648e-08 6.905422196723521e-05" pbc="T T T"
Hg       1.65556797       1.17066366       2.86752842      -0.00000205      -0.00000031       0.00000169
Hg       4.96670512       3.51199120       8.60258474      -0.00000053       0.00000133      -0.00000110
Cr      -0.00000083      -0.00000003       0.00000099       0.00001553      -0.00000294      -0.00001156
F        1.57611121       1.11447849       5.73505636      -0.00206731      -0.00146276       0.00000170
F        5.04616177       3.56817547       5.73505735       0.00206584       0.00146140       0.00000107
F        4.17864959       1.11447932       4.23248105       0.00103173      -0.00146047      -0.00178665
F        2.44362415       3.56817525       7.23763259      -0.00103821       0.00146318       0.00179549
F        2.44362398       3.56817506       4.23248132      -0.00103660       0.00146303      -0.00179085
F        4.17864977       1.11447923       7.23763268       0.00103160      -0.00146247       0.00178993
