9
Lattice="5.862498774118392 -2.385005142264832e-08 3.384715686549156 1.9541664420525406 5.527216278085717 3.384715328882158 2.6822498180821313e-07 -2.483871326332123e-07 6.769430908519065" Properties=species:S:1:pos:R:3:forces:R:3 energy=-17.288137435913086 free_energy=-17.288137435913086 stress="0.00014935093349777162 1.8544564994726898e-08 -2.1524982685150462e-08 1.8544564994726898e-08 0.00014941974950488657 -5.746391362748682e-09 -2.1524982685150462e-08 -5.746391362748682e-09 0.00014938747335691005" pbc="T T T"
Hg       1.95416623       1.38180526       3.38471585       0.00000116       0.00000170       0.00000106
Hg       5.86249908       4.14541233      10.15414600       0.00000195       0.00000044       0.00000077
Cu       0.00000113       0.00000015       0.00000096      -0.00000870      -0.00000203      -0.00000951
Cl       1.89791459       1.34202697       6.76942890      -0.00526154      -0.00372359      -0.00000055
Cl       5.91875078       4.18518862       6.76942866       0.00526440       0.00372729      -0.00000142
Cl       4.91354347       1.34202620       5.02835822       0.00263098      -0.00372088      -0.00455815
Cl       2.90312336       4.18518705       8.51050595      -0.00263253       0.00372282       0.00456101
Cl       2.90312108       4.18518881       5.02835768      -0.00263005       0.00371909      -0.00455597
Cl       4.91354224       1.34202798       8.51050573       0.00263414      -0.00372487       0.00456291
