9
Lattice="4.978300716149392 -2.1224102012423066e-07 2.874223176673017 1.6594333754517323 4.693586783494899 2.8742231706027397 -1.5284480511569837e-08 -1.8242197401770728e-08 5.748446379819659" Properties=species:S:1:pos:R:3:forces:R:3 energy=-31.752277374267578 free_energy=-31.752277374267578 stress="-6.58089411444962e-05 6.670201457836811e-08 -6.162758836580906e-08 6.670201457836811e-08 -6.59086654195562e-05 9.409044565700242e-08 -6.162758836580906e-08 9.409044565700242e-08 -6.593887519557029e-05" pbc="T T T"
Hg       1.65943325       1.17339686       2.87422366       0.00000045       0.00000004      -0.00000125
Hg       4.97830040       3.52019038       8.62266945       0.00000018       0.00000171      -0.00000276
Fe      -0.00000010       0.00000028      -0.00000288       0.00000793      -0.00001000       0.00006999
F        1.59008554       1.12435974       5.74844597      -0.00197202      -0.00139520       0.00000182
F        5.04764903       3.56922687       5.74844600       0.00197139       0.00139162       0.00000178
F        4.18325701       1.12436014       4.25127745       0.00099368      -0.00140440      -0.00171804
F        2.45447554       3.56922722       7.24561601      -0.00097562       0.00137973       0.00169370
F        2.45447619       3.56922677       4.25127796      -0.00099403       0.00140354      -0.00172001
F        4.18325943       1.12435787       7.24561727       0.00096819      -0.00136724       0.00167480
