9
Lattice="6.881667705270224 -2.4882681894961243e-07 3.9731319183286518 2.2938888486310516 6.488099811999043 3.9731321813625193 -3.6531397521768064e-07 6.38337352453223e-08 7.946264469399383" Properties=species:S:1:pos:R:3:forces:R:3 energy=-18.625459671020508 free_energy=-18.625459671020508 stress="0.0001379377645207569 -3.476167265148433e-08 -6.920371475871434e-08 -3.476167265148433e-08 0.00013804857735522091 7.927073397695494e-08 -6.920371475871434e-08 7.927073397695494e-08 0.00013789428339805454" pbc="T T T"
Hg       2.29388899       1.62202533       3.97313173       0.00000023      -0.00000082      -0.00000045
Hg       6.88166691       4.86607428      11.91939726       0.00000014       0.00000115      -0.00000027
Fe       0.00000082      -0.00000032       0.00000003      -0.00001998       0.00000624       0.00001171
I        1.98015603       1.40018354       7.94626217      -0.00657772      -0.00465695       0.00000321
I        7.19539929       5.08791491       7.94626389       0.00659207       0.00466506       0.00000229
I        5.89158859       1.40018603       5.68799809       0.00330334      -0.00467797      -0.00571442
I        3.28396734       5.08791547      10.20453119      -0.00329439       0.00466029       0.00570013
I        3.28396791       5.08791480       5.68799707      -0.00329345       0.00466224      -0.00569791
I        5.89158875       1.40018418      10.20453258       0.00328974      -0.00465919       0.00569548
