9
Lattice="6.876075758770019 -7.601016877828979e-07 3.969904279563328 2.2920248969658417 6.4828255751250765 3.969903654858808 2.508976214407444e-08 -7.47362677747107e-07 7.939808515670088" Properties=species:S:1:pos:R:3:forces:R:3 energy=-18.62548065185547 free_energy=-18.62548065185547 stress="-1.1375808753655292e-05 -1.7737504265369353e-07 1.236045790165008e-07 -1.7737504265369353e-07 -1.1298408935545012e-05 -1.7561767151619279e-07 1.236045790165008e-07 -1.7561767151619279e-07 -1.1171133337484207e-05" pbc="T T T"
Hg       2.29202522       1.62070578       3.96990461      -0.00000014       0.00000001      -0.00000007
Hg       6.87607554       4.86211835      11.90971137       0.00000054      -0.00000024      -0.00000015
Fe       0.00000121      -0.00000195       0.00000104      -0.00003284       0.00003559      -0.00001407
I        1.97965805       1.39982786       7.93980868      -0.00014579      -0.00010195       0.00000164
I        7.18844134       5.08299540       7.93980759       0.00015609       0.00010513       0.00000031
I        5.88624489       1.39982967       5.68433923       0.00008564      -0.00011918      -0.00014295
I        3.28185556       5.08299606      10.19527701      -0.00007661       0.00010286       0.00013039
I        3.28185609       5.08299392       5.68434101      -0.00008744       0.00011914      -0.00014776
I        5.88624479       1.39983109      10.19527542       0.00010059      -0.00014175       0.00017219
