9
Lattice="6.0703839309199745 2.494629550391292e-08 3.504737740629381 2.0234614116224114 5.723211773025248 3.5047376058824593 -1.2532010562274818e-08 -1.7389210584410014e-07 7.00947550296495" Properties=species:S:1:pos:R:3:forces:R:3 energy=-23.594011306762695 free_energy=-23.594011306762695 stress="7.997705688467249e-05 -1.9706730469692957e-08 1.628894530369962e-08 -1.9706730469692957e-08 7.988449942786247e-05 1.1405036914879929e-08 1.628894530369962e-08 1.1405036914879929e-08 8.010448073036969e-05" pbc="T T T"
Hg       2.02346121       1.43080267       3.50473817       0.00000019      -0.00000015       0.00000038
Hg       6.07038416       4.29240867      10.51421268       0.00000030      -0.00000008       0.00000028
Fe       0.00000018      -0.00000036       0.00000096      -0.00000297       0.00000767      -0.00002400
Cl       1.82000615       1.28693674       7.00947579      -0.00120863      -0.00084952      -0.00000078
Cl       6.27384002       4.43627437       7.00947524       0.00120550       0.00084844       0.00000054
Cl       5.16038130       1.28693720       5.08090985       0.00060213      -0.00084727      -0.00104767
Cl       2.93346409       4.43627387       8.93804080      -0.00060652       0.00085430       0.00105587
Cl       2.93346375       4.43627489       5.08090970      -0.00060076       0.00084408      -0.00104463
Cl       5.16038050       1.28693836       8.93804045       0.00061078      -0.00085746       0.00106043
