9
Lattice="4.979449436126174 -5.245896540598787e-09 2.8748865685421765 1.659816462786895 4.694669798268868 2.8748865875530445 1.3792974046785902e-07 1.2081453047101777e-07 5.749772898183047" Properties=species:S:1:pos:R:3:forces:R:3 energy=-31.752281188964844 free_energy=-31.752281188964844 stress="6.346735608531162e-05 -9.156240565744156e-08 2.2291169798904775e-08 -9.156240565744156e-08 6.347700400510803e-05 -1.5299351119324456e-08 2.2291169798904775e-08 -1.5299351119324456e-08 6.358094833558425e-05" pbc="T T T"
Hg       1.65981665       1.17366781       2.87488670       0.00000136      -0.00000013      -0.00000045
Hg       4.97944930       3.52100217       8.62465972      -0.00000119       0.00000170       0.00000042
Fe      -0.00000005       0.00000060      -0.00000015       0.00000248      -0.00001073       0.00000031
F        1.59006405       1.12434436       5.74977319      -0.00004876      -0.00003290      -0.00000031
F        5.04920243       3.57032550       5.74977284       0.00004804       0.00003320       0.00000024
F        4.18441736       1.12434504       4.25192250       0.00002837      -0.00003654      -0.00004631
F        2.45484871       3.57032458       7.24762337      -0.00002915       0.00004062       0.00004926
F        2.45484889       3.57032430       4.25192278      -0.00002967       0.00004160      -0.00005138
F        4.18441699       1.12434532       7.24762339       0.00002845      -0.00003684       0.00004804
