9
Lattice="6.705039953168709 -1.1384520683380501e-07 3.87115665035765 2.2350132446997564 6.321572226567163 3.871156590928523 7.362142811861226e-08 -2.0727291386310496e-08 7.742313173199221" Properties=species:S:1:pos:R:3:forces:R:3 energy=-22.125415802001953 free_energy=-22.125415802001953 stress="-3.9061211282387376e-05 7.048792838304507e-08 -2.4161558087598678e-08 7.048792838304507e-08 -3.90863096981775e-05 7.818131031456232e-09 -2.4161558087598678e-08 7.818131031456232e-09 -3.9141246816143394e-05" pbc="T T T"
Hg       2.23501322       1.58039269       3.87115587       0.00000004      -0.00000008       0.00000023
Hg       6.70503992       4.74117881      11.61347006      -0.00000001       0.00000012       0.00000054
Fe       0.00000021       0.00000032      -0.00000066       0.00000088      -0.00000460       0.00000300
Br       1.83441119       1.29712462       7.74231357       0.00060302       0.00042652      -0.00000146
Br       7.10564293       5.02444789       7.74231413      -0.00060672      -0.00042738      -0.00000362
Br       5.78783494       1.29712333       5.45980242      -0.00030679       0.00043608       0.00052984
Br       3.15221850       5.02444785      10.02482429       0.00030462      -0.00042918      -0.00052910
Br       3.15221754       5.02444889       5.45980223       0.00031079      -0.00043462       0.00053225
Br       5.78783467       1.29712408      10.02482369      -0.00030582       0.00043321      -0.00053163
