9
Lattice="6.7059190112334175 1.4524846039280738e-07 3.871664483636777 2.23530620844023 6.322402244574901 3.8716649436329296 -1.7276569089240894e-07 4.412144242576184e-07 7.743329266512266" Properties=species:S:1:pos:R:3:forces:R:3 energy=-22.125408172607422 free_energy=-22.125408172607422 stress="-0.00011412688036216423 1.3186830294387164e-08 -5.793888746552511e-08 1.3186830294387164e-08 -0.00011408308637328446 8.957177755064549e-08 -5.793888746552511e-08 8.957177755064549e-08 -0.00011407375859562308" pbc="T T T"
Hg       2.23530588       1.58060089       3.87166450       0.00000102      -0.00000011       0.00000018
Hg       6.70591906       4.74180197      11.61499407      -0.00000054       0.00000018       0.00000013
Fe       0.00000017      -0.00000032      -0.00000008      -0.00000180       0.00001801       0.00000106
Br       1.83416654       1.29695272       7.74332911       0.00545099       0.00385228      -0.00000024
Br       7.10705878       5.02545016       7.74332936      -0.00545901      -0.00385776       0.00000057
Br       5.78883534       1.29695193       5.46010062      -0.00272278       0.00384891       0.00471133
Br       3.15238938       5.02545066      10.02655850       0.00272835      -0.00385454      -0.00472094
Br       3.15238926       5.02545168       5.46009980       0.00273359      -0.00386493       0.00473133
Br       5.78883584       1.29695170      10.02655904      -0.00272976       0.00385804      -0.00472338
