9
Lattice="6.43555724198513 2.2928724933099068e-07 3.7155705589108896 2.1451859488535705 6.067502032473578 3.7155705842836175 -1.0831108385925279e-07 -4.5512292067364105e-08 7.431141305421901" Properties=species:S:1:pos:R:3:forces:R:3 energy=-21.150287628173828 free_energy=-21.150287628173828 stress="-0.00013520472566597164 -4.738521397484874e-08 -9.325052729991512e-09 -4.738521397484874e-08 -0.00013510865392163396 -1.5858603319429676e-08 -9.325052729991512e-09 -1.5858603319429676e-08 -0.0001350653328699991" pbc="T T T"
Hg       2.14518577       1.51687582       3.71557073       0.00000032      -0.00000050       0.00000023
Hg       6.43555734       4.55062642      11.14671174      -0.00000029       0.00000034       0.00000058
Ge       0.00000011      -0.00000001       0.00000151      -0.00000269      -0.00000081      -0.00003541
Cl       1.85759221       1.31351750       7.43114164       0.00280362       0.00197810      -0.00000240
Cl       6.72315054       4.75398488       7.43114206      -0.00280160      -0.00197744      -0.00000526
Cl       5.50676099       1.31351684       5.32429387      -0.00140637       0.00198570       0.00242692
Cl       3.07398341       4.75398441       9.53798746       0.00139004      -0.00196370      -0.00240740
Cl       3.07398155       4.75398466       5.32429389       0.00140764      -0.00198376       0.00242808
Cl       5.50676036       1.31351817       9.53798711      -0.00139053       0.00196201      -0.00240511
