9
Lattice="6.442669778921551 -1.907666534510851e-07 3.7196771706464435 2.147556469377986 6.07420708029784 3.719677073200004 9.312541518699661e-08 -5.349743062150681e-08 7.439354179995148" Properties=species:S:1:pos:R:3:forces:R:3 energy=-21.150314331054688 free_energy=-21.150314331054688 stress="-4.531348531600088e-05 -2.6721588497480298e-08 2.8761228065832256e-08 -2.6721588497480298e-08 -4.525612894212827e-05 1.7715109379423666e-08 2.8761228065832256e-08 1.7715109379423666e-08 -4.5247081288835034e-05" pbc="T T T"
Hg       2.14755661       1.51855177       3.71967733       0.00000014      -0.00000025       0.00000043
Hg       6.44266955       4.55565509      11.15903121       0.00000000       0.00000017      -0.00000000
Ge       0.00000027      -0.00000033      -0.00000018       0.00000124       0.00000361      -0.00000484
Cl       1.85746610       1.31342701       7.43935385       0.00354162       0.00250143      -0.00000323
Cl       6.73276076       4.76078025       7.43935321      -0.00354639      -0.00250834       0.00000101
Cl       5.51393781       1.31342658       5.32829024      -0.00177452       0.00250706       0.00306943
Cl       3.07629023       4.76077907       9.55041774       0.00176856      -0.00249669      -0.00306165
Cl       3.07628903       4.76078078       5.32829149       0.00177349      -0.00250658       0.00306439
Cl       5.51393518       1.31342722       9.55041913      -0.00176382       0.00249946      -0.00306565
