9
Lattice="5.4268051422353425 8.376620126876632e-08 3.1331691192016407 1.8089357389772267 5.116444261612081 3.133168058164564 8.518533351555347e-07 -6.971487254263415e-07 6.266336762950219" Properties=species:S:1:pos:R:3:forces:R:3 energy=-32.16303253173828 free_energy=-32.16303253173828 stress="-0.00044147353037260473 -5.459543572783332e-08 8.029251574726004e-08 -5.459543572783332e-08 -0.00044140650425106287 -2.0184364402098254e-08 8.029251574726004e-08 -2.0184364402098254e-08 -0.0004418272874318063" pbc="T T T"
Hg       1.80893774       1.27911068       3.13316593       0.00000248       0.00000035      -0.00000161
Hg       5.42680036       3.83733178       9.39950790      -0.00000462      -0.00000232       0.00000138
Ge       0.00000041      -0.00000050      -0.00000037       0.00000860       0.00001050       0.00000882
F        1.50600265       1.06490368       6.26633435       0.00249273       0.00175548      -0.00000103
F        5.72973963       4.05154076       6.26633697      -0.00249857      -0.00176853       0.00000462
F        4.67380570       1.06490517       4.43740276      -0.00124905       0.00176424       0.00217187
F        2.56193789       4.05153714       8.09527196       0.00124928      -0.00176114      -0.00217032
F        2.56193847       4.05154154       4.43740367       0.00124508      -0.00175864       0.00216115
F        4.67380445       1.06490362       8.09527254      -0.00124604       0.00176042      -0.00217414
