9
Lattice="6.671006251853512 -3.2987572966551755e-07 3.851507077203257 2.2236685657399335 6.289484396244346 3.851506858736216 -1.745062886972542e-07 -3.909608887992259e-07 7.703014456659985" Properties=species:S:1:pos:R:3:forces:R:3 energy=-17.616146087646484 free_energy=-17.616146087646484 stress="0.00018572196131572127 1.3266894249852612e-08 -2.5379145451864815e-09 1.3266894249852612e-08 0.00018574186833575368 -6.3975447162079035e-09 -2.5379145451864815e-09 -6.3975447162079035e-09 0.00018572826229501516" pbc="T T T"
Hg       2.22366880       1.57237158       3.85150713       0.00000013      -0.00000008      -0.00000006
Hg       6.67100620       4.71711192      11.55452196      -0.00000028       0.00000000       0.00000011
Ge       0.00000036       0.00000039       0.00000024      -0.00000349       0.00000074      -0.00000495
Br       1.99061932       1.40758103       7.70301379      -0.00050130      -0.00035541       0.00000010
Br       6.90405568       4.88190271       7.70301387       0.00050098       0.00035699      -0.00000022
Br       5.67569708       1.40757988       5.57543365       0.00024902      -0.00035313      -0.00043334
Br       3.21897766       4.88190347       9.83059471      -0.00024933       0.00035447       0.00043218
Br       3.21897708       4.88190392       5.57543376      -0.00024726       0.00035284      -0.00043036
Br       5.67569641       1.40757984       9.83059450       0.00025152      -0.00035648       0.00043648
