9
Lattice="6.647348041522515 3.257945800514437e-07 3.8378477840430785 2.215782949235695 6.267179383949552 3.837847850612901 5.033594408434097e-08 1.1712373301671258e-07 7.6756954809019176" Properties=species:S:1:pos:R:3:forces:R:3 energy=-17.616392135620117 free_energy=-17.616392135620117 stress="-6.644359382335097e-05 2.0405936940193214e-09 1.2839908303252656e-10 2.0405936940193214e-09 -6.642770313192159e-05 3.666438930238769e-09 1.2839908303252656e-10 3.666438930238769e-09 -6.644838867941871e-05" pbc="T T T"
Hg       2.21578303       1.56679538       3.83784824      -0.00000036      -0.00000030      -0.00000098
Hg       6.64734777       4.70038442      11.51354300       0.00000004       0.00000021      -0.00000070
Ge      -0.00000127       0.00000029      -0.00000504       0.00001544      -0.00000154       0.00006958
Br       1.99138317       1.40812086       7.67569464       0.00159307       0.00112586       0.00000760
Br       6.87174876       4.85905917       7.67569467      -0.00160545      -0.00113451       0.00000798
Br       5.65165568       1.40812232       5.56243696      -0.00078445       0.00110984       0.00136754
Br       3.21147307       4.85906074       9.78895727       0.00081550      -0.00115095      -0.00140417
Br       3.21147585       4.85905752       5.56243691       0.00078298      -0.00110523       0.00136261
Br       5.65165819       1.40811853       9.78895761      -0.00081690       0.00115649      -0.00140949
