9
Lattice="6.854389067885984 3.9193259001099604e-07 3.9573832112947427 2.2847967200970674 6.462379875523582 3.9573832206176607 -1.8420418058667044e-08 -1.6070876077906159e-09 7.914766454494582" Properties=species:S:1:pos:R:3:forces:R:3 energy=-14.654535293579102 free_energy=-14.654535293579102 stress="-2.828882543326472e-06 -9.556921920506056e-10 -4.002134623704023e-09 -9.556921920506056e-10 -2.8211018161528045e-06 9.874495887629564e-09 -4.002134623704023e-09 9.874495887629564e-09 -2.8177335025247885e-06" pbc="T T T"
Hg       2.28479624       1.61559529       3.95738338       0.00000004      -0.00000006      -0.00000017
Hg       6.85438948       4.84678515      11.87214951       0.00000013       0.00000004      -0.00000006
Ge       0.00000014      -0.00000006       0.00000019      -0.00000000       0.00000033       0.00000026
I        2.37176463       1.67709055       7.91476660      -0.00177160      -0.00125273       0.00000088
I        6.76742105       4.78528948       7.91476631       0.00177115       0.00125229      -0.00000071
I        5.66850692       1.67709073       6.01139116       0.00088628      -0.00125253      -0.00153463
I        3.47067931       4.78528949       9.81814154      -0.00088610       0.00125296       0.00153439
I        3.47067825       4.78528958       6.01139134      -0.00088568       0.00125235      -0.00153325
I        5.66850716       1.67709088       9.81814158       0.00088571      -0.00125277       0.00153317
