9
Lattice="6.861784959725451 -3.5830218623423344e-08 3.961653413585801 2.287261634974481 6.4693528512260015 3.9616533867152603 5.69944532832793e-09 -2.887940499055049e-08 7.923306817299948" Properties=species:S:1:pos:R:3:forces:R:3 energy=-14.654366493225098 free_energy=-14.654366493225098 stress="0.000249428121605888 2.8150501929502525e-09 -3.8047991424150496e-09 2.8150501929502525e-09 0.0002494328946340829 1.4930597869167173e-09 -3.8047991424150496e-09 1.4930597869167173e-09 0.0002494336513336748" pbc="T T T"
Hg       2.28726161       1.61733817       3.96165342       0.00000020      -0.00000020       0.00000004
Hg       6.86178496       4.85201464      11.88496026      -0.00000034       0.00000003      -0.00000008
Ge       0.00000000      -0.00000013      -0.00000006      -0.00000029       0.00000001       0.00000011
I        2.37111945       1.67663471       7.92330676       0.00362608       0.00256382       0.00000044
I        6.77792728       4.79271826       7.92330677      -0.00362623      -0.00256419      -0.00000007
I        5.67622516       1.67663464       6.01510312      -0.00181313       0.00256462       0.00313997
I        3.47282132       4.79271819       9.83151049       0.00181358      -0.00256468      -0.00314009
I        3.47282136       4.79271810       6.01510312       0.00181346      -0.00256385       0.00314017
I        5.67622527       1.67663455       9.83151053      -0.00181332       0.00256446      -0.00314039
