9
Lattice="6.712483864474497 -3.4280948936938777e-07 3.8754544458381672 2.237494254279018 6.328590448311682 3.875454522063117 -1.655946933209245e-07 -2.373689301831672e-08 7.750909178494817" Properties=species:S:1:pos:R:3:forces:R:3 energy=-31.967632293701172 free_energy=-31.967632293701172 stress="-2.9262637326610275e-06 -2.5927683111603983e-08 -7.802915535926047e-10 -2.5927683111603983e-08 -2.9317805001483066e-06 1.6999056384747746e-08 -7.802915535926047e-10 1.6999056384747746e-08 -2.9300595087988768e-06" pbc="T T T"
Hg       2.23749445       1.58214773       3.87545474       0.00000009      -0.00000001       0.00000006
Hg       6.71248356       4.74644247      11.62636418       0.00000004       0.00000014      -0.00000044
Hf      -0.00000007      -0.00000018      -0.00000067       0.00000094       0.00000275       0.00000608
Cl       2.00745175       1.41948222       7.75090967       0.00006719       0.00004910      -0.00000095
Cl       6.94252611       4.90910776       7.75090877      -0.00006919      -0.00004950       0.00000003
Cl       5.70875751       1.41948261       5.61395893      -0.00003173       0.00004482       0.00005585
Cl       3.24122049       4.90910708       9.88785930       0.00003313      -0.00004740      -0.00005987
Cl       3.24122070       4.90910792       5.61395857       0.00003241      -0.00004730       0.00005843
Cl       5.70875737       1.41948261       9.88785899      -0.00003287       0.00004727      -0.00005917
