9
Lattice="6.943115575881106 1.6128166706752434e-07 4.008609780674408 2.3143719356627215 6.546032144614002 4.008609910616892 1.1449408553745177e-07 2.4010587669873904e-07 8.017219363039317" Properties=species:S:1:pos:R:3:forces:R:3 energy=-28.217987060546875 free_energy=-28.217987060546875 stress="-7.451170677086338e-05 4.779726392456496e-09 4.498121874974004e-09 4.779726392456496e-09 -7.451697456417605e-05 -1.788281328574115e-10 4.498121874974004e-09 -1.788281328574115e-10 -7.447299867635593e-05" pbc="T T T"
Hg       2.31437192       1.63650813       4.00860984      -0.00000017       0.00000015      -0.00000010
Hg       6.94311549       4.90952446      12.02582922       0.00000012      -0.00000001      -0.00000008
Hf      -0.00000009       0.00000009      -0.00000005      -0.00000056       0.00000259      -0.00000502
Br       2.14643865       1.51776145       8.01721933       0.00393759       0.00278504      -0.00000076
Br       7.11104923       5.02827091       8.01721983      -0.00393898      -0.00278465      -0.00000013
Br       5.86989690       1.51776047       5.86748056      -0.00197002       0.00278573       0.00340946
Br       3.38759099       5.02827118      10.16695898       0.00196878      -0.00278400      -0.00340937
Br       3.38759079       5.02827197       5.86748020       0.00197075      -0.00278746       0.00341230
Br       5.86989654       1.51776171      10.16695819      -0.00196746       0.00278265      -0.00340643
