9
Lattice="7.622123434164224 -1.1316393244874044e-07 4.400634867725901 2.540707561722131 7.186207203652976 4.400635115364503 -2.105461091826068e-07 1.5441509271920928e-07 8.801270100128493" Properties=species:S:1:pos:R:3:forces:R:3 energy=-24.534870147705078 free_energy=-24.534870147705078 stress="-0.00014702032785862684 -3.9681438579464157e-08 -2.952723754390263e-08 -3.9681438579464157e-08 -0.00014697556616738439 5.271470371326359e-08 -2.952723754390263e-08 5.271470371326359e-08 -0.00014696457947138697" pbc="T T T"
Hg       2.54070735       1.79655110       4.40063591      -0.00000015       0.00000012      -0.00000009
Hg       7.62212342       5.38965611      13.20190415      -0.00000000      -0.00000002      -0.00000008
Hf       0.00000008      -0.00000063      -0.00000077       0.00000229       0.00000340       0.00000108
I        2.31939082       1.64005656       8.80127011       0.00582263       0.00411635      -0.00000087
I        7.84344001       5.54615069       8.80126996      -0.00582551      -0.00411875       0.00000034
I        6.46242800       1.64005855       6.40928661      -0.00290727       0.00411021       0.00503459
I        3.70040328       5.54614780      11.19325381       0.00290705      -0.00410976      -0.00503517
I        3.70040267       5.54615084       6.40928649       0.00291120      -0.00411726       0.00504252
I        6.46242760       1.64005771      11.19325388      -0.00291019       0.00411574      -0.00504230
