9
Lattice="5.12373905312808 8.646211147928437e-08 2.9581922256124233 1.7079130841289467 4.83070791230053 2.958192251762407 4.169464472008155e-08 6.150960191091136e-08 5.916384379007546" Properties=species:S:1:pos:R:3:forces:R:3 energy=-28.4158935546875 free_energy=-28.4158935546875 stress="8.768387488089502e-05 3.5911355666939926e-08 -8.469251966403135e-09 3.5911355666939926e-08 8.76163030625321e-05 -1.9048377097874436e-08 -8.469251966403135e-09 -1.9048377097874436e-08 8.755834278417751e-05" pbc="T T T"
Hg       1.70791265       1.20767679       2.95819228      -0.00000109       0.00000020      -0.00000024
Hg       5.12373965       3.62303079       8.87457654       0.00000151      -0.00000185       0.00000022
In      -0.00000012       0.00000006      -0.00000038       0.00000254      -0.00000313       0.00001848
F        1.70312109       1.20428862       5.91638404      -0.00054109      -0.00038224      -0.00000045
F        5.12853100       3.62641943       5.91638457       0.00054163       0.00038350       0.00000078
F        4.27217895       1.20428878       4.43313801       0.00027138      -0.00038278      -0.00046849
F        2.55947297       3.62641957       7.39963104      -0.00026795       0.00037709       0.00046110
F        2.55947352       3.62641950       4.43313832      -0.00027269       0.00038496      -0.00047019
F        4.27217903       1.20428848       7.39963100       0.00026578      -0.00037533       0.00045869
