9
Lattice="7.042163405333304 -5.051906337265626e-08 4.065794974819468 2.3473876794243083 6.639415123188848 4.065795104244853 -9.023480284042248e-09 1.521323959019786e-07 8.131589965268057" Properties=species:S:1:pos:R:3:forces:R:3 energy=-13.845186233520508 free_energy=-13.845186233520508 stress="6.149313412606716e-05 -7.970735182993849e-09 1.1762612217580681e-08 -7.970735182993849e-09 6.151306297397241e-05 -7.3736132755186645e-09 1.1762612217580681e-08 -7.3736132755186645e-09 6.151021807454526e-05" pbc="T T T"
Hg       2.34738716       1.65985389       4.06579523      -0.00000115       0.00000038       0.00000003
Hg       7.04216369       4.97956148      12.19738522       0.00000109      -0.00000050      -0.00000002
In       0.00000004      -0.00000021      -0.00000080       0.00000041      -0.00000049       0.00000658
I        2.37559508       1.67980021       8.13159036      -0.00176442      -0.00125106       0.00000034
I        7.01395563       4.95961512       8.13158962       0.00176501       0.00125104       0.00000049
I        5.85436590       1.67980008       6.12312057       0.00088447      -0.00125124      -0.00153035
I        3.53518481       4.95961541      10.14005942      -0.00088243       0.00124834       0.00152741
I        3.53518576       4.95961558       6.12312113      -0.00088416       0.00125079      -0.00153215
I        5.85436620       1.67979932      10.14005943       0.00088127      -0.00124721       0.00152770
