9
Lattice="6.641500728035609 -1.5831995335950493e-08 3.8344725542433817 2.21383329851716 6.261667175281045 3.8344730090248484 -6.355563556953597e-08 5.120505826584531e-07 7.668945218568375" Properties=species:S:1:pos:R:3:forces:R:3 energy=-18.85943603515625 free_energy=-18.85943603515625 stress="-7.230386108858511e-05 -6.093639370874371e-08 -2.2003519006830174e-08 -6.093639370874371e-08 -7.226526940939948e-05 3.760136380037693e-08 -2.2003519006830174e-08 3.760136380037693e-08 -7.222525164252147e-05" pbc="T T T"
Hg       2.21383340       1.56541701       3.83447279       0.00000008       0.00000012       0.00000037
Hg       6.64150031       4.69625099      11.50341824      -0.00000005       0.00000020       0.00000021
Ir      -0.00000011       0.00000064       0.00000101       0.00000046      -0.00000778      -0.00001291
I        2.18886933       1.54776472       7.66894577       0.00445926       0.00315333      -0.00000054
I        6.66646478       4.71390306       7.66894524      -0.00445669      -0.00315171       0.00000018
I        5.54706530       1.54776507       5.73009025      -0.00222720       0.00315035       0.00385809
I        3.30826904       4.71390152       9.60779947       0.00222161      -0.00314180      -0.00384784
I        3.30826840       4.71390247       5.73009011       0.00222781      -0.00315066       0.00385825
I        5.54706547       1.54776518       9.60780029      -0.00222533       0.00314797      -0.00385578
