9
Lattice="5.789849298927782 -2.693789573971069e-07 3.342770733022454 1.9299496323535255 5.458721454082755 3.342770525146704 -3.767143675283496e-07 -5.209717850617209e-07 6.685542118533146" Properties=species:S:1:pos:R:3:forces:R:3 energy=-32.30195617675781 free_energy=-32.30195617675781 stress="-1.4161562830850016e-05 -1.4693708472179878e-08 2.8448665645441906e-08 -1.4693708472179878e-08 -1.4162931620376185e-05 1.6246847422962674e-08 2.8448665645441906e-08 1.6246847422962674e-08 -1.4183286111801863e-05" pbc="T T T"
Hg       1.92994915       1.36467959       3.34276993      -0.00000007       0.00000024       0.00000044
Hg       5.78984975       4.09404074      10.02831646      -0.00000037      -0.00000014      -0.00000072
Ir      -0.00000007       0.00000005      -0.00000045      -0.00000128      -0.00000486      -0.00002178
F        1.57137773       1.11113151       6.68554310       0.00053108       0.00037728      -0.00000395
F        6.14842074       4.34758876       6.68554047      -0.00052822      -0.00037372       0.00000106
F        5.00416065       1.11113211       4.70362324      -0.00026995       0.00037950       0.00046584
F        2.71563820       4.34758838       8.66745881       0.00026254      -0.00036916      -0.00045253
F        2.71563990       4.34759059       4.70362345       0.00026599      -0.00038025       0.00046444
F        5.00415828       1.11113079       8.66745895      -0.00025988       0.00037088      -0.00045282
