9
Lattice="6.286529562277243 9.215331441551539e-08 3.6295298736271064 2.095509948032834 5.926997293519464 3.629529861403269 9.682637395180014e-08 5.349555007340127e-08 7.259059579546165" Properties=species:S:1:pos:R:3:forces:R:3 energy=-19.276090621948242 free_energy=-19.276090621948242 stress="-0.00016293847875203937 -4.026753597230481e-09 6.190715939879965e-09 -4.026753597230481e-09 -0.00016291203792206943 -2.1744291700542817e-08 6.190715939879965e-09 -2.1744291700542817e-08 -0.00016296406101901084" pbc="T T T"
Hg       2.09550994       1.48174942       3.62952979      -0.00000019      -0.00000013      -0.00000010
Hg       6.28652983       4.44524833      10.88858979      -0.00000005       0.00000001      -0.00000001
In      -0.00000039      -0.00000114      -0.00000053       0.00000410       0.00000880       0.00000577
Cl       2.06575470       1.46070956       7.25905938       0.00233024       0.00164911       0.00000091
Cl       6.31628503       4.46628857       7.25906025      -0.00233775      -0.00165400      -0.00000041
Cl       5.25365165       1.46070937       5.41852655      -0.00116409       0.00164852       0.00201735
Cl       3.12838771       4.46628822       9.09959324       0.00116816      -0.00165179      -0.00202316
Cl       3.12838776       4.46628792       5.41852643       0.00116715      -0.00165081       0.00202042
Cl       5.25365215       1.46070934       9.09959274      -0.00116767       0.00165036      -0.00202069
