9
Lattice="6.520853811685871 -5.977001390728282e-08 3.76481676002998 2.1736179035530507 6.147919831506267 3.764816720753679 -1.659374586459133e-08 -5.983696776837958e-08 7.52963354880116" Properties=species:S:1:pos:R:3:forces:R:3 energy=-16.541301727294922 free_energy=-16.541301727294922 stress="8.201160380849615e-05 3.750246335698648e-09 8.0202227081827e-09 3.750246335698648e-09 8.201233140425757e-05 -1.735745946973566e-08 8.0202227081827e-09 -1.735745946973566e-08 8.203062316169962e-05" pbc="T T T"
Hg       2.17361792       1.53698003       3.76481677       0.00000011       0.00000011       0.00000010
Hg       6.52085369       4.61093968      11.29445025      -0.00000010      -0.00000006      -0.00000022
In      -0.00000024      -0.00000008      -0.00000052       0.00000068       0.00000171       0.00000603
Br       2.19606499       1.55285234       7.52963343      -0.00182086      -0.00128624       0.00000114
Br       6.49840682       4.59506743       7.52963346       0.00181761       0.00128499       0.00000116
Br       5.42282099       1.55285258       5.66666486       0.00091134      -0.00128829      -0.00157815
Br       3.27165029       4.59506777       9.39260251      -0.00090751       0.00128391       0.00157201
Br       3.27165069       4.59506718       5.66666503      -0.00091058       0.00128862      -0.00157708
Br       5.42282161       1.55285192       9.39260240       0.00090934      -0.00128484       0.00157517
