9
Lattice="6.222643489613566 -5.145003040313492e-07 3.592645044281949 2.0742141180754223 5.86676398323241 3.5926448596226446 2.6799405397392557e-07 -3.665998839876719e-08 7.185289624384094" Properties=species:S:1:pos:R:3:forces:R:3 energy=-24.103992462158203 free_energy=-24.103992462158203 stress="0.00018316504429094493 -1.0074936795945177e-07 3.276347015912506e-08 -1.0074936795945177e-07 0.00018321107199881226 -3.777779866709352e-08 3.276347015912506e-08 -3.777779866709352e-08 0.0001832948182709515" pbc="T T T"
Hg       2.07421493       1.46669076       3.59264497      -0.00000002       0.00000022      -0.00000017
Hg       6.22264323       4.40007274      10.77793414      -0.00000011      -0.00000017       0.00000013
Ir      -0.00000020      -0.00000035       0.00000046       0.00000242       0.00000785      -0.00001228
Cl       1.90742750       1.34875476       7.18528964      -0.00686184      -0.00485258      -0.00000027
Cl       6.38943073       4.51800893       7.18528980       0.00685802       0.00484896       0.00000110
Cl       5.26892925       1.34875488       5.24452623       0.00343262      -0.00485612      -0.00594610
Cl       3.02792872       4.51800859       9.12605327      -0.00343527       0.00485717       0.00595018
Cl       3.02792877       4.51800820       5.24452662      -0.00343429       0.00485659      -0.00594839
Cl       5.26892861       1.34875508       9.12605264       0.00343858      -0.00486201       0.00595546
