9
Lattice="6.346714124291309 1.2085720570034065e-10 3.6642771270913266 2.1155713742034226 5.983739471916469 3.664277128259247 4.606840259135598e-09 4.687928656854461e-09 7.328554246203363" Properties=species:S:1:pos:R:3:forces:R:3 energy=-21.345319747924805 free_energy=-21.345319747924805 stress="-0.00025755108799785376 -1.6184550588604907e-08 -1.0401620675892786e-09 -1.6184550588604907e-08 -0.00025754471425898373 2.7678708214295966e-09 -1.0401620675892786e-09 2.7678708214295966e-09 -0.0002575266407802701" pbc="T T T"
Hg       2.11557138       1.49593489       3.66427714      -0.00000004       0.00000005       0.00000007
Hg       6.34671414       4.48780460      10.99283138       0.00000007       0.00000004      -0.00000003
Ir      -0.00000019      -0.00000013       0.00000015       0.00000311       0.00000238       0.00000024
Br       2.03283024       1.43742808       7.32855424      -0.00427358      -0.00302203      -0.00000003
Br       6.42945540       4.54631148       7.32855426       0.00426971       0.00301952      -0.00000001
Br       5.33029908       1.43742802       5.42475972       0.00213700      -0.00302205      -0.00370124
Br       3.13198650       4.54631143       9.23234871      -0.00213659       0.00302199       0.00370108
Br       3.13198645       4.54631146       5.42475972      -0.00213663       0.00302196      -0.00370114
Br       5.33029904       1.43742808       9.23234870       0.00213693      -0.00302185       0.00370107
