9
Lattice="6.114352237476176 4.5646294416108363e-07 3.530123266604951 2.038117626265361 5.764665978826971 3.5301236417393023 -2.367197139840175e-07 2.9205810403608857e-07 7.060246943220393" Properties=species:S:1:pos:R:3:forces:R:3 energy=-35.62702560424805 free_energy=-35.62702560424805 stress="3.277735686424421e-06 -4.4978001767503883e-08 -1.5476670611747068e-08 -4.4978001767503883e-08 3.2726984500186518e-06 -3.414999483197789e-08 -1.5476670611747068e-08 -3.414999483197789e-08 3.258488277424476e-06" pbc="T T T"
Hg       2.03811777       1.44116724       3.53012309      -0.00000010      -0.00000072       0.00000046
Hg       6.11435199       4.32349889      10.59037391      -0.00000028       0.00000100      -0.00000186
Mo      -0.00000034      -0.00000012       0.00000089       0.00000912       0.00001136      -0.00000471
F        1.57558983       1.11411110       7.06024408      -0.00181325      -0.00128127       0.00000492
F        6.57687958       4.65055552       7.06024556       0.00180432       0.00127596       0.00000395
F        5.32655585       1.11411273       4.89462436       0.00090962      -0.00128673      -0.00156914
F        2.82591237       4.65055616       9.22586980      -0.00090387       0.00127704       0.00156404
F        2.82591485       4.65055463       4.89462410      -0.00090986       0.00128489      -0.00156708
F        5.32655677       1.11411087       9.22586956       0.00090439      -0.00128148       0.00156975
