9
Lattice="6.470793463044436 1.9027544394731338e-07 3.735915526745443 2.1569313507348324 6.100722324393341 3.7359154973125217 1.738676018961315e-07 8.689502242838796e-08 7.471830752343322" Properties=species:S:1:pos:R:3:forces:R:3 energy=-25.729351043701172 free_energy=-25.729351043701172 stress="-0.00010605427814880386 3.2302253316629503e-08 -8.180807697932835e-10 3.2302253316629503e-08 -0.00010614090570015833 -8.827871766925455e-09 -8.180807697932835e-10 -8.827871766925455e-09 -0.00010601872781990096" pbc="T T T"
Hg       2.15693138       1.52518057       3.73591554       0.00000003       0.00000036       0.00000002
Hg       6.47079378       4.57554234      11.20774645      -0.00000003      -0.00000034      -0.00000009
Mn      -0.00000012      -0.00000016      -0.00000030      -0.00000183      -0.00000339       0.00000615
Cl       1.82856499       1.29298816       7.47183091       0.00568485       0.00402263      -0.00000028
Cl       6.79915971       4.80773286       7.47183080      -0.00567785      -0.00401753      -0.00000039
Cl       5.55651246       1.29298962       5.31949834      -0.00284331       0.00402196       0.00492164
Cl       3.07121262       4.80773363       9.62416280       0.00284238      -0.00402424      -0.00492029
Cl       3.07121287       4.80773330       5.31949928       0.00284050      -0.00402230       0.00491689
Cl       5.55651241       1.29299022       9.62416362      -0.00284468       0.00402293      -0.00492376
