9
Lattice="5.111700725300088 -2.2531156840856988e-07 2.951241444067732 1.703900051372679 4.819357503402358 2.9512414059075907 -1.417824501986539e-07 -1.469918671988076e-07 5.902483133709913" Properties=species:S:1:pos:R:3:forces:R:3 energy=-33.91807556152344 free_energy=-33.91807556152344 stress="0.00023860773944761604 2.345755767407809e-08 3.2117434045630944e-08 2.345755767407809e-08 0.00023870232689660043 -1.2471748078723977e-08 3.2117434045630944e-08 -1.2471748078723977e-08 0.0002385448315180838" pbc="T T T"
Hg       1.70390022       1.20483945       2.95124152       0.00000097       0.00000152       0.00000104
Hg       5.11170117       3.61451846       8.85372556       0.00000116      -0.00000005       0.00000206
Mn       0.00000013      -0.00000010       0.00000013       0.00000386       0.00000527       0.00000409
F        1.52952362       1.08153668       5.90248230      -0.00180942      -0.00128086       0.00000181
F        5.28607791       3.73782049       5.90248206       0.00179884       0.00127439       0.00000185
F        4.34693840       1.08153648       4.27584718       0.00090291      -0.00127861      -0.00156111
F        2.46866073       3.73782130       7.52911870      -0.00089674       0.00127125       0.00155644
F        2.46866147       3.73782024       4.27584754      -0.00090232       0.00128001      -0.00156441
F        4.34693869       1.08153568       7.52911893       0.00090066      -0.00127327       0.00155826
