9
Lattice="6.948457333839177 -7.016994577431224e-10 4.011693692294688 2.3161524434463603 6.5510683711059485 4.011693693169605 3.18963034223148e-09 3.3269634004938906e-09 8.023387379064776" Properties=species:S:1:pos:R:3:forces:R:3 energy=-21.023578643798828 free_energy=-21.023578643798828 stress="0.00020649276848416775 5.063003349903283e-09 2.28052066120199e-09 5.063003349903283e-09 0.0002065021253656596 -3.6254790281020632e-09 2.28052066120199e-09 -3.6254790281020632e-09 0.00020647647033911198" pbc="T T T"
Hg       2.31615243       1.63776706       4.01169368      -0.00000024       0.00000023      -0.00000024
Hg       6.94845733       4.91330133      12.03508108       0.00000024      -0.00000031       0.00000019
Mo       0.00000005      -0.00000008       0.00000001       0.00000157       0.00000115       0.00000285
I        2.26259849       1.59989879       8.02338738       0.00395185       0.00279444       0.00000012
I        7.00201128       4.95116969       8.02338737      -0.00395343      -0.00279555       0.00000024
I        5.81715807       1.59989877       5.97116147      -0.00197589       0.00279434       0.00342211
I        3.44745170       4.95116960      10.07561328       0.00197648      -0.00279586      -0.00342365
I        3.44745170       4.95116958       5.97116150       0.00197592      -0.00279416       0.00342210
I        5.81715807       1.59989876      10.07561330      -0.00197650       0.00279579      -0.00342390
