9
Lattice="4.629636118278123 2.2510347807986484e-08 2.67292165774239 1.5432120502576854 4.364862863168441 2.6729216757406693 1.0558120649082689e-08 2.9509000689505608e-08 5.345843297197522" Properties=species:S:1:pos:R:3:forces:R:3 energy=-29.313823699951172 free_energy=-29.313823699951172 stress="-4.8910191253526136e-05 -4.3876436706113964e-08 -1.7953174946683248e-08 -4.3876436706113964e-08 -4.89906087750569e-05 2.8026814202775086e-09 -1.7953174946683248e-08 2.8026814202775086e-09 -4.8900990805123e-05" pbc="T T T"
Hg       1.54321210       1.09121596       2.67292178      -0.00000045       0.00000021       0.00000159
Hg       4.62963606       3.27364680       8.01876520       0.00000056      -0.00000100       0.00000217
Mg      -0.00000015      -0.00000022       0.00000017       0.00000313       0.00000115       0.00001093
F        1.54333192       1.09130038       5.34584317      -0.00309537      -0.00219088       0.00000092
F        4.62951606       3.27356276       5.34584300       0.00309484       0.00219117       0.00000053
F        3.85797020       1.09130108       4.00948646       0.00155142      -0.00219514      -0.00268833
F        2.31487785       3.27356231       6.68220013      -0.00154777       0.00218732       0.00268160
F        2.31487805       3.27356197       4.00948658      -0.00155346       0.00219280      -0.00268824
F        3.85797065       1.09130053       6.68219993       0.00154699      -0.00218533       0.00267879
