9
Lattice="6.928533901587271 4.128217651509242e-08 4.000190996748691 2.309511423587745 6.532284433299556 4.000190851018383 2.1965685960875073e-07 -2.3161574912039545e-08 8.000381613040476" Properties=species:S:1:pos:R:3:forces:R:3 energy=-13.40736198425293 free_energy=-13.40736198425293 stress="4.531644663074985e-05 5.161686189580905e-09 1.429477203274132e-09 5.161686189580905e-09 4.529931175056845e-05 1.4082537802551087e-08 1.429477203274132e-09 1.4082537802551087e-08 4.5312201109481975e-05" pbc="T T T"
Hg       2.30951148       1.63307101       4.00019076       0.00000014      -0.00000037      -0.00000055
Hg       6.92853397       4.89921359      12.00057286      -0.00000012       0.00000035       0.00000075
Mg       0.00000009      -0.00000009       0.00000016      -0.00000015       0.00000010      -0.00000053
I        2.38149208       1.68396870       8.00038201      -0.00152133      -0.00107653      -0.00000011
I        6.85655350       4.84831569       8.00038154       0.00152126       0.00107646      -0.00000078
I        5.73778832       1.68396909       6.06262292       0.00075967      -0.00107503      -0.00131817
I        3.50025757       4.84831497       9.93814032      -0.00076069       0.00107637       0.00131884
I        3.50025742       4.84831605       6.06262331      -0.00076064       0.00107537      -0.00131702
I        5.73778777       1.68396886       9.93813991       0.00076180      -0.00107668       0.00131755
