9
Lattice="6.91772275383591 -2.7246345334069473e-07 3.9939494352503737 2.305907126312764 6.5220919880758315 3.993949784117582 -2.2466535173560927e-07 2.6841094756195236e-07 7.987899259632608" Properties=species:S:1:pos:R:3:forces:R:3 energy=-19.751047134399414 free_energy=-19.751047134399414 stress="-4.358756996225566e-05 -6.353807435743875e-08 -1.1602140581601361e-08 -6.353807435743875e-08 -4.3564294173847884e-05 1.7996535817133008e-08 -1.1602140581601361e-08 1.7996535817133008e-08 -4.3526164517970756e-05" pbc="T T T"
Hg       2.30590735       1.63052242       3.99394981       0.00000023      -0.00000011       0.00000055
Hg       6.91772162       4.89156908      11.98184849       0.00000006       0.00000032       0.00000047
Mn       0.00000352       0.00000265       0.00000603      -0.00004395      -0.00003072      -0.00007412
I        2.10315222       1.48715314       7.98789976      -0.00077215      -0.00054416      -0.00000032
I        7.12047337       5.03493599       7.98789815       0.00081778       0.00057831      -0.00000109
I        5.86614438       1.48715452       5.81533566       0.00039041      -0.00055321      -0.00067830
I        3.35748768       5.03493519      10.16046085      -0.00041375       0.00058320       0.00071263
I        3.35748458       5.03493687       5.81533413      -0.00039038       0.00054911      -0.00067303
I        5.86614384       1.48715817      10.16046090       0.00041181      -0.00058274       0.00071329
