9
Lattice="6.66523891943754 3.516135323345262e-07 3.8481773576189524 2.221746551440678 6.284047899588706 3.848177507516112 1.7182846718748864e-08 1.957356741429486e-07 7.69635468547635" Properties=species:S:1:pos:R:3:forces:R:3 energy=-27.79347038269043 free_energy=-27.79347038269043 stress="-0.0002695384609978646 4.724398650068906e-08 -8.783598293149453e-10 4.724398650068906e-08 -0.0002696017036214471 6.5204401877849705e-09 -8.783598293149453e-10 6.5204401877849705e-09 -0.00026958424132317305" pbc="T T T"
Hg       2.22174664       1.57101173       3.84817726      -0.00000024       0.00000046      -0.00000002
Hg       6.66523854       4.71303629      11.54453193       0.00000030      -0.00000019       0.00000016
Mo       0.00000047      -0.00000071      -0.00000106      -0.00000748       0.00001076       0.00000757
Cl       1.92595439       1.36185455       7.69635511       0.00687531       0.00486340      -0.00000164
Cl       6.96103154       4.92219427       7.69635476      -0.00687599      -0.00486428      -0.00000070
Cl       5.70226259       1.36185395       5.51610229      -0.00343880       0.00486492       0.00595406
Cl       3.18472301       4.92219392       9.87660821       0.00344299      -0.00486991      -0.00596318
Cl       3.18472258       4.92219507       5.51610177       0.00344247      -0.00487068       0.00596079
Cl       5.70226214       1.36185487       9.87660807      -0.00343841       0.00486542      -0.00595698
