9
Lattice="7.1564022795032285 -3.777702002810161e-07 4.131751168816137 2.3854671142617407 6.747118745154585 4.131751092734581 -1.4953070742257566e-08 -1.037538817378122e-07 8.263502363531746" Properties=species:S:1:pos:R:3:forces:R:3 energy=-23.342187881469727 free_energy=-23.342187881469727 stress="-3.8821475754957646e-05 -3.127765069166344e-08 6.150381537395333e-09 -3.127765069166344e-08 -3.877593917422928e-05 6.086833703733419e-09 6.150381537395333e-09 6.086833703733419e-09 -3.874068715958856e-05" pbc="T T T"
Hg       2.38546646       1.68677992       4.13175150       0.00000028      -0.00000041       0.00000001
Hg       7.15640276       5.06033886      12.39525320      -0.00000024       0.00000032      -0.00000006
Mn      -0.00000019      -0.00000067       0.00000062       0.00000419      -0.00000209       0.00000421
Br       1.88944548       1.33604004       8.26350265       0.00150403       0.00106152       0.00000049
Br       7.65242270       5.41107789       8.26350259      -0.00150034      -0.00106192       0.00000186
Br       6.21167856       1.33604049       5.76805955      -0.00074758       0.00105466       0.00129595
Br       3.33018946       5.41107963      10.75894310       0.00075026      -0.00106097      -0.00129402
Br       3.33019186       5.41107758       5.76806039       0.00074312      -0.00105402       0.00129072
Br       6.21168038       1.33603910      10.75894475      -0.00075380       0.00106283      -0.00129909
