9
Lattice="6.4688091690509175 3.0249961382030084e-07 3.7347690030376337 2.156269891704337 6.098851680944399 3.7347692048425456 -1.7315268481597922e-07 1.2472213878360137e-07 7.469538305984485" Properties=species:S:1:pos:R:3:forces:R:3 energy=-25.729368209838867 free_energy=-25.729368209838867 stress="-3.894012024829863e-06 1.91000744109715e-08 2.5191168262495012e-08 1.91000744109715e-08 -3.933302195946453e-06 -1.9754516245029663e-08 2.5191168262495012e-08 -1.9754516245029663e-08 -3.896158432326047e-06" pbc="T T T"
Hg       2.15626990       1.52471208       3.73476965      -0.00000001       0.00000024      -0.00000017
Hg       6.46880902       4.57413905      11.20430791      -0.00000005      -0.00000012      -0.00000007
Mn       0.00000007       0.00000015       0.00000028      -0.00000083      -0.00000023      -0.00000010
Cl       1.82926232       1.29348450       7.46953762       0.00012738       0.00009055       0.00000189
Cl       6.79581609       4.80536865       7.46953688      -0.00012523      -0.00009081       0.00000369
Cl       5.55417764       1.29348385       5.31895751      -0.00006473       0.00009137       0.00011042
Cl       3.07090122       4.80536840       9.62011972       0.00006633      -0.00009504      -0.00011316
Cl       3.07090178       4.80536809       5.31895761       0.00006126      -0.00008947       0.00010759
Cl       5.55417755       1.29348376       9.62011947      -0.00006419       0.00009346      -0.00010999
