9
Lattice="6.721384760867731 -1.521258184045759e-07 3.880593591253726 2.2404615466256397 6.336982420358274 3.8805934126872725 2.4040991827062744e-07 -4.870284301427977e-08 7.7611867661053" Properties=species:S:1:pos:R:3:forces:R:3 energy=-24.327543258666992 free_energy=-24.327543258666992 stress="-0.0001806076616048813 -6.15018933558531e-08 2.943811594491308e-08 -6.15018933558531e-08 -0.00018055079272016883 -4.465988112656305e-08 2.943811594491308e-08 -4.465988112656305e-08 -0.00018051550432574004" pbc="T T T"
Hg       2.24046153       1.58424580       3.88059353       0.00000008      -0.00000042      -0.00000006
Hg       6.72138489       4.75273651      11.64178019      -0.00000042       0.00000038      -0.00000045
Mo      -0.00000262       0.00000033      -0.00000254       0.00003984      -0.00000319       0.00004506
Br       2.05311819       1.45177392       7.76118625      -0.00734897      -0.00519738       0.00000210
Br       6.90873050       4.88520953       7.76118662       0.00732084       0.00517678       0.00000180
Br       5.69482540       1.45177433       5.65864611       0.00367465      -0.00519557      -0.00636081
Br       3.26702011       4.88520892       9.86372871      -0.00366405       0.00518421       0.00635046
Br       3.26702173       4.88520670       5.65864729      -0.00368344       0.00521187      -0.00638010
Br       5.69482656       1.45177290       9.86372895       0.00366144      -0.00517674       0.00634209
