9
Lattice="6.911837898922709 -1.4523896522120403e-07 3.990551716645129 2.3039458739588876 6.516543431950529 3.9905516394238076 -8.086221196482864e-08 -1.517546306189923e-07 7.981103573347785" Properties=species:S:1:pos:R:3:forces:R:3 energy=-19.7509765625 free_energy=-19.7509765625 stress="-0.00011976537643931806 -2.455612246876626e-08 1.1646440256640744e-08 -2.455612246876626e-08 -0.00011974673543591052 -1.0860786048283444e-08 1.1646440256640744e-08 -1.0860786048283444e-08 -0.00011972752690780908" pbc="T T T"
Hg       2.30394555       1.62913593       3.99055122      -0.00000003       0.00000020      -0.00000008
Hg       6.91183764       4.88740580      11.97165519      -0.00000018      -0.00000038      -0.00000011
Mn       0.00000019       0.00000015       0.00000063      -0.00000748      -0.00000142      -0.00000347
I        2.10308542       1.48710609       7.98110382       0.00155616       0.00109978      -0.00000093
I        7.11269764       5.02943574       7.98110313      -0.00154710      -0.00109249       0.00000122
I        5.86029521       1.48710812       5.81187878      -0.00077629       0.00109364       0.00134131
I        3.35548881       5.02943632      10.15032838       0.00077483      -0.00109543      -0.00134188
I        3.35549003       5.02943658       5.81187944       0.00077312      -0.00109555       0.00134122
I        5.86029414       1.48710796      10.15032723      -0.00077294       0.00109173      -0.00133726
