9
Lattice="6.35703709026022 -1.0912111266386874e-07 3.6702371167604095 2.1190122761311914 5.993472195135656 3.670237089755158 -9.9407457024894e-10 -3.37774517429382e-08 7.340474235242621" Properties=species:S:1:pos:R:3:forces:R:3 energy=-15.941998481750488 free_energy=-15.941998481750488 stress="0.00014244367775972933 2.7954818460074193e-09 -2.420576850070688e-09 2.7954818460074193e-09 0.00014245699276216328 9.497176378658878e-09 -2.420576850070688e-09 9.497176378658878e-09 0.00014246457430999726" pbc="T T T"
Hg       2.11901247       1.49836799       3.67023712       0.00000018       0.00000026       0.00000036
Hg       6.35703700       4.49510408      11.01071137       0.00000004       0.00000039       0.00000039
Mg       0.00000048       0.00000072       0.00000101      -0.00000354       0.00000056      -0.00000657
Br       2.15228301       1.52189355       7.34047426      -0.00299694      -0.00211854      -0.00000071
Br       6.32376644       4.47157798       7.34047436       0.00300042       0.00212216      -0.00000137
Br       5.28089572       1.52189344       5.53416868       0.00149757      -0.00211859      -0.00259550
Br       3.19515378       4.47157793       9.14677955      -0.00150109       0.00212081       0.00259705
Br       3.19515346       4.47157829       5.53416797      -0.00149752       0.00211687      -0.00259319
Br       5.28089516       1.52189422       9.14677936       0.00150090      -0.00212391       0.00259963
