9
Lattice="6.164037096916836 -1.361020943798144e-07 3.558808361182553 2.0546789579165488 5.811509720907963 3.5588082677743267 8.658592656000065e-08 -5.317574965546834e-08 7.117616572393922" Properties=species:S:1:pos:R:3:forces:R:3 energy=-17.58675193786621 free_energy=-17.58675193786621 stress="-1.1681581781886052e-05 -1.1329303717388939e-08 5.356225241115453e-09 -1.1329303717388939e-08 -1.1693290616676677e-05 -1.248501857453732e-09 5.356225241115453e-09 -1.248501857453732e-09 -1.168839844467584e-05" pbc="T T T"
Hg       2.05467904       1.45287744       3.55880830      -0.00000032       0.00000003       0.00000017
Hg       6.16403712       4.35863200      10.67642489       0.00000008       0.00000005      -0.00000010
Ni      -0.00000049       0.00000010      -0.00000030       0.00000635       0.00000065       0.00000327
Br       1.97432507       1.39605815       7.11761667       0.00034082       0.00024205      -0.00000046
Br       6.24439160       4.41545150       7.11761643      -0.00034651      -0.00024591       0.00000069
Br       5.17687455       1.39605845       5.26862344      -0.00017056       0.00024259       0.00029847
Br       3.04184127       4.41545108       8.96660994       0.00017187      -0.00024274      -0.00029904
Br       3.04184182       4.41545120       5.26862345       0.00016993      -0.00024141       0.00029704
Br       5.17687457       1.39605820       8.96660985      -0.00017172       0.00024486      -0.00029993
