9
Lattice="6.556295767100747 3.2021426457005e-08 3.785278958729424 2.185431911819113 6.181335214952235 3.7852790292895144 -5.636170461521132e-08 4.656442409614138e-08 7.570558015080095" Properties=species:S:1:pos:R:3:forces:R:3 energy=-15.20048713684082 free_energy=-15.20048713684082 stress="0.00022890939726494253 3.173534102174358e-09 -5.706432659735583e-09 3.173534102174358e-09 0.00022892981360200793 -4.812617859784041e-09 -5.706432659735583e-09 -4.812617859784041e-09 0.00022892509878147393" pbc="T T T"
Hg       2.18543176       1.54533377       3.78527893      -0.00000007      -0.00000003       0.00000034
Hg       6.55629590       4.63600147      11.35583737       0.00000017       0.00000010       0.00000021
Ni      -0.00000001       0.00000005      -0.00000013      -0.00000018      -0.00000066      -0.00000104
I        2.19485368       1.55199629       7.57055809       0.00101328       0.00071591       0.00000002
I        6.54687394       4.62933915       7.57055778      -0.00101385      -0.00071576       0.00000084
I        5.45886966       1.55199609       5.68607769      -0.00050639       0.00071654       0.00087726
I        3.28285796       4.62933911       9.45503818       0.00050712      -0.00071639      -0.00087751
I        3.28285830       4.62933932       5.68607771       0.00050664      -0.00071672       0.00087780
I        5.45886933       1.55199589       9.45503836      -0.00050665       0.00071700      -0.00087789
