9
Lattice="6.163828503931298 -2.1365567232126445e-07 3.558687834044741 2.0546093789264805 5.811312898441305 3.558687697121635 2.8359841675959333e-09 -1.6569045888535324e-07 7.117375663177335" Properties=species:S:1:pos:R:3:forces:R:3 energy=-17.586742401123047 free_energy=-17.586742401123047 stress="-0.00010067260154755786 -6.174710520667759e-09 -6.979650191141218e-09 -6.174710520667759e-09 -0.00010066630056826398 4.3726240406272154e-09 -6.979650191141218e-09 4.3726240406272154e-09 -0.00010066181857837364" pbc="T T T"
Hg       2.05460930       1.45282804       3.55868788      -0.00000012      -0.00000031       0.00000056
Hg       6.16382859       4.35848442      10.67606337       0.00000009       0.00000022      -0.00000044
Ni       0.00000052       0.00000007       0.00000014      -0.00000285       0.00000164      -0.00000336
Br       1.97385281       1.39572461       7.11737561       0.00407523       0.00288145       0.00000006
Br       6.24458527       4.41558820       7.11737563      -0.00407541      -0.00288282      -0.00000072
Br       5.17690189       1.39572425       5.26809410      -0.00203641       0.00288242       0.00352940
Br       3.04153584       4.41558789       8.96665715       0.00203709      -0.00288072      -0.00352761
Br       3.04153565       4.41558841       5.26809398       0.00203863      -0.00288242       0.00352982
Br       5.17690168       1.39572426       8.96665689      -0.00203620       0.00288042      -0.00352791
