9
Lattice="6.96158405795565 4.413445630476133e-08 4.019272703809814 2.3205281107479583 6.563444224747992 4.019272617520275 4.678131291663832e-08 -7.260327346009329e-08 8.038545326591839" Properties=species:S:1:pos:R:3:forces:R:3 energy=-29.65857696533203 free_energy=-29.65857696533203 stress="-2.8073345674783923e-06 -5.137302583335668e-09 -3.04045570942435e-08 -5.137302583335668e-09 -2.833645794453332e-06 3.0420416408105666e-08 -3.04045570942435e-08 3.0420416408105666e-08 -2.7751102606998757e-06" pbc="T T T"
Hg       2.32052833       1.64086092       4.01927268      -0.00000007       0.00000009      -0.00000035
Hg       6.96158425       4.92258372      12.05781741      -0.00000032      -0.00000009       0.00000019
Nb       0.00000006      -0.00000003      -0.00000024      -0.00000001       0.00000010      -0.00000192
Cl       1.94642540       1.37632988       8.03854526      -0.00033274      -0.00023336      -0.00000001
Cl       7.33568725       5.18711385       8.03854567       0.00033148       0.00023298      -0.00000092
Cl       5.98837112       1.37632951       5.70492687       0.00016780      -0.00023414      -0.00029071
Cl       3.29374089       5.18711438      10.37216393      -0.00016835       0.00023649       0.00029230
Cl       3.29374021       5.18711448       5.70492654      -0.00016374       0.00023102      -0.00028634
Cl       5.98837156       1.37632986      10.37216448       0.00016601      -0.00023311       0.00028768
