9
Lattice="5.874985599086148 -2.396487127222126e-07 3.3919246931673253 1.9583282649172762 5.538990369815199 3.391924766205223 -2.1582232859970434e-07 -6.315660529924385e-08 6.783849760149715" Properties=species:S:1:pos:R:3:forces:R:3 energy=-19.683074951171875 free_energy=-19.683074951171875 stress="7.533644384238869e-05 1.1828875656760829e-08 1.2185717324086909e-08 1.1828875656760829e-08 7.548570283688605e-05 7.772106513925792e-09 1.2185717324086909e-08 7.772106513925792e-09 7.541460217908025e-05" pbc="T T T"
Hg       1.95832870       1.38474741       3.39192480       0.00000022       0.00000000       0.00000052
Hg       5.87498474       4.15424262      10.17577462       0.00000008      -0.00000005      -0.00000026
Ni      -0.00000041       0.00000042      -0.00000021       0.00000202      -0.00000548       0.00000133
Cl       1.88618709       1.33373939       6.78384912      -0.00649229      -0.00459829       0.00000043
Cl       5.94712402       4.20525179       6.78384990       0.00650021       0.00460091       0.00000038
Cl       4.93189195       1.33373774       5.02541361       0.00324503      -0.00459746      -0.00562671
Cl       2.90142266       4.20525172       8.54228621      -0.00324894       0.00459695       0.00563049
Cl       2.90142327       4.20525175       5.02541301      -0.00324911       0.00459865      -0.00563130
Cl       4.93189219       1.33373727       8.54228569       0.00324266      -0.00459567       0.00562513
