9
Lattice="7.116311784592659 -1.8254875072975374e-07 4.108603802236953 2.3721037406380305 6.709322418182705 4.108603828998291 2.538944010410358e-08 5.072897873594446e-08 8.217207560498007" Properties=species:S:1:pos:R:3:forces:R:3 energy=-25.899072647094727 free_energy=-25.899072647094727 stress="-2.1859117623534985e-05 -1.848238717627737e-08 2.0156054603148732e-08 -1.848238717627737e-08 -2.1894098608754575e-05 -8.846530619166515e-09 2.0156054603148732e-08 -8.846530619166515e-09 -2.1907011614530347e-05" pbc="T T T"
Hg       2.37210413       1.67733041       4.10860452      -0.00000016       0.00000012       0.00000023
Hg       7.11631143       5.03199180      12.32581020       0.00000008      -0.00000029      -0.00000000
Nb       0.00000016       0.00000013       0.00000009       0.00000463      -0.00000028      -0.00000923
Br       2.07921935       1.47022868       8.21720774       0.00385926       0.00273067      -0.00000103
Br       7.40919654       5.23909355       8.21720732      -0.00386244      -0.00273345      -0.00000028
Br       6.07670193       1.47022921       5.90925859      -0.00193245       0.00273460       0.00334942
Br       3.41171422       5.23909250      10.52515623       0.00192751      -0.00272723      -0.00334186
Br       3.41171346       5.23909312       5.90925940       0.00193021      -0.00273251       0.00334625
Br       6.07670087       1.47022949      10.52515629      -0.00192671       0.00272836      -0.00334352
