9
Lattice="7.506573974200135 2.2652644715092686e-08 4.333922480573251 2.5021913385056775 7.077266205814283 4.3339224937109115 3.637949777018668e-08 4.181402985588672e-08 8.667844898136172" Properties=species:S:1:pos:R:3:forces:R:3 energy=-22.122657775878906 free_energy=-22.122657775878906 stress="-3.255364163123886e-06 5.65958480081008e-08 -1.1857525628045096e-08 5.65958480081008e-08 -3.283617616034462e-06 1.0376126624578319e-08 -1.1857525628045096e-08 1.0376126624578319e-08 -3.3337737477268092e-06" pbc="T T T"
Hg       2.50219057       1.76931641       4.33392116      -0.00000008       0.00000009      -0.00000006
Hg       7.50657493       5.30794990      13.00176863       0.00000013       0.00000002       0.00000017
Nb       0.00000017       0.00000050      -0.00000057      -0.00000668      -0.00000459       0.00001244
I        2.26821037       1.60386713       8.66784427       0.00028549       0.00020157       0.00000116
I        7.74055396       5.47339756       8.66784493      -0.00027746      -0.00019559       0.00000022
I        6.37246916       1.60386780       6.29825029      -0.00014215       0.00020044       0.00024652
I        3.63629626       5.47340028      11.03744034       0.00014620      -0.00020777      -0.00025415
I        3.63629609       5.47339897       6.29824959       0.00014319      -0.00020236       0.00024910
I        6.37246982       1.60386631      11.03744062      -0.00014863       0.00020814      -0.00025542
