9
Lattice="7.50181808725939 3.3043834623479655e-07 4.3311763054756796 2.5006061879275667 7.072783195199513 4.331176569958986 -1.6454639081236586e-07 2.0757189135937374e-07 8.662352895954019" Properties=species:S:1:pos:R:3:forces:R:3 energy=-22.12264633178711 free_energy=-22.12264633178711 stress="-6.285099971137242e-06 -4.986942059304056e-08 -1.1369990282616982e-08 -4.986942059304056e-08 -6.240883521968499e-06 1.9929604633261988e-08 -1.1369990282616982e-08 1.9929604633261988e-08 -6.212948846950894e-06" pbc="T T T"
Hg       2.50060577       1.76819546       4.33117689      -0.00000007       0.00000014       0.00000101
Hg       7.50181831       5.30458855      12.99352815       0.00000007       0.00000019       0.00000080
Nb       0.00000073       0.00000098       0.00000754      -0.00001332      -0.00001084      -0.00007989
I        2.26831528       1.60394196       8.66235321      -0.00101198      -0.00071582      -0.00000287
I        7.73410725       5.46883996       8.66235321       0.00102796       0.00072762      -0.00000227
I        6.36766033       1.60394234       6.29559552       0.00050062      -0.00070973      -0.00087085
I        3.63476602       5.46883756      11.02910649      -0.00052861       0.00074689       0.00091232
I        3.63476433       5.46884201       6.29559549      -0.00050043       0.00070658      -0.00086772
I        6.36765820       1.60394613      11.02910635       0.00052582      -0.00074507       0.00090937
