9
Lattice="5.8774412988065015 5.2295323063821716e-08 3.3933423505412077 1.959147154925084 5.541305493911587 3.393342340116886 -6.709521235103982e-08 -6.021040994174008e-08 6.786684817294615" Properties=species:S:1:pos:R:3:forces:R:3 energy=-19.683086395263672 free_energy=-19.683086395263672 stress="-2.1669864509021863e-05 2.38066100166634e-08 4.3846224428989444e-09 2.38066100166634e-08 -2.16392072616145e-05 5.2217217216821155e-09 4.3846224428989444e-09 5.2217217216821155e-09 -2.166609738196712e-05" pbc="T T T"
Hg       1.95914795       1.38532649       3.39334218       0.00000013       0.00000002      -0.00000058
Hg       5.87744155       4.15597844      10.18002602       0.00000009      -0.00000191      -0.00000136
Ni      -0.00000055       0.00000006       0.00000058       0.00000546       0.00000222      -0.00000212
Cl       1.88475276       1.33272166       6.78668462       0.00469932       0.00332162       0.00000083
Cl       5.95183591       4.20858536       6.78668436      -0.00470543      -0.00332597       0.00000183
Cl       4.93506556       1.33272059       5.02558573      -0.00234959       0.00332528       0.00407311
Cl       2.90152192       4.20858466       8.54778459       0.00235063      -0.00332537      -0.00407156
Cl       2.90152276       4.20858419       5.02558506       0.00235075      -0.00332269       0.00407168
Cl       4.93506574       1.33272059       8.54778466      -0.00235146       0.00332698      -0.00407150
