9
Lattice="6.959102822589944 1.0924164549632489e-07 4.017839917507943 2.3197010063281405 6.561104853257224 4.01783998251065 1.05656912643361e-07 1.5432242807523803e-07 8.035679652012597" Properties=species:S:1:pos:R:3:forces:R:3 energy=-29.658573150634766 free_energy=-29.658573150634766 stress="-3.027707862202078e-05 5.559993354609105e-09 -4.274964382489088e-09 5.559993354609105e-09 -3.0273111406131648e-05 1.1645652220337865e-09 -4.274964382489088e-09 1.1645652220337865e-09 -3.025385558430571e-05" pbc="T T T"
Hg       2.31970096       1.64027705       4.01784000       0.00000001       0.00000007       0.00000009
Hg       6.95910362       4.92082954      12.05351941      -0.00000033      -0.00000009      -0.00000017
Nb       0.00000012       0.00000027      -0.00000018      -0.00000011      -0.00000798      -0.00000086
Cl       1.94635175       1.37627872       8.03568002       0.00044873       0.00031654       0.00000028
Cl       7.33245190       5.18482624       8.03567961      -0.00044522      -0.00031492      -0.00000040
Cl       5.98592698       1.37627816       5.70343024      -0.00022423       0.00031727       0.00038725
Cl       3.29287695       5.18482659      10.36792942       0.00022232      -0.00031456      -0.00038335
Cl       3.29287658       5.18482610       5.70343030       0.00022352      -0.00031443       0.00038443
Cl       5.98592694       1.37627782      10.36792937      -0.00022475       0.00031806      -0.00038736
