9
Lattice="4.618031130677953 -1.3278481305903255e-07 2.6662215877565347 1.5393436492827788 4.35392125669745 2.666221476476519 1.23082331836676e-07 -4.925729097435617e-08 5.332442962328202" Properties=species:S:1:pos:R:3:forces:R:3 energy=-27.080707550048828 free_energy=-27.080707550048828 stress="-0.00030031404457986355 -5.5483845073922566e-08 4.706669542997588e-08 -5.5483845073922566e-08 -0.00030030403286218643 1.4687707938776384e-08 4.706669542997588e-08 1.4687707938776384e-08 -0.0003002821758855134" pbc="T T T"
Hg       1.53934355       1.08848023       2.66622167       0.00000036      -0.00000016       0.00000015
Hg       4.61803089       3.26544094       7.99866486      -0.00000009      -0.00000091       0.00000257
Ni       0.00000071      -0.00000159       0.00000130      -0.00001503       0.00004620      -0.00003702
F        1.51135311       1.06868764       5.33244325       0.00751922       0.00531594      -0.00000168
F        4.64602227       3.28523376       5.33244263      -0.00753298      -0.00532575       0.00000183
F        3.86235492       1.06868803       3.97509139      -0.00376086       0.00531670       0.00651354
F        2.29502020       3.28523323       6.68979447       0.00376309      -0.00531894      -0.00651821
F        2.29501974       3.28523407       3.97509047       0.00377317      -0.00533646       0.00653573
F        3.86235415       1.06868803       6.68979404      -0.00374702       0.00530357      -0.00649684
