9
Lattice="6.358399030586764 3.274682818356568e-08 3.6710226703580853 2.1194664199360056 5.994754916917283 3.6710225914921506 2.50544869899564e-08 -7.88742643109461e-08 7.342045297320359" Properties=species:S:1:pos:R:3:forces:R:3 energy=-42.067474365234375 free_energy=-42.067474365234375 stress="-1.1172492122568656e-05 -8.147119956447568e-08 1.6144873882240063e-08 -8.147119956447568e-08 -1.1193622412974946e-05 -2.531373688441363e-08 1.6144873882240063e-08 -2.531373688441363e-08 -1.1122307114419527e-05" pbc="T T T"
Hg       2.11946876       1.49868665       3.67102168      -0.00000026       0.00000047       0.00000017
Hg       6.35839957       4.49606525      11.01306748      -0.00000098       0.00000040       0.00000063
Nb      -0.00000061       0.00000002       0.00000009       0.00002129       0.00000702       0.00000087
F        1.57908192       1.11658013       7.34204547       0.00005267       0.00003858       0.00000042
F        6.89878228       4.87817652       7.34204573      -0.00006616      -0.00004993      -0.00000084
F        5.56885787       1.11657973       5.03854849      -0.00002676       0.00003953       0.00004799
F        2.90900757       4.87817571       9.64554170       0.00002367      -0.00003777      -0.00004439
F        2.90900778       4.87817542       5.03854859       0.00002219      -0.00003498       0.00004055
F        5.56885705       1.11658059       9.64554317      -0.00002575       0.00003670      -0.00004544
