9
Lattice="7.107921408157164 -1.1871543347518637e-07 4.103760329125395 2.36930695087455 6.701413172289715 4.103760456000754 -7.291412655381639e-08 1.0383222650831323e-07 8.207520784541721" Properties=species:S:1:pos:R:3:forces:R:3 energy=-25.899105072021484 free_energy=-25.899105072021484 stress="-8.046458788157906e-06 -3.7402021035859434e-08 2.3637258816933127e-09 -3.7402021035859434e-08 -7.987975550349802e-06 -1.7913398542290793e-09 2.3637258816933127e-09 -1.7913398542290793e-09 -7.974977052072063e-06" pbc="T T T"
Hg       2.36930633       1.67535332       4.10376084       0.00000017       0.00000039       0.00000001
Hg       7.10792155       5.02605974      12.31128138      -0.00000012      -0.00000026      -0.00000013
Nb      -0.00000013       0.00000012       0.00000012       0.00000207      -0.00000010      -0.00000012
Br       2.07950559       1.47043354       8.20752085       0.00062998       0.00044304       0.00000005
Br       7.39772286       5.23097946       8.20752085      -0.00063096      -0.00044426       0.00000056
Br       6.06816855       1.47043354       5.90466604      -0.00031284       0.00044051       0.00054032
Br       3.40905975       5.23098010      10.51037539       0.00031297      -0.00044082      -0.00053963
Br       3.40906005       5.23097957       5.90466604       0.00031223      -0.00043980       0.00053938
Br       6.06816868       1.47043325      10.51037459      -0.00031344       0.00044136      -0.00054054
