9
Lattice="6.551612321579975 2.3208827650925977e-07 3.7825750582469055 2.183870913941736 6.1769195637062655 3.782575194616701 -4.9804777897011094e-08 1.3180092928359045e-07 7.56515020275846" Properties=species:S:1:pos:R:3:forces:R:3 energy=-15.200539588928223 free_energy=-15.200539588928223 stress="-7.648618520761374e-07 -5.29196375609331e-09 2.736934012759207e-10 -5.29196375609331e-09 -7.581511454191059e-07 -3.434661222101454e-09 2.736934012759207e-10 -3.434661222101454e-09 -7.504244194933563e-07" pbc="T T T"
Hg       2.18387059       1.54422983       3.78257512      -0.00000026      -0.00000010      -0.00000010
Hg       6.55161227       4.63269031      11.34772554      -0.00000009       0.00000053       0.00000022
Ni      -0.00000026       0.00000037      -0.00000047       0.00000025      -0.00000049       0.00000155
I        2.19479488       1.55195450       7.56515004      -0.00423968      -0.00299804       0.00000001
I        6.54068862       4.62496540       7.56515026       0.00423972       0.00299777       0.00000003
I        5.45421468       1.55195463       5.68332307       0.00212018      -0.00299831      -0.00367184
I        3.28126835       4.62496549       9.44697745      -0.00211992       0.00299744       0.00367162
I        3.28126848       4.62496505       5.68332333      -0.00212032       0.00299878      -0.00367256
I        5.45421505       1.55195412       9.44697753       0.00212009      -0.00299764       0.00367109
