9
Lattice="6.358589767272611 4.2847933733487073e-07 3.6711350971209575 2.119529857964514 5.994940370196662 3.6711359084724897 -3.7690490864992055e-07 7.27186096322574e-07 7.3422708470595355" Properties=species:S:1:pos:R:3:forces:R:3 energy=-42.067474365234375 free_energy=-42.067474365234375 stress="3.570341141312383e-05 8.178451693652278e-09 4.594813418634658e-08 8.178451693652278e-09 3.567980820662342e-05 -9.609172479940753e-08 4.594813418634658e-08 -9.609172479940753e-08 3.567077510524541e-05" pbc="T T T"
Hg       2.11952654       1.49874224       3.67113895       0.00000119      -0.00000023       0.00000068
Hg       6.35858768       4.49620556      11.01340748       0.00000099       0.00000044       0.00000141
Nb       0.00000109      -0.00000064       0.00000302      -0.00002193       0.00000768      -0.00003041
F        1.57917539       1.11664268       7.34226792      -0.00267951      -0.00189350       0.00001108
F        6.89894711       4.87829551       7.34226779       0.00268206       0.00189761       0.00000692
F        5.56900138       1.11664613       5.03873913       0.00134582      -0.00189785      -0.00231614
F        2.90911473       4.87829935       9.64580211      -0.00132980       0.00188090       0.00231150
F        2.90911706       4.87829135       5.03874022      -0.00134132       0.00190227      -0.00231779
F        5.56900469       1.11664395       9.64580169       0.00134257      -0.00189729       0.00233265
