9
Lattice="6.506489392194017 -2.1968631432002153e-08 3.7565236266916004 2.1688296838944443 6.134377464982657 3.75652378741071 -3.8524934750145654e-08 1.6959881368157506e-07 7.513047320110256" Properties=species:S:1:pos:R:3:forces:R:3 energy=-22.970016479492188 free_energy=-22.970016479492188 stress="5.341239011613652e-05 -5.548170278757425e-08 -7.2897403669003324e-09 -5.548170278757425e-08 5.346660691429861e-05 8.790989269868987e-09 -7.2897403669003324e-09 8.790989269868987e-09 5.350782521418296e-05" pbc="T T T"
Hg       2.16882952       1.53359435       3.75652377       0.00000052       0.00000027      -0.00000011
Hg       6.50648933       4.60078340      11.26957089      -0.00000051      -0.00000020      -0.00000009
Os      -0.00000091       0.00000058       0.00000035       0.00001483      -0.00000588      -0.00000532
Br       2.02757747       1.43371415       7.51304765      -0.00145936      -0.00103249      -0.00000026
Br       6.64774228       4.70066362       7.51304761       0.00145215       0.00102787      -0.00000038
Br       5.49270064       1.43371381       5.51245807       0.00072841      -0.00103073      -0.00126307
Br       3.18261873       4.70066299       9.51363605      -0.00073388       0.00103860       0.00127287
Br       3.18261862       4.70066332       5.51245843      -0.00073159       0.00103521      -0.00126883
Br       5.49270051       1.43371424       9.51363625       0.00072944      -0.00103259       0.00126542
