9
Lattice="6.120285658056148 1.1979026420666529e-07 3.5335483707406574 2.0400951855937426 5.770260560754793 3.5335486248288515 -2.1284005041656264e-07 1.6069241470223268e-07 7.067097110130562" Properties=species:S:1:pos:R:3:forces:R:3 energy=-35.986839294433594 free_energy=-35.986839294433594 stress="7.967065903358161e-05 -1.4046913854315335e-08 -1.5632114269692465e-08 -1.4046913854315335e-08 7.970861770445481e-05 2.7185416584529776e-08 -1.5632114269692465e-08 2.7185416584529776e-08 7.975857442943379e-05" pbc="T T T"
Hg       2.04009581       1.44256426       3.53354996      -0.00000104       0.00000041      -0.00000150
Hg       6.12028563       4.32769485      10.60064832       0.00000042       0.00000034      -0.00000135
Os      -0.00000067       0.00000017      -0.00000104       0.00002824       0.00000202       0.00002553
F        1.55992192       1.10303209       7.06709736      -0.00535978      -0.00379111      -0.00000114
F        6.60045819       4.66722929       7.06709708       0.00534528       0.00378020      -0.00000131
F        5.34032446       1.10303256       4.88448041       0.00267851      -0.00379163      -0.00464244
F        2.82005565       4.66722983       9.24971160      -0.00267835       0.00378548       0.00463936
F        2.82005674       4.66722865       4.88448079      -0.00268352       0.00379333      -0.00464696
F        5.34032490       1.10303156       9.24971174       0.00267023      -0.00377920       0.00462985
