9
Lattice="6.451921160802872 -2.752814204905189e-07 3.725018716064787 2.1506400254652154 6.0829303944724655 3.7250188926147234 -1.5302299809103455e-07 1.0802504226265291e-07 7.4500376971733475" Properties=species:S:1:pos:R:3:forces:R:3 energy=-26.185701370239258 free_energy=-26.185701370239258 stress="0.0001132695033447817 -1.1608324257394997e-07 -1.3867954784529957e-08 -1.1608324257394997e-07 0.00011335316230542958 1.3920146813006795e-08 -1.3867954784529957e-08 1.3920146813006795e-08 0.00011340064520481974" pbc="T T T"
Hg       2.15064016       1.52073282       3.72501855      -0.00000030       0.00000001       0.00000024
Hg       6.45192085       4.56219737      11.17505641       0.00000011       0.00000024       0.00000017
Os      -0.00000138      -0.00000023       0.00000073       0.00001566       0.00000087      -0.00001267
Cl       1.90311448       1.34570448       7.45003760      -0.00352195      -0.00248903       0.00000024
Cl       6.69944680       4.73722443       7.45003782       0.00351590       0.00248790      -0.00000023
Cl       5.50036320       1.34570672       5.37316521       0.00176257      -0.00249615      -0.00305375
Cl       3.10219875       4.73722392       9.52691008      -0.00177073       0.00250036       0.00306129
Cl       3.10219834       4.73722450       5.37316506      -0.00176601       0.00249505      -0.00305364
Cl       5.50036284       1.34570697       9.52690976       0.00176482      -0.00249946       0.00305834
