9
Lattice="6.723603154012449 3.602556514726863e-07 3.881873782713845 2.2412012768362404 6.339073670057164 3.8818739804333746 -4.526098333918172e-08 2.10151853273499e-07 7.76374764382144" Properties=species:S:1:pos:R:3:forces:R:3 energy=-19.948993682861328 free_energy=-19.948993682861328 stress="-2.5772769731702283e-05 2.6215419168806875e-08 -1.7149469622168567e-09 2.6215419168806875e-08 -2.5793731765588745e-05 1.1861545523572659e-08 -1.7149469622168567e-09 1.1861545523572659e-08 -2.5817445930442773e-05" pbc="T T T"
Hg       2.24120096       1.58476825       3.88187435       0.00000024      -0.00000045      -0.00000067
Hg       6.72360323       4.75430629      11.64562127      -0.00000039      -0.00000006      -0.00000047
Os      -0.00000057      -0.00000117      -0.00000169       0.00000494       0.00001062       0.00001697
I        2.20568179       1.55965261       7.76374775       0.00381967       0.00270140       0.00000045
I        6.75912370       4.77942250       7.76374804      -0.00382876      -0.00270771      -0.00000003
I        5.62076256       1.55965227       5.79204920      -0.00190961       0.00270155       0.00330934
I        3.34404099       4.77942252       9.73544699       0.00191697      -0.00271054      -0.00332001
I        3.34404181       4.77942196       5.79204902       0.00191225      -0.00270396       0.00331240
I        5.62076301       1.55965187       9.73544677      -0.00191537       0.00270911      -0.00331801
