9
Lattice="6.271014109497784 -1.2685634922758844e-08 3.6205717223229987 2.0903380650786905 5.912368792942678 3.620571652106518 5.022611975703306e-08 -5.0482132485886465e-08 7.241143357651873" Properties=species:S:1:pos:R:3:forces:R:3 energy=-17.603349685668945 free_energy=-17.603349685668945 stress="6.024054528097622e-05 -4.992829705230406e-09 1.0149089568756153e-08 -4.992829705230406e-09 6.02547952439636e-05 -2.9886544350432587e-09 1.0149089568756153e-08 -2.9886544350432587e-09 6.024560934747569e-05" pbc="T T T"
Hg       2.09033801       1.47809210       3.62057161      -0.00000007      -0.00000006      -0.00000014
Hg       6.27101419       4.43427658      10.86171507       0.00000022       0.00000013       0.00000001
Pd       0.00000032       0.00000084      -0.00000014      -0.00000591      -0.00001455       0.00000147
Br       2.04630335       1.44695507       7.24114343      -0.00647473      -0.00457821       0.00000008
Br       6.31504839       4.46541328       7.24114335       0.00648445       0.00458620       0.00000055
Br       5.24786246       1.44695509       5.39272251       0.00323917      -0.00458115      -0.00561028
Br       3.11348974       4.46541354       9.08956414      -0.00324018       0.00458339       0.00561300
Br       3.11348995       4.46541339       5.39272285      -0.00324178       0.00458501      -0.00561473
Br       5.24786244       1.44695505       9.08956412       0.00323884      -0.00458082       0.00561003
