9
Lattice="6.272986522426725 -5.392726963525296e-08 3.6217104736309578 2.0909954954610637 5.914228213588218 3.6217104063777628 6.926130401230733e-08 -3.3392750403192077e-08 7.243420827297759" Properties=species:S:1:pos:R:3:forces:R:3 energy=-17.60335350036621 free_energy=-17.60335350036621 stress="0.00017283216584473848 -2.9372961840579137e-09 1.4470013631751044e-08 -2.9372961840579137e-09 0.0001728284842101857 -2.040970770167405e-08 1.4470013631751044e-08 -2.040970770167405e-08 0.0001728423376334831" pbc="T T T"
Hg       2.09099544       1.47855714       3.62171046       0.00000026      -0.00000003      -0.00000012
Hg       6.27298658       4.43567101      10.86513120      -0.00000014      -0.00000006       0.00000027
Pd       0.00000060      -0.00000065       0.00000076      -0.00000830       0.00000896      -0.00001763
Br       2.04630287       1.44695421       7.24342090      -0.00530540      -0.00375149       0.00000013
Br       6.31767931       4.46727399       7.24342094       0.00530633       0.00375157      -0.00000019
Br       5.24983497       1.44695431       5.39386041       0.00265258      -0.00375020      -0.00459313
Br       3.11414690       4.46727379       9.09298117      -0.00265325       0.00375260       0.00459661
Br       3.11414678       4.46727407       5.39386014      -0.00265024       0.00374741      -0.00458961
Br       5.24983493       1.44695461       9.09298082       0.00265819      -0.00375883       0.00460367
