9
Lattice="6.308944949034024 2.2150455945061791e-07 3.6424708675991484 2.1029818357666104 5.948130330000662 3.6424709069995806 -3.139126178580133e-08 2.60584590130375e-08 7.284941789569611" Properties=species:S:1:pos:R:3:forces:R:3 energy=-18.863624572753906 free_energy=-18.863624572753906 stress="5.4406715207733214e-05 7.782766431319033e-08 2.1747268430516442e-09 7.782766431319033e-08 5.433338083093986e-05 -7.733061413439657e-10 2.1747268430516442e-09 -7.733061413439657e-10 5.425759081845172e-05" pbc="T T T"
Hg       2.10298174       1.48703253       3.64247100       0.00000003      -0.00000004      -0.00000004
Hg       6.30894500       4.46109796      10.92741260       0.00000005       0.00000010       0.00000006
Pt       0.00000048       0.00000033      -0.00000097      -0.00000860      -0.00000582       0.00002232
Br       2.03124589       1.43630779       7.28494187      -0.00118239      -0.00083532      -0.00000051
Br       6.38068050       4.51182271       7.28494168       0.00118930       0.00084001      -0.00000036
Br       5.29332223       1.43630752       5.40158060       0.00059185      -0.00083533      -0.00102319
Br       3.11860407       4.51182335       9.16830327      -0.00058552       0.00082829       0.00101277
Br       3.11860464       4.51182295       5.40158092      -0.00059120       0.00083586      -0.00102348
Br       5.29332247       1.43630716       9.16830331       0.00058643      -0.00082775       0.00101258
