9
Lattice="6.911799566768448 -1.8572137227050042e-07 3.99052938212374 2.3039329843659733 6.516506710034619 3.9905294331445256 -1.2462231861598895e-08 5.3675698937607994e-08 7.981058785832571" Properties=species:S:1:pos:R:3:forces:R:3 energy=-16.896408081054688 free_energy=-16.896408081054688 stress="-0.00011279191676294431 1.5197912262010504e-08 1.3620036209971431e-09 1.5197912262010504e-08 -0.00011285748041700572 4.503750705708853e-09 1.3620036209971431e-09 4.503750705708853e-09 -0.00011275892029516399" pbc="T T T"
Hg       2.30393405       1.62912624       3.99052951      -0.00000006       0.00000006       0.00000001
Hg       6.91179910       4.88738022      11.97158822       0.00000020      -0.00000012      -0.00000015
P        0.00000192      -0.00000144      -0.00000032      -0.00000421       0.00000360       0.00000095
Br       1.97482088       1.39640890       7.98105900       0.00452819       0.00320271      -0.00000120
Br       7.24091117       5.12009783       7.98105903      -0.00452781      -0.00320432      -0.00000089
Br       5.92438820       1.39640898       5.70077546      -0.00226451       0.00320494       0.00391975
Br       3.29134355       5.12009830      10.26134232       0.00226469      -0.00320411      -0.00391904
Br       3.29134279       5.12009856       5.70077533       0.00226672      -0.00320655       0.00392058
Br       5.92438821       1.39640882      10.26134191      -0.00226338       0.00320405      -0.00392029
