9
Lattice="6.148086857149364 -4.932009114123321e-07 3.549599814884874 2.0493618496130503 5.796471516325559 3.5495997648444253 5.498187621123324e-08 -2.240866010460005e-08 7.099199534538446" Properties=species:S:1:pos:R:3:forces:R:3 energy=-21.407695770263672 free_energy=-21.407695770263672 stress="-0.00014384913083631545 -1.8235982679470908e-07 7.362603415828062e-09 -1.8235982679470908e-07 -0.00014378473861142993 -1.0443319098385473e-08 7.362603415828062e-09 -1.0443319098385473e-08 -0.00014361100329551846" pbc="T T T"
Hg       2.04936217       1.44911764       3.54959988      -0.00000010       0.00000008      -0.00000003
Hg       6.14808662       4.34735323      10.64879936       0.00000013      -0.00000019      -0.00000029
Pt       0.00000066      -0.00000098      -0.00000060      -0.00001246       0.00002490       0.00001207
Cl       1.91241858       1.35228350       7.09919958      -0.00445616      -0.00315128      -0.00000022
Cl       6.28503026       4.44418841       7.09919951       0.00445352       0.00314555      -0.00000004
Cl       5.19187664       1.35228467       5.20580457       0.00224195      -0.00316779      -0.00388074
Cl       3.00557138       4.44418669       8.99259546      -0.00223025       0.00315371       0.00386463
Cl       3.00557173       4.44418661       5.20580394      -0.00223522       0.00315876      -0.00387087
Cl       5.19187714       1.35228423       8.99259506       0.00223847      -0.00316365       0.00387563
