9
Lattice="5.270605555979583 -1.3061569826997463e-07 3.0429855505804455 1.7568683315078555 4.969174468682736 3.042985661442321 5.06056647919493e-08 1.7156134560896078e-07 6.085971013509032" Properties=species:S:1:pos:R:3:forces:R:3 energy=-29.141727447509766 free_energy=-29.141727447509766 stress="0.00022377545246854424 -2.5083895138777734e-07 -4.8586095147129527e-08 -2.5083895138777734e-07 0.00022389506921172142 4.1900474201383986e-08 -4.8586095147129527e-08 4.1900474201383986e-08 0.00022410767269320786" pbc="T T T"
Hg       1.75686817       1.24229437       3.04298570       0.00000026       0.00000033      -0.00000060
Hg       5.27060621       3.72688004       9.12895598       0.00000025       0.00000045      -0.00000173
Pt       0.00000007       0.00000048      -0.00000093       0.00000159       0.00000504       0.00001233
F        1.60452427       1.13456919       6.08597171      -0.00104783      -0.00073647      -0.00000578
F        5.42295127       3.83460536       6.08597262       0.00103502       0.00073249      -0.00000634
F        4.46834306       1.13456860       4.43254476       0.00053083      -0.00074494      -0.00092143
F        2.55913093       3.83460371       7.73939777      -0.00053217       0.00075350       0.00091572
F        2.55912944       3.83460537       4.43254373      -0.00052284       0.00074149      -0.00091124
F        4.46834186       1.13457084       7.73939706       0.00053491      -0.00075188       0.00091909
