9
Lattice="7.260788104856048 -4.9492466377929386e-08 4.192018074730476 2.4202625662028967 6.845536714451427 4.192018228456791 -6.202971481042614e-08 1.4441369107344157e-07 8.384036256899881" Properties=species:S:1:pos:R:3:forces:R:3 energy=-14.25809383392334 free_energy=-14.25809383392334 stress="-6.678703357465565e-05 -2.570557988690325e-08 -7.0334618129663795e-09 -2.570557988690325e-08 -6.677630153717473e-05 1.2804479254668877e-08 -7.0334618129663795e-09 1.2804479254668877e-08 -6.67674103169702e-05" pbc="T T T"
Hg       2.42026253       1.71138383       4.19201799      -0.00000015      -0.00000051      -0.00000000
Hg       7.26078796       5.13415297      12.57605471       0.00000027       0.00000044       0.00000009
Pb      -0.00000024      -0.00000005       0.00000074       0.00000126       0.00000018      -0.00000147
I        2.62004775       1.85265282       8.38403628      -0.00354834      -0.00250885       0.00000016
I        7.06100304       4.99288411       8.38403594       0.00354755       0.00250812       0.00000016
I        5.95076431       1.85265326       6.46104603       0.00177372      -0.00250776      -0.00307350
I        3.73028658       4.99288339      10.30702619      -0.00177379       0.00250843       0.00307430
I        3.73028658       4.99288364       6.46104647      -0.00177496       0.00250959      -0.00307238
I        5.95076390       1.85265326      10.30702590       0.00177444      -0.00250958       0.00307265
