9
Lattice="6.042265726960947 3.0493907557658397e-07 3.4885034438015445 2.0140888678249333 5.6967034997092965 3.4885034357092883 -3.3740300829263675e-07 -2.4849084105279705e-07 6.97700747200242" Properties=species:S:1:pos:R:3:forces:R:3 energy=-19.772062301635742 free_energy=-19.772062301635742 stress="4.99772431794554e-05 1.2842571450732976e-09 5.608087771946657e-09 1.2842571450732976e-09 4.9993512220680714e-05 7.803266477424131e-09 5.608087771946657e-09 7.803266477424131e-09 4.99857087561395e-05" pbc="T T T"
Hg       2.01408832       1.42417669       3.48850431      -0.00000034       0.00000053       0.00000020
Hg       6.04226554       4.27252671      10.46551034       0.00000006      -0.00000013      -0.00000005
Pd       0.00000058       0.00000048      -0.00000034      -0.00001000      -0.00000360      -0.00000100
Cl       1.92240043       1.35934245       6.97700811       0.00008038       0.00005743      -0.00000165
Cl       6.13395461       4.33736073       6.97700703      -0.00007761      -0.00005394      -0.00000029
Cl       5.08106515       1.35934301       5.15335066      -0.00003795       0.00005439       0.00006726
Cl       2.97528813       4.33736066       8.80066336       0.00004220      -0.00005448      -0.00006866
Cl       2.97528919       4.33736080       5.15335033       0.00004044      -0.00005575       0.00006965
Cl       5.08106500       1.35934259       8.80066344      -0.00003716       0.00005564      -0.00006545
