9
Lattice="6.060256061017036 1.1121041421455458e-08 3.4988905988954966 2.0200851901406356 5.7136633477594945 3.4988909003013444 1.8591175717381857e-07 5.006049284199775e-07 6.997780875782226" Properties=species:S:1:pos:R:3:forces:R:3 energy=-34.716182708740234 free_energy=-34.716182708740234 stress="5.449670879897894e-06 -6.489452974989263e-09 -1.7985794187325155e-08 -6.489452974989263e-09 5.43063151781098e-06 3.437814921625204e-09 -1.7985794187325155e-08 3.437814921625204e-09 5.324068752088351e-06" pbc="T T T"
Hg       2.02008554       1.42841662       3.49889092      -0.00000014       0.00000009       0.00000001
Hg       6.06025622       4.28524908      10.49667039       0.00000025      -0.00000015      -0.00000003
P       -0.00000020      -0.00000012       0.00000008      -0.00000276      -0.00000885       0.00000088
F        1.34275122       0.94947029       6.99778102      -0.00068998      -0.00048918      -0.00000047
F        6.73758996       4.76419324       6.99778161       0.00069547       0.00049442      -0.00000031
F        5.38887942       0.94946829       4.66174785       0.00034577      -0.00049019      -0.00059509
F        2.69146169       4.76419512       9.33381433      -0.00034726       0.00049371       0.00059605
F        2.69146178       4.76419437       4.66174799      -0.00034618       0.00049084      -0.00059462
F        5.38887921       0.94946895       9.33381445       0.00034523      -0.00049114       0.00059414
