9
Lattice="6.360479349817165 -1.3384149781714144e-07 3.672224695755317 2.1201597887680226 5.996717489171586 3.6722244676743467 1.0189988929078382e-07 -2.0728688704023376e-07 7.3444492150147935" Properties=species:S:1:pos:R:3:forces:R:3 energy=-19.069862365722656 free_energy=-19.069862365722656 stress="-0.00021289673168212175 6.419392573064897e-09 1.1346576123116847e-08 6.419392573064897e-09 -0.00021291969460435212 -1.7036263955105824e-08 1.1346576123116847e-08 -1.7036263955105824e-08 -0.00021292941528372467" pbc="T T T"
Hg       2.12015934       1.49917953       3.67222449      -0.00000023       0.00000014      -0.00000001
Hg       6.36047963       4.49753779      11.01667364       0.00000014       0.00000005      -0.00000009
Pb       0.00000010       0.00000034       0.00000036      -0.00000288      -0.00000090      -0.00000634
Cl       2.09771719       1.48330936       7.34444930       0.00571046       0.00403780      -0.00000068
Cl       6.38292216       4.51340736       7.34444943      -0.00570754      -0.00403573      -0.00000063
Cl       5.31162123       1.48330934       5.48890065      -0.00285770       0.00404083       0.00494834
Cl       3.16901819       4.51340735       9.19999824       0.00285451      -0.00403713      -0.00494505
Cl       3.16901822       4.51340720       5.48890051       0.00285580      -0.00403938       0.00494612
Cl       5.31162087       1.48331033       9.19999690      -0.00285256       0.00403435      -0.00494166
