9
Lattice="6.777164402989502 -1.9283445589032298e-07 3.9127978539094705 2.259054614727922 6.389572064028304 3.912797861639241 3.149170207726283e-09 1.1693748596541132e-08 7.8255957023643745" Properties=species:S:1:pos:R:3:forces:R:3 energy=-14.482503890991211 free_energy=-14.482503890991211 stress="-0.0001616679219296202 -6.957686871089663e-09 5.6963993522174405e-09 -6.957686871089663e-09 -0.00016165233682841063 -5.043595763254416e-09 5.6963993522174405e-09 -5.043595763254416e-09 -0.00016163906548172235" pbc="T T T"
Hg       2.25905453       1.59739309       3.91279781      -0.00000048       0.00000007      -0.00000000
Hg       6.77716444       4.79217887      11.73839355       0.00000027      -0.00000046       0.00000013
P        0.00000014       0.00000003      -0.00000021      -0.00000009      -0.00000043      -0.00000080
I        2.26823549       1.60388500       7.82559575       0.00728028       0.00514728       0.00000006
I        6.76798325       4.78568667       7.82559582      -0.00727987      -0.00514646      -0.00000023
I        5.64304659       1.60388481       5.87714811      -0.00363987       0.00514747       0.00630349
I        3.39317254       4.78568718       9.77404343       0.00363965      -0.00514682      -0.00630321
I        3.39317283       4.78568694       5.87714806       0.00363998      -0.00514731       0.00630295
I        5.64304630       1.60388493       9.77404331      -0.00363982       0.00514655      -0.00630260
