9
Lattice="6.553745115546064 -2.1678481418285155e-07 3.7838065863377137 2.1845815269726754 6.178930236481723 3.7838065409971335 -5.0882073413041136e-08 -9.150959955616607e-08 7.567613260805652" Properties=species:S:1:pos:R:3:forces:R:3 energy=-16.317520141601562 free_energy=-16.317520141601562 stress="6.322954141069204e-05 -1.6762202292852635e-08 5.4483875189248465e-09 -1.6762202292852635e-08 6.325067806756124e-05 2.110734520499591e-08 5.4483875189248465e-09 2.110734520499591e-08 6.326383299892768e-05" pbc="T T T"
Hg       2.18458164       1.54473241       3.78380668       0.00000039       0.00000001       0.00000016
Hg       6.55374485       4.63419753      11.35141979      -0.00000044       0.00000003      -0.00000023
Pb      -0.00000064      -0.00000092      -0.00000115       0.00000537       0.00000505       0.00000897
Br       2.28741873       1.61744912       7.56761323       0.00033351       0.00023582       0.00000098
Br       6.45090858       4.56148139       7.56761336      -0.00034020      -0.00024068      -0.00000142
Br       5.41003547       1.61744934       5.76476972      -0.00016517       0.00023510       0.00028812
Br       3.32829095       4.56148122       9.37045715       0.00016828      -0.00023891      -0.00029184
Br       3.32829116       4.56148065       5.76476957       0.00016657      -0.00023477       0.00028762
Br       5.41003560       1.61744897       9.37045717      -0.00016832       0.00023836      -0.00029238
