9
Lattice="6.307449808382083 -6.199489551476214e-09 3.641607844902322 2.1024833393435687 5.946720546393387 3.6416077137379887 1.0273709026187725e-07 -8.799675295741386e-08 7.283215511858696" Properties=species:S:1:pos:R:3:forces:R:3 energy=-18.86362075805664 free_energy=-18.86362075805664 stress="-9.251056326320395e-05 1.0127958027794648e-08 2.2705091140551303e-08 1.0127958027794648e-08 -9.251894516637549e-05 -3.5947017806847725e-08 2.2705091140551303e-08 -3.5947017806847725e-08 -9.251476149074733e-05" pbc="T T T"
Hg       2.10248315       1.48668002       3.64160786      -0.00000001       0.00000015      -0.00000004
Hg       6.30745007       4.46004038      10.92482327      -0.00000005      -0.00000010      -0.00000009
Pt       0.00000038       0.00000045      -0.00000003      -0.00000716      -0.00001282      -0.00000351
Br       2.03089691       1.43606098       7.28321556       0.00221032       0.00156302       0.00000001
Br       6.37903568       4.51065929       7.28321551      -0.00219963      -0.00155583       0.00000007
Br       5.29200173       1.43606065       5.40041580      -0.00110539       0.00156363       0.00191443
Br       3.11793174       4.51065968       9.16601511       0.00110285      -0.00155978      -0.00190935
Br       3.11793196       4.51065932       5.40041634       0.00110144      -0.00155784       0.00190743
Br       5.29200138       1.43606108       9.16601488      -0.00110238       0.00155959      -0.00190878
