9
Lattice="5.343087817549971 1.0338575863349574e-07 3.084833073508016 1.7810293074407955 5.037511730288277 3.0848331818460304 -1.362867927589634e-07 3.631694439385212e-08 6.169666383071705" Properties=species:S:1:pos:R:3:forces:R:3 energy=-28.743324279785156 free_energy=-28.743324279785156 stress="-0.00013069628039374948 -5.227031252275083e-09 -1.3365681894583759e-09 -5.227031252275083e-09 -0.00013069277338217944 2.0751311780031756e-08 -1.3365681894583759e-09 2.0751311780031756e-08 -0.0001307218335568905" pbc="T T T"
Hg       1.78102918       1.25937766       3.08483298      -0.00000004       0.00000001      -0.00000006
Hg       5.34308758       3.77813432       9.25449942      -0.00000063       0.00000039      -0.00000019
Pb       0.00000001       0.00000012       0.00000025       0.00000332      -0.00000496      -0.00001871
F        1.71328411       1.21147480       6.16966631       0.00303626       0.00214620       0.00000017
F        5.41083290       3.82603697       6.16966625      -0.00303659      -0.00214647      -0.00000014
F        4.48644576       1.21147469       4.56858079      -0.00152123       0.00215085       0.00263563
F        2.63767163       3.82603699       7.77075197       0.00151489      -0.00214081      -0.00262336
F        2.63767125       3.82603694       4.56858072       0.00152052      -0.00214943       0.00263397
F        4.48644542       1.21147496       7.77075205      -0.00151653       0.00214420      -0.00262707
