9
Lattice="6.662084762388437 -1.73126309602742e-07 3.8463565641964155 2.220694782579179 6.281073735173645 3.846356520881507 2.9537082244609187e-08 -3.2164103585397035e-08 7.692713077233245" Properties=species:S:1:pos:R:3:forces:R:3 energy=-16.3418025970459 free_energy=-16.3418025970459 stress="4.45972582383547e-05 -8.985252542004218e-09 5.497114430319527e-10 -8.985252542004218e-09 4.459096089703962e-05 5.8691957960377295e-09 5.497114430319527e-10 5.8691957960377295e-09 4.46168050984852e-05" pbc="T T T"
Hg       2.22069464       1.57026834       3.84635679      -0.00000028      -0.00000024       0.00000027
Hg       6.66208487       4.71080518      11.53906939       0.00000029      -0.00000001      -0.00000009
Pt       0.00000018      -0.00000027      -0.00000026      -0.00000141       0.00000150      -0.00000023
I        2.20950731       1.56235711       7.69271301      -0.00612712      -0.00433227      -0.00000027
I        6.67327188       4.71871630       7.69271295       0.00612859       0.00433334       0.00000066
I        5.55733134       1.56235773       5.75984633       0.00306406      -0.00433420      -0.00530895
I        3.32544825       4.71871631       9.62558020      -0.00306423       0.00433273       0.00530791
I        3.32544857       4.71871640       5.75984616      -0.00306448       0.00433253      -0.00530774
I        5.55733125       1.56235705       9.62558011       0.00306453      -0.00433344       0.00530846
