9
Lattice="5.343654385758986 9.575933766782925e-08 3.0851603167751995 1.7812182694153615 5.038045810356013 3.0851602292265516 1.455866824772561e-07 -4.279430243756787e-09 6.170320381386907" Properties=species:S:1:pos:R:3:forces:R:3 energy=-28.743324279785156 free_energy=-28.743324279785156 stress="-0.0001223598374053836 -1.0831186614268518e-08 -5.945949954622165e-09 -1.0831186614268518e-08 -0.00012233041343279183 -1.6157610360778563e-08 -5.945949954622165e-09 -1.6157610360778563e-08 -0.0001223204453708604" pbc="T T T"
Hg       1.78121846       1.25951117       3.08516048      -0.00000011      -0.00000007       0.00000051
Hg       5.34365448       3.77853465       9.25548059       0.00000025       0.00000030      -0.00000011
Pb       0.00000008       0.00000012      -0.00000008      -0.00000095      -0.00000425      -0.00000504
F        1.71326607       1.21146196       6.17032047       0.00337205       0.00238375      -0.00000027
F        5.41160670       3.82658369       6.17032070      -0.00336907      -0.00238117      -0.00000043
F        4.48702150       1.21146204       4.56889211      -0.00168638       0.00238383       0.00291950
F        2.63785150       3.82658378       7.77174893       0.00168343      -0.00238006      -0.00291649
F        2.63785101       3.82658381       4.56889205       0.00168506      -0.00238228       0.00291835
F        4.48702146       1.21146237       7.77174861      -0.00168440       0.00237998      -0.00291588
