9
Lattice="5.2649533995568225 -2.201263024362056e-07 3.039722214288215 1.7549842126058217 4.963846180756956 3.0397222946141293 -2.400874174001766e-07 -7.138880382562783e-08 6.079444844419997" Properties=species:S:1:pos:R:3:forces:R:3 energy=-29.14176368713379 free_energy=-29.14176368713379 stress="-5.407983553595841e-05 1.96929228479803e-08 -1.12878959512841e-08 1.96929228479803e-08 -5.408860670286231e-05 -2.9032112269788968e-09 -1.12878959512841e-08 -2.9032112269788968e-09 -5.415054693003185e-05" pbc="T T T"
Hg       1.75498483       1.24096272       3.03972218       0.00000059       0.00000026       0.00000050
Hg       5.26495294       3.72288282       9.11916862      -0.00000020      -0.00000024       0.00000030
Pt      -0.00000023       0.00000028      -0.00000017       0.00000064      -0.00001952      -0.00001111
F        1.60452355       1.13456939       6.07944458       0.00017039       0.00012293       0.00000146
F        5.41541426       3.82927612       6.07944388      -0.00016663      -0.00011607       0.00000044
F        4.46269154       1.13456982       4.42927991      -0.00008648       0.00012541       0.00015304
F        2.55724577       3.82927592       7.72960885       0.00008255      -0.00011558      -0.00014305
F        2.55724591       3.82927623       4.42928012       0.00008465      -0.00011889       0.00014759
F        4.46269116       1.13456977       7.72960908      -0.00008566       0.00012175      -0.00014909
