9
Lattice="6.855484878476296 1.0795055617823025e-07 3.958015681542098 2.2851617852003376 6.463412704792312 3.958015582356313 -4.7197417329072665e-07 -4.552129659337363e-07 7.916032180566807" Properties=species:S:1:pos:R:3:forces:R:3 energy=-20.681428909301758 free_energy=-20.681428909301758 stress="-3.3040374546544626e-05 2.1252793303006e-08 -1.7980870126166337e-08 2.1252793303006e-08 -3.319241659482941e-05 1.2978133234753386e-08 -1.7980870126166337e-08 1.2978133234753386e-08 -3.325157013023272e-05" pbc="T T T"
Hg       2.28516170       1.61585265       3.95801641      -0.00000055       0.00000025      -0.00000031
Hg       6.85548494       4.84756000      11.87404703       0.00000021      -0.00000054       0.00000000
P       -0.00000042       0.00000038       0.00000033       0.00001172      -0.00001187      -0.00000579
Cl       1.78642052       1.26318878       7.91603067       0.00064847       0.00046641       0.00000606
Cl       7.35422624       5.20022351       7.91603049      -0.00065428      -0.00046727       0.00000477
Cl       5.96227383       1.26318949       5.50510030      -0.00032556       0.00046957       0.00057638
Cl       3.17837184       5.20022250      10.32696420       0.00032634      -0.00046656      -0.00057545
Cl       3.17837217       5.20022344       5.50510043       0.00032517      -0.00046489       0.00057635
Cl       5.96227402       1.26318851      10.32696391      -0.00033160       0.00047502      -0.00058207
