9
Lattice="5.040704855242508 1.3206326250958704e-08 2.9102519527393835 1.6802349127690865 4.752421808283703 2.910252041817806 -2.360821691975846e-07 -5.783691999644943e-08 5.820504314384853" Properties=species:S:1:pos:R:3:forces:R:3 energy=-27.522396087646484 free_energy=-27.522396087646484 stress="-7.254309934978664e-07 2.0566804437294195e-07 -3.333402176508571e-08 2.0566804437294195e-07 -8.500122703480884e-07 5.5327259218529434e-08 -3.333402176508571e-08 5.5327259218529434e-08 -1.0070651796922903e-06" pbc="T T T"
Hg       1.68023433       1.18810441       2.91025246      -0.00000065      -0.00000124       0.00000069
Hg       5.04070434       3.56431652       8.73075617      -0.00000046      -0.00000101      -0.00000044
Pd       0.00000024      -0.00000068      -0.00000014       0.00000621       0.00000584      -0.00000894
F        1.61211662       1.13993916       5.82050430       0.00045167       0.00031723      -0.00000070
F        5.10882231       3.61248302       5.82050419      -0.00045280      -0.00032150      -0.00000067
F        4.23464732       1.13993790       4.30638441      -0.00023595       0.00033112       0.00040868
F        2.48629327       3.61248404       7.33462228       0.00022938      -0.00032549      -0.00039775
F        2.48629270       3.61248428       4.30638571       0.00023624      -0.00033454       0.00040714
F        4.23464695       1.13993843       7.33462385      -0.00023364       0.00032960      -0.00040803
