9
Lattice="6.622693656234484 -1.4360170167970439e-07 3.8236141992542225 2.2075644680198487 6.243935353266605 3.8236141103470986 8.55628971268693e-08 -4.8386545725830797e-08 7.647228250309184" Properties=species:S:1:pos:R:3:forces:R:3 energy=-15.270233154296875 free_energy=-15.270233154296875 stress="-0.00014558093971572816 -2.0248664966970864e-08 1.2340045651981768e-09 -2.0248664966970864e-08 -0.00014556759560946375 -7.886943181878436e-11 1.2340045651981768e-09 -7.886943181878436e-11 -0.0001455517194699496" pbc="T T T"
Hg       2.20756454       1.56098376       3.82361410       0.00000017      -0.00000011      -0.00000007
Hg       6.62269372       4.68295140      11.47084247       0.00000010      -0.00000008       0.00000008
Pd       0.00000076      -0.00000112       0.00000016      -0.00000711       0.00000838      -0.00000045
I        2.22448643       1.57294894       7.64722822       0.00352509       0.00249214      -0.00000004
I        6.60577170       4.67098621       7.64722830      -0.00352384      -0.00249123      -0.00000001
I        5.51045031       1.57294986       5.75007650      -0.00175997       0.00248870       0.00304852
I        3.31980751       4.67098582       9.54438081       0.00176268      -0.00249311      -0.00305358
I        3.31980753       4.67098589       5.75007585       0.00176259      -0.00249306       0.00305323
I        5.51045037       1.57294992       9.54437985      -0.00175973       0.00248844      -0.00304770
