9
Lattice="6.553501225980928 -1.7599097044974106e-08 3.783665664042644 2.184500265509602 6.178700325274499 3.7836658832476364 -1.5087874506184933e-07 1.6178279667163631e-07 7.567331589414944" Properties=species:S:1:pos:R:3:forces:R:3 energy=-16.317522048950195 free_energy=-16.317522048950195 stress="6.447883060900494e-05 -2.8722129119529427e-09 -7.670098334244813e-09 -2.8722129119529427e-09 6.447764462791383e-05 5.632315724923842e-10 -7.670098334244813e-09 5.632315724923842e-10 6.447420309996232e-05" pbc="T T T"
Hg       2.18450017       1.54467495       3.78366569      -0.00000009      -0.00000027       0.00000034
Hg       6.55350122       4.63402531      11.35099749       0.00000007       0.00000001      -0.00000009
Pb      -0.00000056       0.00000055      -0.00000011       0.00000597      -0.00000372      -0.00000502
Br       2.28782817       1.61773916       7.56733152      -0.00090669      -0.00064074       0.00000100
Br       6.45017294       4.56096153       7.56733140       0.00090538       0.00063946       0.00000168
Br       5.40958667       1.61773907       5.76498341       0.00045277      -0.00063931      -0.00078306
Br       3.32841455       4.56096116       9.36967944      -0.00045421       0.00064213       0.00078784
Br       3.32841494       4.56096149       5.76498363      -0.00045435       0.00064212      -0.00078538
Br       5.40958727       1.61773866       9.36968009       0.00045107      -0.00063978       0.00078277
