9
Lattice="6.621770465435483 -2.934302684941397e-07 3.823081172316551 2.207256695441402 6.24306509670331 3.8230809120268767 7.470963953277707e-08 -2.6596076680073096e-07 7.646162215232183" Properties=species:S:1:pos:R:3:forces:R:3 energy=-15.270197868347168 free_energy=-15.270197868347168 stress="-0.000244380091316998 -1.4362399269884918e-08 5.88720272531873e-09 -1.4362399269884918e-08 -0.00024437543470412493 -1.2643282865099081e-08 5.88720272531873e-09 -1.2643282865099081e-08 -0.00024435840896330774" pbc="T T T"
Hg       2.20725674       1.56076634       3.82308133       0.00000022       0.00000005       0.00000024
Hg       6.62177082       4.68229784      11.46924241       0.00000056      -0.00000030      -0.00000032
Pd       0.00000099      -0.00000007       0.00000150      -0.00000924       0.00000126      -0.00001395
I        2.22397453       1.57258764       7.64616203       0.00637694       0.00450940       0.00000007
I        6.60505214       4.67047667       7.64616245      -0.00637123      -0.00450525      -0.00000008
I        5.50978277       1.57258749       5.74910076      -0.00318731       0.00450744       0.00552078
I        3.31924457       4.67047668       9.54322304       0.00318493      -0.00450450      -0.00551691
I        3.31924400       4.67047697       5.74910001       0.00318867      -0.00450965       0.00552344
I        5.50978235       1.57258860       9.54322366      -0.00318354       0.00450157      -0.00551334
