9
Lattice="5.041295974791213 3.190700162251119e-07 2.9105930168145058 1.680432289470026 4.752979231697993 2.9105930219220766 -2.139777303848341e-07 -1.4504976836225495e-07 5.821186404249518" Properties=species:S:1:pos:R:3:forces:R:3 energy=-27.52239227294922 free_energy=-27.52239227294922 stress="0.0001126619172282517 8.256481009993877e-07 -1.0603733002767513e-08 8.256481009993877e-07 0.00011210511001991108 3.993013919512123e-09 -1.0603733002767513e-08 3.993013919512123e-09 0.00011147849727421999" pbc="T T T"
Hg       1.68043182       1.18824477       2.91059373      -0.00000004       0.00000009       0.00000146
Hg       5.04129603       3.56473447       8.73178087      -0.00000081      -0.00000117       0.00000217
Pd      -0.00000019      -0.00000003       0.00000058      -0.00000984      -0.00000401      -0.00000426
F        1.61226356       1.14004323       5.82118490      -0.00175832      -0.00124375       0.00000201
F        5.10946332       3.61293592       5.82118519       0.00177160       0.00125267       0.00000247
F        4.23516600       1.14004066       4.30684982       0.00085225      -0.00120673      -0.00147534
F        2.48656146       3.61293991       7.33552249      -0.00084956       0.00120076       0.00147061
F        2.48656296       3.61293952       4.30684961      -0.00085269       0.00120392      -0.00147119
F        4.23516717       1.14003919       7.33552241       0.00084742      -0.00120172       0.00147214
