9
Lattice="6.299954639154744 -4.411693707033998e-08 3.6372805148874785 2.099984857078282 5.939654177652922 3.637280482058257 1.5986613137244194e-08 -2.8903117391748812e-08 7.274561002085113" Properties=species:S:1:pos:R:3:forces:R:3 energy=-20.318204879760742 free_energy=-20.318204879760742 stress="-9.322676487499848e-05 9.438978487708027e-09 5.692151638925225e-09 9.438978487708027e-09 -9.322087134933099e-05 -8.256818340157679e-09 5.692151638925225e-09 -8.256818340157679e-09 -9.32433467824012e-05" pbc="T T T"
Hg       2.09998489       1.48491362       3.63728080       0.00000015      -0.00000001       0.00000002
Hg       6.29995451       4.45474052      10.91184123      -0.00000027      -0.00000002      -0.00000012
Rh      -0.00000025      -0.00000028      -0.00000050       0.00000437       0.00000129       0.00001199
Br       2.02889210       1.43464338       7.27456100       0.00246801       0.00174431       0.00000044
Br       6.37104743       4.50501086       7.27456083      -0.00247091      -0.00174689       0.00000040
Br       5.28550850       1.43464346       5.39435256      -0.00123376       0.00174477       0.00213763
Br       3.11443098       4.50501101       9.15476974       0.00123704      -0.00174875      -0.00214260
Br       3.11443122       4.50501065       5.39435268       0.00123265      -0.00174320       0.00213528
Br       5.28550867       1.43464315       9.15476964      -0.00123725       0.00174845      -0.00214309
