9
Lattice="6.290575639036338 -3.864829596345093e-08 3.631866446559042 2.096858438970612 5.930813147158375 3.6318665694252132 2.1568312195420935e-07 3.0299065574384997e-07 7.26373251954406" Properties=species:S:1:pos:R:3:forces:R:3 energy=-39.42460250854492 free_energy=-39.42460250854492 stress="-2.260874680359848e-05 1.4073776810619165e-08 2.343415772543267e-08 1.4073776810619165e-08 -2.2604757759836502e-05 -3.2180572873130586e-08 2.343415772543267e-08 -3.2180572873130586e-08 -2.2638061636826023e-05" pbc="T T T"
Hg       2.09685839       1.48270223       3.63186600       0.00000029       0.00000058      -0.00000020
Hg       6.29057404       4.44811107      10.89559796       0.00000103      -0.00000084       0.00000037
Re       0.00000140      -0.00000052      -0.00000092      -0.00006868       0.00001941       0.00005688
F        1.54706483       1.09393974       7.26373261       0.00196469       0.00138889      -0.00000042
F        6.84036948       4.83687316       7.26373355      -0.00192979      -0.00136511      -0.00000125
F        5.51704326       1.09393994       4.97166363      -0.00095946       0.00135824       0.00166340
F        2.87039134       4.83687419       9.55580317       0.00099050      -0.00140136      -0.00171748
F        2.87039073       4.83687363       4.97166375       0.00097401      -0.00137624       0.00168589
F        5.51704339       1.09393989       9.55580198      -0.00097261       0.00137644      -0.00168717
