9
Lattice="6.1236417298424834 3.332027602140013e-07 3.5354856192463657 2.0412142949423573 5.773424661749695 3.535485496533449 2.0016913246500497e-07 -8.751093070880534e-09 7.070970891789736" Properties=species:S:1:pos:R:3:forces:R:3 energy=-22.770349502563477 free_energy=-22.770349502563477 stress="7.776033453410491e-05 -4.801726793957073e-10 9.556893054707416e-09 -4.801726793957073e-10 7.772773824399337e-05 -2.3058198905800964e-08 9.556893054707416e-09 -2.3058198905800964e-08 7.770350202918053e-05" pbc="T T T"
Hg       2.04121433       1.44335652       3.53548542      -0.00000002       0.00000025       0.00000008
Hg       6.12364215       4.33006871      10.60645631      -0.00000020      -0.00000003       0.00000035
Rh       0.00000027       0.00000031       0.00000120      -0.00000438      -0.00000837      -0.00002236
Cl       1.91501004       1.35411695       7.07097164      -0.00176403      -0.00124715      -0.00000033
Cl       6.24984542       4.41930839       7.07097152       0.00177082       0.00125025      -0.00000049
Cl       5.16613655       1.35411655       5.19393228       0.00087911      -0.00124183      -0.00152089
Cl       2.99872015       4.41930791       8.94800864      -0.00088710       0.00125417       0.00153548
Cl       2.99871976       4.41930788       5.19393260      -0.00088134       0.00124630      -0.00152607
Cl       5.16613635       1.35411684       8.94800856       0.00088735      -0.00125353       0.00153451
