9
Lattice="6.574092319912771 2.5527756768688475e-10 3.7955541243319955 2.191364141470181 6.198113481900459 3.7955540644169568 1.0374907288661412e-07 -1.8838700448344276e-11 7.591108068965343" Properties=species:S:1:pos:R:3:forces:R:3 energy=-24.99696159362793 free_energy=-24.99696159362793 stress="0.0001025162564474158 -3.4067682008753764e-09 6.188099810344738e-09 -3.4067682008753764e-09 0.0001025045639835298 -1.0804718009183034e-08 6.188099810344738e-09 -1.0804718009183034e-08 0.00010251619823975489" pbc="T T T"
Hg       2.19136421       1.54952880       3.79555414      -0.00000003      -0.00000044      -0.00000008
Hg       6.57409246       4.64858526      11.38666223       0.00000020      -0.00000019      -0.00000052
Re       0.00000065       0.00000039      -0.00000086      -0.00000646      -0.00000358       0.00001821
Br       2.04454923       1.44571401       7.59110769      -0.00380926      -0.00269228       0.00000093
Br       6.72090681       4.75239880       7.59110775       0.00381517       0.00269724       0.00000133
Br       5.55181702       1.44571468       5.56618589       0.00190947      -0.00269919      -0.00330530
Br       3.21363819       4.75239959       9.61603123      -0.00190171       0.00268907       0.00329374
Br       3.21363959       4.75239847       5.56618597      -0.00191009       0.00269978      -0.00330478
Br       5.55181823       1.44571400       9.61603086       0.00190294      -0.00269055       0.00329645
