9
Lattice="6.6512321095791656 -4.682628943281325e-09 3.8400904823407807 2.2170773704507076 6.270841685561933 3.8400904736707457 -1.0472074001008798e-07 -8.466753844627238e-08 7.68018114606342" Properties=species:S:1:pos:R:3:forces:R:3 energy=-18.78308868408203 free_energy=-18.78308868408203 stress="8.591832738602534e-06 -2.0883552664940908e-08 3.330264952694506e-09 -2.0883552664940908e-08 8.606544724898413e-06 -3.2688551865334148e-09 3.330264952694506e-09 -3.2688551865334148e-09 8.613486897957046e-06" pbc="T T T"
Hg       2.21707748       1.56771044       3.84009066       0.00000006      -0.00000005       0.00000011
Hg       6.65123208       4.70313123      11.52027129       0.00000007      -0.00000011      -0.00000014
Ru      -0.00000022      -0.00000022      -0.00000037       0.00000198       0.00000265       0.00000277
I        2.20105007       1.55637770       7.68018114       0.00619621       0.00438133      -0.00000011
I        6.66725952       4.71446401       7.68018099      -0.00619932      -0.00438342       0.00000054
I        5.55070690       1.55637795       5.74625579      -0.00309728       0.00437977       0.00536443
I        3.31760210       4.71446399       9.61410660       0.00309908      -0.00438172      -0.00536677
I        3.31760256       4.71446410       5.74625582       0.00309747      -0.00438017       0.00536533
I        5.55070695       1.55637714       9.61410649      -0.00309826       0.00438171      -0.00536615
