9
Lattice="6.926988043846814 -5.49904204833021e-08 3.9992984629362502 2.3089959686036363 6.530826932758771 3.9992984528323303 1.1590482896989845e-08 -4.179006864594162e-09 7.998596905797192" Properties=species:S:1:pos:R:3:forces:R:3 energy=-21.702499389648438 free_energy=-21.702499389648438 stress="0.00020254783157724887 -5.41147393562369e-09 7.259274070747779e-09 -5.41147393562369e-09 0.0002025538415182382 -8.737139012282569e-09 7.259274070747779e-09 -8.737139012282569e-09 0.0002025583089562133" pbc="T T T"
Hg       2.30899600       1.63270668       3.99929846       0.00000014       0.00000014      -0.00000033
Hg       6.92698803       4.89812018      11.99789537      -0.00000015      -0.00000010       0.00000037
Re       0.00000003       0.00000001       0.00000027       0.00000027      -0.00000074      -0.00000194
I        2.22419053       1.57274015       7.99859692       0.00180687       0.00127754      -0.00000007
I        7.01179348       4.95808673       7.99859690      -0.00180672      -0.00127740       0.00000049
I        5.81489273       1.57274024       5.92550405      -0.00090458       0.00127865       0.00156623
I        3.42109137       4.95808657      10.07168963       0.00090408      -0.00127791      -0.00156534
I        3.42109129       4.95808662       5.92550408       0.00090356      -0.00127785       0.00156521
I        5.81489264       1.57274032      10.07168962      -0.00090336       0.00127782      -0.00156463
