9
Lattice="6.643190420690718 -1.1922507844187605e-07 3.8354478167579917 2.214396617777228 6.263260016167649 3.8354479496292844 1.2592907624079138e-08 1.716379611132282e-07 7.670895611704332" Properties=species:S:1:pos:R:3:forces:R:3 energy=-17.923046112060547 free_energy=-17.923046112060547 stress="-4.8695925215724856e-05 -3.01628659826747e-08 1.917874925538854e-08 -3.01628659826747e-08 -4.8668120143702254e-05 -2.4162988054854395e-08 1.917874925538854e-08 -2.4162988054854395e-08 -4.865127266384661e-05" pbc="T T T"
Hg       2.21439654       1.56581485       3.83544795      -0.00000006      -0.00000026       0.00000013
Hg       6.64319029       4.69744541      11.50634361      -0.00000013       0.00000022       0.00000006
Rh      -0.00000026       0.00000005      -0.00000011       0.00000184       0.00000192       0.00000066
I        2.18777962       1.54699363       7.67089576      -0.00046594      -0.00032917       0.00000050
I        6.66980739       4.71626603       7.67089555       0.00046413       0.00032848       0.00000026
I        5.54930020       1.54699428       5.73012103       0.00023417      -0.00033183      -0.00040559
I        3.30828691       4.71626606       9.61167019      -0.00023318       0.00033024       0.00040444
I        3.30828727       4.71626542       5.73012159      -0.00023570       0.00033268      -0.00040748
I        5.54930018       1.54699451       9.61166990       0.00023488      -0.00033224       0.00040707
