9
Lattice="6.368489922901421 -1.375987881580719e-07 3.676849390288413 2.1228298345466676 6.004269869056196 3.6768494076511753 -2.9503683332266152e-08 4.0269617540175675e-10 7.353698831678664" Properties=species:S:1:pos:R:3:forces:R:3 energy=-21.81497573852539 free_energy=-21.81497573852539 stress="-6.271748134167865e-06 -1.9368107118111766e-08 2.6700455180161953e-09 -1.9368107118111766e-08 -6.24825588602107e-06 -1.0272739991989965e-08 2.6700455180161953e-09 -1.0272739991989965e-08 -6.2409890233539045e-06" pbc="T T T"
Hg       2.12282975       1.50106745       3.67684953       0.00000011       0.00000019       0.00000013
Hg       6.36848997       4.50320230      11.03054810      -0.00000011      -0.00000007      -0.00000001
Ru      -0.00000017       0.00000020       0.00000035       0.00000033      -0.00000199      -0.00000409
Br       2.03270730       1.43734102       7.35369887       0.00140558       0.00099358       0.00000013
Br       6.45861233       4.56692856       7.35369898      -0.00140403      -0.00099231      -0.00000102
Br       5.35213612       1.43734121       5.43722569      -0.00070266       0.00099321       0.00121577
Br       3.13918389       4.56692820       9.27017163       0.00069950      -0.00099018      -0.00121270
Br       3.13918375       4.56692837       5.43722579       0.00070204      -0.00099209       0.00121464
Br       5.35213596       1.43734157       9.27017154      -0.00070079       0.00098967      -0.00121278
