9
Lattice="6.593141320450987 7.705246967490752e-08 3.806551800146422 2.197713828112842 6.216073401045803 3.806551831351965 -1.9931295841185864e-07 -1.0271653403686448e-07 7.613103945512944" Properties=species:S:1:pos:R:3:forces:R:3 energy=-19.010997772216797 free_energy=-19.010997772216797 stress="-0.00011165162868564948 8.231205939068786e-09 -1.1916014841517608e-08 8.231205939068786e-09 -0.00011161955626448616 -5.128111268959401e-10 -1.1916014841517608e-08 -5.128111268959401e-10 -0.00011164036550326273" pbc="T T T"
Hg       2.19771333       1.55401841       3.80655170       0.00000009      -0.00000037       0.00000025
Hg       6.59314163       4.66205518      11.41965550      -0.00000032      -0.00000013       0.00000039
Si       0.00000023      -0.00000047       0.00000052      -0.00000010       0.00000384      -0.00000533
Br       1.96853798       1.39196695       7.61310402       0.00634630       0.00448699      -0.00000153
Br       6.82231830       4.82410705       7.61310456      -0.00635444      -0.00449060      -0.00000323
Br       5.60887281       1.39196569       5.51135530      -0.00317589       0.00449353       0.00549878
Br       3.18198249       4.82410657       9.71485241       0.00317421      -0.00448596      -0.00549915
Br       3.18198068       4.82410742       5.51135419       0.00318169      -0.00449349       0.00550465
Br       5.60887251       1.39196640       9.71485235      -0.00317161       0.00448592      -0.00549480
