9
Lattice="6.441146548368773 1.4907968099111978e-07 3.718797675746802 2.147049004445896 6.072771427845374 3.718797650742486 2.436125276101334e-07 1.4163621312793908e-07 7.437594929544194" Properties=species:S:1:pos:R:3:forces:R:3 energy=-17.462373733520508 free_energy=-17.462373733520508 stress="-0.00016079348279163241 -1.1827091528360256e-09 1.4540018966613388e-08 -1.1827091528360256e-09 -0.00016080396017059684 -1.7477075786587193e-08 1.4540018966613388e-08 -1.7477075786587193e-08 -0.00016080494970083237" pbc="T T T"
Hg       2.14704805       1.51819324       3.71879709       0.00000013      -0.00000003      -0.00000001
Hg       6.44114656       4.55457849      11.15639248       0.00000027       0.00000006       0.00000031
Se       0.00000116       0.00000013       0.00000189      -0.00000916       0.00000068      -0.00001971
Cl       1.97575494       1.39706967       7.43759432       0.00535867       0.00378783       0.00000201
Cl       6.61244103       4.67570200       7.43759478      -0.00535452      -0.00378627       0.00000169
Cl       5.45326912       1.39706951       5.42985094      -0.00267786       0.00378864       0.00464344
Cl       3.13492677       4.67570184       9.44533935       0.00267780      -0.00378552      -0.00463727
Cl       3.13492651       4.67570143       5.42985114       0.00267974      -0.00378838       0.00464314
Cl       5.45326898       1.39707065       9.44533895      -0.00267531       0.00378285      -0.00463393
