9
Lattice="5.438229416294693 9.9706604765421e-08 3.139763373480585 1.8127431849148534 5.1272127339889915 3.1397634563667016 -3.5001816968758496e-07 -1.459858596695608e-07 6.279527353210495" Properties=species:S:1:pos:R:3:forces:R:3 energy=-26.62460708618164 free_energy=-26.62460708618164 stress="0.00026523147244006395 -1.8034135962352593e-08 5.5065228821149503e-08 -1.8034135962352593e-08 0.00026512867771089077 6.061123514200517e-08 5.5065228821149503e-08 6.061123514200517e-08 0.0002651113027241081" pbc="T T T"
Hg       1.81274191       1.28180367       3.13976371      -0.00000587       0.00000279       0.00000023
Hg       5.43823110       3.84540857       9.41928681       0.00000805      -0.00000531      -0.00001837
Sr      -0.00000006      -0.00000018      -0.00000031       0.00000094       0.00000274      -0.00000060
F        1.88949077       1.33607250       6.27952682      -0.00032601      -0.00022763      -0.00000057
F        5.36148145       3.79114059       6.27952916       0.00032240       0.00022772       0.00000793
F        4.49348461       1.33607211       4.77611178       0.00016522      -0.00023243      -0.00027736
F        2.75748790       3.79113942       7.78294368      -0.00016257       0.00022838       0.00028203
F        2.75748660       3.79114051       4.77611159      -0.00016791       0.00022723      -0.00027427
F        4.49348478       1.33607365       7.78294355       0.00016569      -0.00022358       0.00028092
