9
Lattice="8.337509528499547 -2.4439078516744314e-07 4.813663455449247 2.7791698680981134 7.86067896663785 4.813663012600284 3.07861014451173e-07 -3.24686127253129e-07 9.627326377667151" Properties=species:S:1:pos:R:3:forces:R:3 energy=-16.019241333007812 free_energy=-16.019241333007812 stress="6.0927410231670365e-05 2.5185094898461102e-08 5.807970993032541e-09 2.5185094898461102e-08 6.098454468883574e-05 -6.968771337767521e-09 5.807970993032541e-09 -6.968771337767521e-09 6.0948324971832335e-05" pbc="T T T"
Hg       2.77916899       1.96516922       4.81366351      -0.00000042       0.00000108       0.00000048
Hg       8.33751048       5.89550909      14.44098923       0.00000025      -0.00000022       0.00000002
Sr       0.00000021       0.00000118       0.00000192      -0.00000057      -0.00000546      -0.00000661
I        2.67756328       1.89333155       9.62732574       0.00367512       0.00259284      -0.00000011
I        8.43911597       5.96734613       9.62732659      -0.00367191      -0.00259040       0.00000036
I        6.99873167       1.89332743       7.13250420      -0.00184169       0.00259764       0.00318287
I        4.11794855       5.96735129      12.12214746       0.00183879      -0.00259479      -0.00317892
I        4.11794923       5.96735121       7.13250468       0.00183950      -0.00259557       0.00318046
I        6.99873044       1.89332665      12.12214775      -0.00183907       0.00259487      -0.00317866
