9
Lattice="7.7552230101103845 -8.242908467069417e-07 4.477480769020074 2.585074302489524 7.31169364269781 4.477479482219057 8.666207704090431e-07 -9.632094638780558e-07 8.954960037009014" Properties=species:S:1:pos:R:3:forces:R:3 energy=-21.092187881469727 free_energy=-21.092187881469727 stress="-1.4639956134487875e-05 -8.332465384341958e-09 3.273127902048145e-08 -8.332465384341958e-09 -1.4616527550970204e-05 -3.836480289010069e-08 3.273127902048145e-08 -3.836480289010069e-08 -1.461439660488395e-05" pbc="T T T"
Hg       2.58507477       1.82792312       4.47748085      -0.00000019       0.00000007       0.00000008
Hg       7.75522312       5.48376884      13.43243954       0.00000020       0.00000013       0.00000002
Sc      -0.00000101       0.00000050       0.00000045       0.00001156      -0.00000358      -0.00000233
I        2.35310752       1.66389719       8.95496111       0.00155385       0.00109734      -0.00000085
I        7.98719184       5.64779563       8.95495987      -0.00156084      -0.00110300       0.00000012
I        6.57867078       1.66389604       6.51532903      -0.00078189       0.00110460       0.00135366
I        3.76162703       5.64779494      11.39459022       0.00077886      -0.00109906      -0.00134664
I        3.76162763       5.64779517       6.51533088       0.00077506      -0.00109503       0.00134142
I        6.57867111       1.66389596      11.39458903      -0.00077654       0.00109848      -0.00134550
