9
Lattice="6.6709710242732605 2.3440663021368025e-09 3.8514869249460637 2.223657009954073 6.289451909425476 3.8514869255472375 1.2306270825489549e-08 9.438127957702526e-09 7.702973828576961" Properties=species:S:1:pos:R:3:forces:R:3 energy=-11.986244201660156 free_energy=-11.986244201660156 stress="-9.812183998292312e-05 -4.956332566585786e-10 -1.645049985121716e-09 -4.956332566585786e-10 -9.812267671804875e-05 -3.650714397451793e-09 -1.645049985121716e-09 -3.650714397451793e-09 -9.810658957576379e-05" pbc="T T T"
Hg       2.22365695       1.57236301       3.85148694      -0.00000030      -0.00000022       0.00000008
Hg       6.67097096       4.71708895      11.55446082      -0.00000009       0.00000022      -0.00000004
S        0.00000004      -0.00000010       0.00000006       0.00000016       0.00000010      -0.00000030
I        2.36054969       1.66916054       7.70297383      -0.00055295      -0.00039108       0.00000023
I        6.53407845       4.62029135       7.70297392       0.00055334       0.00039093       0.00000002
I        5.49069614       1.66916063       5.89578290       0.00027618      -0.00039133      -0.00047894
I        3.40393189       4.62029129       9.51016469      -0.00027648       0.00039130       0.00047888
I        3.40393190       4.62029131       5.89578300      -0.00027627       0.00039123      -0.00047895
I        5.49069623       1.66916071       9.51016455       0.00027652      -0.00039117       0.00047901
