9
Lattice="4.6932198521389825 1.3081229685326848e-08 2.7096317430166788 1.5644066347966883 4.42481011332434 2.7096317342110594 2.2469623074395457e-08 5.1037876057940824e-09 5.419263447114839" Properties=species:S:1:pos:R:3:forces:R:3 energy=-26.8903865814209 free_energy=-26.8903865814209 stress="-0.0004295471590012312 3.825812555646735e-08 -4.046081247821576e-09 3.825812555646735e-08 -0.00042960760765708983 1.135379523731217e-08 -4.046081247821576e-09 1.135379523731217e-08 -0.0004296107217669487" pbc="T T T"
Hg       1.56440660       1.10620262       2.70963172       0.00000029       0.00000029      -0.00000030
Hg       4.69321988       3.31860750       8.12889525       0.00000070      -0.00000028       0.00000063
S        0.00000014       0.00000005       0.00000007       0.00000016       0.00000177       0.00000041
F        1.50301437       1.06279158       5.41926345       0.00717327       0.00507249      -0.00000027
F        4.75461207       3.36201845       5.41926347      -0.00717318      -0.00507315      -0.00000034
F        3.94171267       1.06279162       4.01128024      -0.00358836       0.00507490       0.00621545
F        2.31591381       3.36201858       6.82724674       0.00358723      -0.00507449      -0.00621513
F        2.31591384       3.36201852       4.01128014       0.00358854      -0.00507598       0.00621608
F        3.94171268       1.06279159       6.82724664      -0.00358880       0.00507468      -0.00621673
