9
Lattice="6.439857445194545 2.002441128023945e-07 3.7180528162047275 2.1466188887216204 6.071557382417789 3.7180535929744476 -2.4991902037749595e-07 7.746257437257166e-07 7.436106065281579" Properties=species:S:1:pos:R:3:forces:R:3 energy=-23.1180362701416 free_energy=-23.1180362701416 stress="-7.489221843570704e-06 -4.332228087378098e-08 -7.080068087361724e-08 -4.332228087378098e-08 -7.367555099335732e-06 4.7185363172275174e-08 -7.080068087361724e-08 4.7185363172275174e-08 -7.76136675995076e-06" pbc="T T T"
Hg       2.14661873       1.51788965       3.71805372      -0.00000094      -0.00000116      -0.00000066
Hg       6.43985720       4.55366862      11.15415844       0.00000178       0.00000192       0.00000087
Si      -0.00000048       0.00000022       0.00000038       0.00000279      -0.00000784      -0.00001066
Cl       1.79583975       1.26985196       7.43610585       0.00038815       0.00027120       0.00000288
Cl       6.79063500       4.80170503       7.43610735      -0.00037235      -0.00025913      -0.00000317
Cl       5.54193638       1.26985379       5.27329469      -0.00018942       0.00025970       0.00034285
Cl       3.04454082       4.80170529       9.59891707       0.00017700      -0.00025794      -0.00033358
Cl       3.04453973       4.80170554       5.27329438       0.00018829      -0.00026673       0.00034696
Cl       5.54193730       1.26985382       9.59891768      -0.00019526       0.00026017      -0.00034544
