9
Lattice="4.692548234241417 -1.4196622518428396e-08 2.7092440321591402 1.5641827271832678 4.424176956073517 2.7092440393976367 7.2663736322999664e-09 1.4003426250329483e-08 5.4184880517325515" Properties=species:S:1:pos:R:3:forces:R:3 energy=-26.890369415283203 free_energy=-26.890369415283203 stress="5.9357178542995825e-05 -8.022293052079021e-09 -2.5343746656858457e-08 -8.022293052079021e-09 5.936833986197598e-05 -1.3059217596200767e-10 -2.5343746656858457e-08 -1.3059217596200767e-10 5.938330650678836e-05" pbc="T T T"
Hg       1.56418263       1.10604422       2.70924409       0.00000038      -0.00000064       0.00000067
Hg       4.69254813       3.31813265       8.12773200       0.00000015       0.00000037      -0.00000131
S       -0.00000022      -0.00000013       0.00000064       0.00000398       0.00000078      -0.00000664
F        1.50434156       1.06373017       5.41848800      -0.00719431      -0.00508671       0.00000153
F        4.75238970       3.36044697       5.41848805       0.00719330       0.00508817       0.00000192
F        3.94037747       1.06373022       4.01204193       0.00359651      -0.00508913      -0.00622937
F        2.31635357       3.36044687       6.82493385      -0.00359675       0.00508565       0.00623107
F        2.31635359       3.36044668       4.01204202      -0.00359903       0.00508803      -0.00622943
F        3.94037747       1.06373018       6.82493391       0.00359580      -0.00508648       0.00623149
