9
Lattice="6.624783166803154 -3.603412156951543e-07 3.8248206370570483 2.20826094249296 6.245905292319079 3.824820244530072 3.712514278382851e-07 -2.1823044240370965e-07 7.64964063108752" Properties=species:S:1:pos:R:3:forces:R:3 energy=-16.96316146850586 free_energy=-16.96316146850586 stress="1.6581510863034055e-05 1.4181298801929643e-08 -2.710901725322401e-08 1.4181298801929643e-08 1.6717945982236415e-05 4.693906774377865e-08 -2.710901725322401e-08 4.693906774377865e-08 1.662044451222755e-05" pbc="T T T"
Hg       2.20826065       1.56147659       3.82482118       0.00000054      -0.00000084      -0.00000053
Hg       6.62478338       4.68442831      11.47446080      -0.00000054       0.00000094       0.00000040
S       -0.00000090       0.00000029       0.00000008       0.00000932      -0.00000531       0.00000152
Cl       1.90503382       1.34706363       7.64963858       0.00030845       0.00021413       0.00000311
Cl       6.92801350       4.89884049       7.64963872      -0.00031538      -0.00021295       0.00000329
Cl       5.67226649       1.34706263       5.47462908      -0.00015542       0.00021366       0.00026406
Cl       3.16077710       4.89884098       9.82465360       0.00015501      -0.00021109      -0.00026571
Cl       3.16077638       4.89884293       5.47462828       0.00015793      -0.00021707       0.00026834
Cl       5.67226769       1.34706301       9.82465622      -0.00015984       0.00021842      -0.00027445
