9
Lattice="6.616544054413025 2.501191859441804e-08 3.8200638791912285 2.2055147964647803 6.238137580881795 3.820063726634366 -4.59350773107876e-08 -2.1932432038172372e-07 7.640127837944391" Properties=species:S:1:pos:R:3:forces:R:3 energy=-16.963134765625 free_energy=-16.963134765625 stress="-0.00010059142368845642 2.638546803268582e-08 1.9931219341629003e-08 2.638546803268582e-08 -0.00010061847569886595 -1.0685401896637359e-08 1.9931219341629003e-08 -1.0685401896637359e-08 -0.00010065401875181124" pbc="T T T"
Hg       2.20551467       1.55953401       3.82006406       0.00000015      -0.00000014      -0.00000029
Hg       6.61654457       4.67860316      11.46019201       0.00000001       0.00000025       0.00000014
S        0.00000015      -0.00000019      -0.00000025      -0.00000228       0.00000079      -0.00000092
Cl       1.90484858       1.34693135       7.64012733       0.00223416       0.00157781      -0.00000035
Cl       6.91720800       4.89120649       7.64012737      -0.00222917      -0.00157797       0.00000147
Cl       5.66412106       1.34693175       5.46971070      -0.00111970       0.00158088       0.00193813
Cl       3.15793872       4.89120567       9.81054514       0.00111838      -0.00158153      -0.00193891
Cl       3.15793956       4.89120567       5.46971047       0.00111586      -0.00158012       0.00193662
Cl       5.66412005       1.34693151       9.81054448      -0.00111752       0.00158011      -0.00193580
