9
Lattice="6.71414924102562 -5.483245496575078e-08 3.876415957672609 2.2380497290141323 6.330160543347862 3.876415899298807 7.904997004392187e-08 -1.5596225908709766e-08 7.75283177842679" Properties=species:S:1:pos:R:3:forces:R:3 energy=-14.620063781738281 free_energy=-14.620063781738281 stress="-3.275068957009353e-05 -4.891955729391384e-09 3.5253502339571696e-09 -4.891955729391384e-09 -3.27442103298381e-05 -4.8481934022959194e-09 3.5253502339571696e-09 -4.8481934022959194e-09 -3.273906622780487e-05" pbc="T T T"
Hg       2.23804942       1.58254026       3.87641604       0.00000029       0.00000000      -0.00000017
Hg       6.71414944       4.74762037      11.62924776      -0.00000014       0.00000003       0.00000004
Se       0.00000004       0.00000046       0.00000022      -0.00000008      -0.00000202      -0.00000043
Br       2.12036938       1.49932753       7.75283183       0.00147530       0.00104281      -0.00000022
Br       6.83182960       4.83083276       7.75283163      -0.00147444      -0.00104243       0.00000050
Br       5.65396459       1.49932791       5.71270998      -0.00073735       0.00104229       0.00127654
Br       3.29823452       4.83083262       9.79295360       0.00073711      -0.00104186      -0.00127593
Br       3.29823448       4.83083267       5.71270999       0.00073668      -0.00104181       0.00127625
Br       5.65396482       1.49932724       9.79295364      -0.00073733       0.00104289      -0.00127678
