9
Lattice="6.818365302242543 -5.972086614413803e-09 3.9365849414554597 2.27278832944678 6.428416229366951 3.9365851129346323 -5.6289135189284734e-08 1.7021590151322886e-07 7.873169980406544" Properties=species:S:1:pos:R:3:forces:R:3 energy=-24.176698684692383 free_energy=-24.176698684692383 stress="-6.041019150870852e-05 -2.991539105323682e-08 -3.6029319527841608e-09 -2.991539105323682e-08 -6.0386970289982855e-05 8.463852729789778e-09 -3.6029319527841608e-09 8.463852729789778e-09 -6.036199556547217e-05" pbc="T T T"
Hg       2.27278841       1.60710444       3.93658491      -0.00000022      -0.00000018      -0.00000022
Hg       6.81836506       4.82131188      11.80975498       0.00000030       0.00000020      -0.00000008
Sc       0.00000010       0.00000014      -0.00000013       0.00000124       0.00000227       0.00000004
Br       2.16385360       1.53007556       7.87317001       0.00193398       0.00136792      -0.00000003
Br       6.92730042       4.89834114       7.87317002      -0.00193676      -0.00136967       0.00000058
Br       5.73643808       1.53007593       5.81053759      -0.00096440       0.00136477       0.00167105
Br       3.35471505       4.89834055       9.93580263       0.00096596      -0.00136606      -0.00167222
Br       3.35471531       4.89834014       5.81053753       0.00096553      -0.00136518       0.00167318
Br       5.73643819       1.53007577       9.93580259      -0.00096560       0.00136592      -0.00167243
