9
Lattice="6.52335651490703 -2.5839487405248935e-08 3.7662618649625452 2.1744520797911067 6.1502795987415775 3.7662619818460885 1.2101790342924996e-07 2.2872526306091359e-07 7.532523520315812" Properties=species:S:1:pos:R:3:forces:R:3 energy=-21.337364196777344 free_energy=-21.337364196777344 stress="-1.7252998077310622e-05 -2.7936859936517067e-08 -7.609509466988129e-09 -2.7936859936517067e-08 -1.7236214262084104e-05 1.8243687449626123e-08 -7.609509466988129e-09 1.8243687449626123e-08 -1.7189257050631568e-05" pbc="T T T"
Hg       2.17445235       1.53756973       3.76626142       0.00000002       0.00000003      -0.00000004
Hg       6.52335662       4.61270992      11.29878576       0.00000001      -0.00000015       0.00000002
Sn      -0.00000031       0.00000029       0.00000097       0.00000677       0.00000039      -0.00001175
Cl       2.01123145       1.42215504       7.53252315       0.00096393       0.00068320       0.00000004
Cl       6.68657806       4.72812452       7.53252332      -0.00097218      -0.00068715       0.00000020
Cl       5.51774074       1.42215512       5.50803940      -0.00048340       0.00068492       0.00083686
Cl       3.18006826       4.72812472       9.55700771       0.00047964      -0.00067793      -0.00083034
Cl       3.18006727       4.72812469       5.50803940       0.00048497      -0.00068477       0.00083794
Cl       5.51774046       1.42215522       9.55700816      -0.00047989       0.00068135      -0.00083296
