9
Lattice="6.834937460888817 -1.2328312489729014e-07 3.9461530007119143 2.278312512743946 6.444040578769328 3.946152754737515 1.2397678193510947e-07 -2.135912758582721e-07 7.8923057866898745" Properties=species:S:1:pos:R:3:forces:R:3 energy=-12.320297241210938 free_energy=-12.320297241210938 stress="-1.389071621815674e-05 -1.2352185940756044e-08 2.7115016898449085e-09 -1.2352185940756044e-08 -1.3883665815228596e-05 -5.193768526368103e-09 2.7115016898449085e-09 -5.193768526368103e-09 -1.388611963193398e-05" pbc="T T T"
Hg       2.27831215       1.61101017       3.94615272      -0.00000008       0.00000011      -0.00000052
Hg       6.83493808       4.83302998      11.83845901       0.00000008      -0.00000011       0.00000014
Se      -0.00000042       0.00000023      -0.00000084       0.00000088      -0.00000062       0.00000278
I        2.36920006       1.67527740       7.89230576       0.00011155       0.00007909       0.00000005
I        6.74405002       4.76876267       7.89230591      -0.00011213      -0.00007938      -0.00000060
I        5.65033703       1.67527745       5.99794037      -0.00005557       0.00007857       0.00009625
I        3.46291315       4.76876281       9.78667142       0.00005566      -0.00007846      -0.00009727
I        3.46291291       4.76876276       5.99794036       0.00005550      -0.00007791       0.00009632
I        5.65033740       1.67527748       9.78667141      -0.00005585       0.00007879      -0.00009720
