9
Lattice="7.021399304955014 3.3453225262158256e-07 4.0538065608501626 2.3404665952479995 6.619838913631436 4.053806829555334 -2.1227306531932052e-07 1.7899561588309183e-07 8.107613489367989" Properties=species:S:1:pos:R:3:forces:R:3 energy=-14.818065643310547 free_energy=-14.818065643310547 stress="0.00012934619735460728 -2.5022741212410438e-08 1.0983204568049132e-08 -2.5022741212410438e-08 0.00012937505380250514 -1.3581373359272675e-08 1.0983204568049132e-08 -1.3581373359272675e-08 0.00012939804582856596" pbc="T T T"
Hg       2.34046658       1.65495989       4.05380667      -0.00000012      -0.00000053      -0.00000023
Hg       7.02139914       4.96487960      12.16142018      -0.00000023       0.00000047      -0.00000007
Sn      -0.00000004       0.00000022      -0.00000092      -0.00000006      -0.00000033       0.00000272
I        2.41801473       1.70979587       8.10761350      -0.00524032      -0.00370604      -0.00000032
I        6.94385076       4.91004321       8.10761328       0.00524104       0.00370665       0.00000069
I        5.81239166       1.70979585       6.14787005       0.00261950      -0.00370699      -0.00454034
I        3.54947396       4.91004400      10.06735741      -0.00261877       0.00370587       0.00453900
I        3.54947434       4.91004421       6.14787000      -0.00262238       0.00370719      -0.00454217
I        5.81239158       1.70979488      10.06735733       0.00262129      -0.00370617       0.00454080
