9
Lattice="6.868087744677969 1.221607811287691e-07 3.9652922936960113 2.2893627220124024 6.475295408798013 3.9652922499114482 -3.81109636434848e-09 -5.63194911903393e-08 7.930584593993026" Properties=species:S:1:pos:R:3:forces:R:3 energy=-15.696718215942383 free_energy=-15.696718215942383 stress="-0.0001313481479883194 7.980323069034512e-09 2.0381409893133196e-09 7.980323069034512e-09 -0.00013134827895555645 -1.865791077193535e-09 2.0381409893133196e-09 -1.865791077193535e-09 -0.00013136371853761375" pbc="T T T"
Hg       2.28936237       1.61882383       3.96529218      -0.00000032       0.00000002       0.00000011
Hg       6.86808830       4.85647170      11.89587688       0.00000029       0.00000007      -0.00000004
Si      -0.00000015       0.00000030       0.00000011       0.00000048      -0.00000117       0.00000014
I        2.19324011       1.55085579       7.93058419       0.00526396       0.00372181       0.00000019
I        6.96421034       4.92443972       7.93058466      -0.00526394      -0.00372253      -0.00000008
I        5.77146776       1.55085497       5.86469365      -0.00263281       0.00372325       0.00456047
I        3.38598253       4.92444051       9.99647537       0.00263294      -0.00372285      -0.00455939
I        3.38598289       4.92444024       5.86469413       0.00263264      -0.00372148       0.00455878
I        5.77146770       1.55085484       9.99647547      -0.00263327       0.00372286      -0.00456015
