9
Lattice="6.71011746708494 -1.2013985230443323e-07 3.8740882780081933 2.2367056806717884 6.326359335781226 3.8740883272348294 4.1633408161020464e-08 8.972910396428105e-08 7.7481764839053175" Properties=species:S:1:pos:R:3:forces:R:3 energy=-14.62005615234375 free_energy=-14.62005615234375 stress="-5.5724089179420844e-05 -3.3332905324812145e-09 2.846225033437122e-09 -3.3332905324812145e-09 -5.5715518101351336e-05 -6.90687285143099e-09 2.846225033437122e-09 -6.90687285143099e-09 -5.572250302066095e-05" pbc="T T T"
Hg       2.23670563       1.58158989       3.87408852       0.00000005       0.00000010       0.00000005
Hg       6.71011746       4.74476946      11.62226464       0.00000003       0.00000005      -0.00000009
Se       0.00000017       0.00000048       0.00000026      -0.00000080      -0.00000258      -0.00000270
Br       2.12045179       1.49938596       7.74817656       0.00124316       0.00087850       0.00000012
Br       6.82637141       4.82697297       7.74817641      -0.00124130      -0.00087714      -0.00000022
Br       5.64989121       1.49938604       5.71045358      -0.00062166       0.00087860       0.00107686
Br       3.29693217       4.82697271       9.78589938       0.00062025      -0.00087684      -0.00107475
Br       3.29693170       4.82697302       5.71045361       0.00062105      -0.00087751       0.00107571
Br       5.64989126       1.49938660       9.78589949      -0.00062077       0.00087689      -0.00107494
