9
Lattice="6.5199340388382865 -3.9487771208979694e-07 3.764286138951508 2.1733110730499177 6.147052854706118 3.764285967366315 1.1839104078172622e-07 -1.2643295466805486e-07 7.528572072843899" Properties=species:S:1:pos:R:3:forces:R:3 energy=-21.33735466003418 free_energy=-21.33735466003418 stress="-7.252034993143752e-05 -1.0663936933497098e-07 6.9184156181734124e-09 -1.0663936933497098e-07 -7.245869346661493e-05 -8.960507003052953e-09 6.9184156181734124e-09 -8.960507003052953e-09 -7.237082900246605e-05" pbc="T T T"
Hg       2.17331156       1.53676296       3.76428633       0.00000002      -0.00000004      -0.00000020
Hg       6.51993369       4.61028928      11.29285808       0.00000003      -0.00000003       0.00000012
Sn      -0.00000018      -0.00000064       0.00000125       0.00000500       0.00000694      -0.00001382
Cl       2.01112946       1.42208355       7.52857222       0.00191213       0.00135210      -0.00000043
Cl       6.68211588       4.72496957       7.52857204      -0.00191957      -0.00135814      -0.00000007
Cl       5.51436837       1.42208415       5.50597705      -0.00095418       0.00134973       0.00165242
Cl       3.17887710       4.72496780       9.55116628       0.00095031      -0.00134362      -0.00164536
Cl       3.17887706       4.72496819       5.50597739       0.00095431      -0.00134939       0.00165156
Cl       5.51436803       1.42208443       9.55116620      -0.00094812       0.00134252      -0.00164402
