9
Lattice="4.673697254427968 6.979349820785227e-08 2.698360934095026 1.5578991259147574 4.406404515793199 2.69836097687055 1.6395501055770995e-08 6.398251898358001e-08 5.396721839791971" Properties=species:S:1:pos:R:3:forces:R:3 energy=-36.02561950683594 free_energy=-36.02561950683594 stress="-0.00014424430264625698 -5.753437903877057e-08 2.9076497654045852e-08 -5.753437903877057e-08 -0.0001440383930457756 4.1289485608331233e-08 2.9076497654045852e-08 4.1289485608331233e-08 -0.00014389987336471677" pbc="T T T"
Hg       1.55789899       1.10160163       2.69836140      -0.00000018      -0.00000212      -0.00000117
Hg       4.67369702       3.30480322       8.09508366       0.00000119       0.00000114      -0.00000191
Si      -0.00000007       0.00000027      -0.00000016      -0.00000078      -0.00000118       0.00000194
F        1.39624122       0.98729182       5.39672173       0.00258762       0.00182840       0.00000047
F        4.83535582       3.41911275       5.39672171      -0.00259328      -0.00182851       0.00000233
F        3.97557674       0.98729206       3.90754190      -0.00128998       0.00182296       0.00223190
F        2.25601922       3.41911263       6.88590207       0.00129578      -0.00182588      -0.00223696
F        2.25601991       3.41911240       3.90754141       0.00129212      -0.00182334       0.00223693
F        3.97557656       0.98729180       6.88590178      -0.00129242       0.00182818      -0.00223392
