9
Lattice="5.744780059653274 1.2143908632407303e-07 3.3167508885077983 1.914926814569299 5.416230044407724 3.3167508650833786 1.0466478310980768e-07 4.532017602045322e-08 6.63350159573101" Properties=species:S:1:pos:R:3:forces:R:3 energy=-31.349685668945312 free_energy=-31.349685668945312 stress="1.8284596080775373e-05 2.8981080646417468e-08 2.692568479290003e-08 2.8981080646417468e-08 1.8226386600872502e-05 -1.0327409682986399e-07 2.692568479290003e-08 -1.0327409682986399e-07 1.82033527380554e-05" pbc="T T T"
Hg       1.91492677       1.35405684       3.31675114      -0.00000072      -0.00000120       0.00000113
Hg       5.74477990       4.06217129       9.95025449      -0.00000111      -0.00000095      -0.00000001
Sn      -0.00000043      -0.00000046       0.00000002       0.00000273       0.00000085      -0.00000205
F        1.64784148       1.16520144       6.63350148      -0.00114959      -0.00081283       0.00000144
F        6.01186370       4.25102926       6.63350197       0.00115645       0.00081533      -0.00000184
F        4.92085796       1.16520078       4.74382320       0.00057310      -0.00081062      -0.00099134
F        2.73884944       4.25103086       8.52317876      -0.00057623       0.00080991       0.00099498
F        2.73884935       4.25102988       4.74382433      -0.00057924       0.00081706      -0.00100082
F        4.92086000       1.16520085       8.52317843       0.00057453      -0.00081748       0.00099832
