9
Lattice="5.097932360944253 4.654970449042884e-09 2.943292604277086 1.6993107875844773 4.806377167602497 2.943292610834127 -1.9599403840634958e-07 -1.3055799611738123e-07 5.886585548025728" Properties=species:S:1:pos:R:3:forces:R:3 energy=-37.277374267578125 free_energy=-37.277374267578125 stress="4.7672612708993256e-05 3.410018578620111e-08 2.468268611721669e-08 3.410018578620111e-08 4.757526039611548e-05 -1.2103541280339414e-08 2.468268611721669e-08 -1.2103541280339414e-08 4.750208609038964e-05" pbc="T T T"
Hg       1.69931091       1.20159469       2.94329331       0.00000148       0.00000061       0.00000331
Hg       5.09793278       3.60478262       8.82987763       0.00000264      -0.00000047      -0.00000357
Sc       0.00000025      -0.00000008      -0.00000008      -0.00000472       0.00000384       0.00000303
F        1.64995434       1.16669403       5.88658507       0.00006837       0.00004853       0.00000022
F        5.14728820       3.63968341       5.88658559      -0.00006875      -0.00004908      -0.00000102
F        4.27295504       1.16669333       4.37219454      -0.00003608       0.00005133       0.00006278
F        2.52428768       3.63968326       7.40097597       0.00003637      -0.00005277      -0.00006552
F        2.52428709       3.63968274       4.37219499       0.00003569      -0.00005269       0.00006330
F        4.27295554       1.16669421       7.40097604      -0.00003512       0.00005051      -0.00006264
