9
Lattice="5.745132077198766 -1.0015148742455413e-07 3.316953541170909 1.9150439298042359 5.41656248767511 3.3169535437776645 -2.4041999719770566e-07 -1.6680992064481558e-07 6.633907498761257" Properties=species:S:1:pos:R:3:forces:R:3 energy=-31.349685668945312 free_energy=-31.349685668945312 stress="-5.7176544942194596e-05 -5.1352305519003494e-08 -5.0390088546237166e-08 -5.1352305519003494e-08 -5.7143359299516305e-05 4.9807823643277516e-08 -5.0390088546237166e-08 4.9807823643277516e-08 -5.7092322094831616e-05" pbc="T T T"
Hg       1.91504344       1.35413995       3.31695406      -0.00000045       0.00000065       0.00000008
Hg       5.74513135       4.06242231       9.95086105      -0.00000021       0.00000142      -0.00000033
Sn       0.00000006       0.00000108      -0.00000038       0.00000201      -0.00000699      -0.00000132
F        1.64767631       1.16508241       6.63390730       0.00232983       0.00165159      -0.00000088
F        6.01250078       4.25147968       6.63390750      -0.00233507      -0.00164956      -0.00000091
F        4.92129331       1.16508241       4.74388339      -0.00116292       0.00164640       0.00201297
F        2.73888250       4.25147913       8.52393238       0.00116327      -0.00164348      -0.00201535
F        2.73888165       4.25147988       4.74388229       0.00116739      -0.00164920       0.00202340
F        4.92129345       1.16508171       8.52393063      -0.00116402       0.00164866      -0.00201762
