9
Lattice="6.361060642665244 3.009474293263228e-08 3.672560148215296 2.1203535988819984 5.997265493705789 3.6725601084589523 5.667392180387955e-08 -8.616813799522767e-09 7.3451201982683685" Properties=species:S:1:pos:R:3:forces:R:3 energy=-14.044556617736816 free_energy=-14.044556617736816 stress="0.00014062102127354592 -5.078994447238472e-10 3.4436458129505354e-09 -5.078994447238472e-10 0.00014062057016417384 -2.593965486852312e-09 3.4436458129505354e-09 -2.593965486852312e-09 0.00014061390538699925" pbc="T T T"
Hg       2.12035349       1.49931632       3.67256014      -0.00000012      -0.00000006       0.00000006
Hg       6.36106074       4.49794936      11.01768028       0.00000001      -0.00000009       0.00000003
S       -0.00000025      -0.00000022       0.00000004       0.00000005      -0.00000061       0.00000078
Br       2.08870742       1.47693885       7.34512027      -0.00465443      -0.00329051       0.00000038
Br       6.39270723       4.52032639       7.34512040       0.00465409       0.00329091      -0.00000045
Br       5.31670735       1.47693894       5.48143370       0.00232710      -0.00329018      -0.00403124
Br       3.16470709       4.52032656       9.20880708      -0.00232708       0.00329063       0.00403029
Br       3.16470696       4.52032671       5.48143330      -0.00232690       0.00329086      -0.00403128
Br       5.31670722       1.47693917       9.20880666       0.00232735      -0.00329090       0.00403149
