9
Lattice="4.730950665831097 6.332743509731984e-08 2.7314156103889804 1.5769836081861346 4.460383093357218 2.731415622160983 -2.1786424488405742e-08 -9.876263758888572e-10 5.462831258513125" Properties=species:S:1:pos:R:3:forces:R:3 energy=-26.590892791748047 free_energy=-26.590892791748047 stress="-9.779930405784398e-05 1.4833116779300326e-07 5.028310656740587e-09 1.4833116779300326e-07 -9.786480950424448e-05 -3.963104688864405e-08 5.028310656740587e-09 -3.963104688864405e-08 -9.797299571800977e-05" pbc="T T T"
Hg       1.57698358       1.11509574       2.73141539      -0.00000044       0.00000030       0.00000065
Hg       4.73095059       3.34528748       8.19424740       0.00000136      -0.00000169      -0.00000190
Se      -0.00000069      -0.00000023      -0.00000260       0.00001613       0.00000851       0.00007149
F        1.58461581       1.12049234       5.46283146      -0.00011000      -0.00007656      -0.00000492
F        4.72331916       3.33989102       5.46283118       0.00009879       0.00007011      -0.00000355
F        3.93864305       1.12049228       4.10373283       0.00005080      -0.00007460      -0.00009546
F        2.36929085       3.33989135       6.82193067      -0.00004163       0.00005685       0.00006491
F        2.36929134       3.33989090       4.10373303      -0.00005507       0.00007473      -0.00009686
F        3.93864330       1.12049179       6.82193068       0.00004026      -0.00005768       0.00006562
