9
Lattice="6.835786237588391 4.998634345081258e-08 3.9466429816277673 2.2785954447835337 6.444841134410783 3.946643007389459 -1.4912076922012122e-07 -7.389266056128386e-08 7.893286221540309" Properties=species:S:1:pos:R:3:forces:R:3 energy=-12.320293426513672 free_energy=-12.320293426513672 stress="-1.7184511307277717e-05 4.15299084011167e-09 1.4126569913841536e-09 4.15299084011167e-09 -1.719020656310022e-05 2.2756470041684906e-09 1.4126569913841536e-09 2.2756470041684906e-09 -1.7191516235470772e-05" pbc="T T T"
Hg       2.27859539       1.61121028       3.94664309      -0.00000005      -0.00000023       0.00000001
Hg       6.83578641       4.83363074      11.83992903      -0.00000049       0.00000012      -0.00000018
Se      -0.00000061      -0.00000008      -0.00000027       0.00000213       0.00000038       0.00000047
I        2.36881539       1.67500547       7.89328628       0.00202329       0.00143035       0.00000003
I        6.74556661       4.76983614       7.89328599      -0.00202447      -0.00143113      -0.00000011
I        5.65137866       1.67500583       5.99809691      -0.00101189       0.00143059       0.00175196
I        3.46300285       4.76983530       9.78847509       0.00101172      -0.00143076      -0.00175196
I        3.46300319       4.76983561       5.99809766       0.00101150      -0.00143035       0.00175202
I        5.65137820       1.67500511       9.78847506      -0.00101171       0.00143103      -0.00175217
