9
Lattice="6.546629518746147 -3.972144075492213e-08 3.779698324633455 2.1822098513197115 6.172221480512178 3.77969823943837 3.522636627525757e-08 -7.943350070782e-08 7.559396588252967" Properties=species:S:1:pos:R:3:forces:R:3 energy=-17.983596801757812 free_energy=-17.983596801757812 stress="2.6627105398802087e-05 5.009369807851272e-09 7.834231929848556e-09 5.009369807851272e-09 2.662288534338586e-05 -6.833843713138776e-09 7.834231929848556e-09 -6.833843713138776e-09 2.6630419597495347e-05" pbc="T T T"
Hg       2.18220972       1.54305539       3.77969814       0.00000028       0.00000000      -0.00000003
Hg       6.54662965       4.62916605      11.33909509      -0.00000017       0.00000004       0.00000006
Sn       0.00000014      -0.00000008      -0.00000155      -0.00000079       0.00000067       0.00002089
Br       2.14790693       1.51879904       7.55939658      -0.00030085      -0.00021229       0.00000151
Br       6.58093291       4.65342232       7.55939635       0.00029975       0.00021226       0.00000172
Br       5.47267580       1.51879967       5.63984037       0.00015423      -0.00021798      -0.00026601
Br       3.25616280       4.65342288       9.47895392      -0.00014503       0.00020545       0.00025170
Br       3.25616359       4.65342151       5.63984042      -0.00015408       0.00021834      -0.00026496
Br       5.47267607       1.51879871       9.47895324       0.00014660      -0.00020655       0.00025504
