9
Lattice="6.399667241445592 -1.5229204201820381e-07 3.694849188002514 2.1332222592471273 6.0336642931846365 3.6948492070304275 2.7712299971239552e-08 4.2899855990531383e-08 7.3896983280058715" Properties=species:S:1:pos:R:3:forces:R:3 energy=-27.17166519165039 free_energy=-27.17166519165039 stress="-0.00025342224398627877 8.695678843650967e-09 -1.3073418791975655e-08 8.695678843650967e-09 -0.0002534405793994665 6.661819096365207e-09 -1.3073418791975655e-08 6.661819096365207e-09 -0.0002534805971663445" pbc="T T T"
Hg       2.13322248       1.50841594       3.69484902       0.00000007      -0.00000003      -0.00000045
Hg       6.39966716       4.52524822      11.08454763      -0.00000005      -0.00000004       0.00000013
Sc       0.00000007      -0.00000029      -0.00000144      -0.00000462       0.00000450       0.00001697
Cl       2.02978418       1.43527338       7.38969805       0.00256166       0.00181213      -0.00000064
Cl       6.50310581       4.59839007       7.38969903      -0.00256169      -0.00181037      -0.00000141
Cl       5.38477467       1.43527537       5.45269359      -0.00127694       0.00180642       0.00221248
Cl       3.14811410       4.59839065       9.32670432       0.00128390      -0.00181672      -0.00222485
Cl       3.14811407       4.59838990       5.45269340       0.00127968      -0.00180912       0.00221860
Cl       5.38477548       1.43527360       9.32670303      -0.00128202       0.00181316      -0.00222076
