9
Lattice="6.672972325069371 -1.51911949427918e-07 3.8526425120878325 2.2243240547960723 6.291338630738554 3.852642356786085 4.58283129090384e-08 -1.5779956075614612e-07 7.70528494479869" Properties=species:S:1:pos:R:3:forces:R:3 energy=-11.986238479614258 free_energy=-11.986238479614258 stress="9.29245725274086e-05 5.3724935611398905e-09 -4.360709127126938e-09 5.3724935611398905e-09 9.292025788454339e-05 1.120656012432164e-08 -4.360709127126938e-09 1.120656012432164e-08 9.291790775023401e-05" pbc="T T T"
Hg       2.22432419       1.57283454       3.85264230       0.00000001      -0.00000029      -0.00000026
Hg       6.67297224       4.71850365      11.55792740      -0.00000006      -0.00000014       0.00000012
S        0.00000012      -0.00000079      -0.00000037       0.00000050      -0.00000067       0.00000036
I        2.36147548       1.66981517       7.70528505      -0.00351200      -0.00248320       0.00000009
I        6.53582126       4.62152340       7.70528480       0.00351214       0.00248323       0.00000002
I        5.49223440       1.66981532       5.89774034       0.00175558      -0.00248288      -0.00304118
I        3.40506172       4.62152351       9.51283003      -0.00175571       0.00248314       0.00304145
I        3.40506170       4.62152359       5.89773987      -0.00175573       0.00248332      -0.00304139
I        5.49223459       1.66981487       9.51282980       0.00175525      -0.00248252       0.00304078
