9
Lattice="6.852199468130672 1.9908078339510997e-07 3.95611934033753 2.284066711742699 6.460315742615879 3.956119280286286 5.752429987051194e-08 -3.287166985813189e-08 7.912238581040026" Properties=species:S:1:pos:R:3:forces:R:3 energy=-17.360998153686523 free_energy=-17.360998153686523 stress="-0.00021050726354587823 -1.3534811493798315e-08 -4.877985571027921e-09 -1.3534811493798315e-08 -0.00021050254872534424 1.2047461694919548e-08 -4.877985571027921e-09 1.2047461694919548e-08 -0.0002104949380736798" pbc="T T T"
Hg       2.28406653       1.61507899       3.95611933       0.00000004      -0.00000046       0.00000074
Hg       6.85219980       4.84523695      11.86835793      -0.00000013       0.00000006      -0.00000058
Sr      -0.00000015       0.00000004       0.00000053       0.00000023      -0.00000082      -0.00000299
Br       2.45244510       1.73414042       7.91223865       0.00359860       0.00254486      -0.00000007
Br       6.68382101       4.72617553       7.91223837      -0.00359803      -0.00254469       0.00000061
Br       5.62597695       1.73414058       6.07999857      -0.00180051       0.00254493       0.00311786
Br       3.51028943       4.72617538       9.74447831       0.00179966      -0.00254330      -0.00311586
Br       3.51028927       4.72617536       6.07999880       0.00180010      -0.00254390       0.00311689
Br       5.62597699       1.73414037       9.74447835      -0.00180002       0.00254334      -0.00311661
