9
Lattice="7.021697308500745 -4.269024487177239e-07 4.053979094587588 2.3405653387390153 6.620120249936868 4.053979143558916 -5.0764096291964867e-08 2.408175867468626e-08 8.107958277100963" Properties=species:S:1:pos:R:3:forces:R:3 energy=-14.818072319030762 free_energy=-14.818072319030762 stress="0.0001291152584599331 2.2778859687377917e-08 4.226431649101414e-09 2.2778859687377917e-08 0.00012910275836475194 -3.830042061281347e-09 4.226431649101414e-09 -3.830042061281347e-09 0.00012909121869597584" pbc="T T T"
Hg       2.34056573       1.65502994       4.05397891       0.00000023      -0.00000009      -0.00000018
Hg       7.02169679       4.96508979      12.16193752      -0.00000005       0.00000000       0.00000025
Sn      -0.00000020      -0.00000000      -0.00000097       0.00000150       0.00000058       0.00000646
I        2.41781737       1.70965558       8.10795782      -0.00464261      -0.00328323       0.00000051
I        6.94444550       4.91046505       8.10795828       0.00464123       0.00328134       0.00000054
I        5.81278859       1.70965580       6.14787121       0.00232115      -0.00328234      -0.00402039
I        3.54947365       4.91046492      10.06804561      -0.00231878       0.00327954       0.00401774
I        3.54947398       4.91046439       6.14787228      -0.00232155       0.00328305      -0.00402158
I        5.81278898       1.70965396      10.06804539       0.00231884      -0.00327896       0.00401662
