9
Lattice="6.652630463835931 3.057274069851119e-07 3.840898474902976 2.217543812879014 6.272160253505673 3.840898411352229 2.3823465293964845e-07 9.06236403881162e-08 7.681796537171288" Properties=species:S:1:pos:R:3:forces:R:3 energy=-28.012611389160156 free_energy=-28.012611389160156 stress="2.9749053283012472e-05 1.362616952604867e-08 -2.536553189713686e-09 1.362616952604867e-08 2.9775683287880383e-05 3.3230214135926417e-09 -2.536553189713686e-09 3.3230214135926417e-09 2.9875209293095395e-05" pbc="T T T"
Hg       2.21754328       1.56804006       3.84089848       0.00000021      -0.00000017      -0.00000011
Hg       6.65263093       4.70412082      11.52269448      -0.00000010      -0.00000004       0.00000045
Ti      -0.00000037      -0.00000078      -0.00000039       0.00000438       0.00000595       0.00000216
Cl       1.92109364       1.35841885       7.68179689       0.00180200       0.00127235      -0.00000009
Cl       6.94908073       4.91374154       7.68179745      -0.00180522      -0.00127485      -0.00000057
Cl       5.69208425       1.35841900       5.50461563      -0.00090186       0.00127289       0.00155476
Cl       3.17809064       4.91374226       9.85897832       0.00090186      -0.00127530      -0.00155655
Cl       3.17809052       4.91374229       5.50461513       0.00090225      -0.00127542       0.00155711
Cl       5.69208483       1.35841831       9.85897812      -0.00090358       0.00127470      -0.00155714
