9
Lattice="6.690669338238731 -4.974061604589844e-07 3.8628600613007715 2.2302226856374068 6.308023477212274 3.86285998881416 6.792772474684841e-08 -4.0745494212910794e-08 7.725720004947324" Properties=species:S:1:pos:R:3:forces:R:3 energy=-15.7963228225708 free_energy=-15.7963228225708 stress="-6.216172187123448e-05 -6.55923528825042e-08 3.937451698021732e-09 -6.55923528825042e-08 -6.212837615748867e-05 -6.373108263346694e-09 3.937451698021732e-09 -6.373108263346694e-09 -6.208186823641881e-05" pbc="T T T"
Hg       2.23022292       1.57700575       3.86285999       0.00000004       0.00000035       0.00000007
Hg       6.69066924       4.73101727      11.58858009      -0.00000026       0.00000016       0.00000022
Te      -0.00000190       0.00000213       0.00000066       0.00001356      -0.00001858      -0.00000460
Br       2.20720826       1.56073129       7.72572006       0.00218651       0.00154712       0.00000014
Br       6.71368412       4.74729120       7.72572001      -0.00218726      -0.00154650       0.00000006
Br       5.58706492       1.56073181       5.77435878      -0.00109355       0.00154660       0.00189430
Br       3.33382804       4.74729010       9.67707990       0.00108616      -0.00153659      -0.00188196
Br       3.33382806       4.74729017       5.77436002       0.00108690      -0.00153740       0.00188346
Br       5.58706474       1.56073203       9.67708077      -0.00109211       0.00154482      -0.00189168
