9
Lattice="5.696251514936145 -1.442492883284635e-07 3.2887322451436707 1.898750377757648 5.370477416227385 3.2887322299391046 5.99216325852351e-08 2.3749147038803172e-08 6.57746438650024" Properties=species:S:1:pos:R:3:forces:R:3 energy=-39.877960205078125 free_energy=-39.877960205078125 stress="6.7077285166305955e-06 2.8122952855369476e-09 -4.574773626586648e-08 2.8122952855369476e-09 6.697377557429718e-06 2.832387124840352e-08 -4.574773626586648e-08 2.832387124840352e-08 6.757637493137736e-06" pbc="T T T"
Hg       1.89874854       1.34261824       3.28873352      -0.00000166      -0.00000057       0.00000048
Hg       5.69625393       4.02785950       9.86619607       0.00000124       0.00000079      -0.00000119
Ti      -0.00000036      -0.00000017      -0.00000044       0.00000526       0.00000632      -0.00000145
F        1.55325004       1.09831343       6.57746523      -0.00022590      -0.00015908      -0.00000036
F        6.04175184       4.27216276       6.57746589       0.00022286       0.00015819      -0.00000247
F        4.91962645       1.09831341       4.63388635       0.00011197      -0.00015974      -0.00019777
F        2.67537517       4.27216475       8.52104122      -0.00011548       0.00015974       0.00019908
F        2.67537533       4.27216370       4.63388584      -0.00010926       0.00015473      -0.00019300
F        4.91962695       1.09831329       8.52104143       0.00011095      -0.00015956       0.00019646
