9
Lattice="7.143145495961748 3.630663012909456e-07 4.1240967412494935 2.3810488670186643 6.734621923746746 4.124096696108239 -1.4572236240233784e-08 -6.559073135017336e-08 8.248193507739083" Properties=species:S:1:pos:R:3:forces:R:3 energy=-13.111764907836914 free_energy=-13.111764907836914 stress="0.00016568534192629158 4.06411224673775e-08 2.4613771021364528e-09 4.06411224673775e-08 0.00016565217811148614 -1.6219774412462584e-09 2.4613771021364528e-09 -1.6219774412462584e-09 0.0001656237436691299" pbc="T T T"
Hg       2.38104874       1.68365556       4.12409701       0.00000039       0.00000013      -0.00000038
Hg       7.14314570       5.05096657      12.37229014      -0.00000005       0.00000010      -0.00000046
Te       0.00000111       0.00000028      -0.00000339      -0.00000732      -0.00000243       0.00002037
I        2.42112735       1.71199534       8.24819345      -0.00627546      -0.00443735      -0.00000068
I        7.10306620       5.02262622       8.24819353       0.00628072       0.00444080      -0.00000046
I        5.93258185       1.71199568       6.22085442       0.00313864      -0.00443844      -0.00543635
I        3.59161149       5.02262782      10.27553440      -0.00313308       0.00443112       0.00542606
I        3.59161276       5.02262661       6.22085403      -0.00313847       0.00443853      -0.00543611
I        5.93258221       1.71199471      10.27553422       0.00313464      -0.00443242       0.00542795
