9
Lattice="6.314665601254644 0.001092234815379271 3.642318254329451 2.105672324522237 5.9478293168508305 3.642744332875401 0.0001409748023801025 0.0006215318643091072 7.284392264993555" Properties=species:S:1:pos:R:3:forces:R:3 energy=-29.30303955078125 free_energy=-29.30303955078125 stress="4.219259790261276e-05 1.5202633221633732e-05 1.9638885078165913e-06 1.5202633221633732e-05 1.7070246030925773e-05 9.862641491054092e-06 1.9638885078165913e-06 9.862641491054092e-06 4.4210159103386104e-05" pbc="T T T"
Hg       2.11385449       1.48847248       3.64408796      -0.00196193      -0.00141797      -0.00083311
Hg       6.31414966       4.46189021      10.92724982       0.00037206      -0.00021677      -0.00019271
Te      -0.00039256      -0.00195473      -0.00099866       0.00008381      -0.00130015       0.00263266
F        1.61889507       1.14783204       7.28459828      -0.00022632       0.00293748      -0.00016698
F        6.79526291       4.80400695       7.28582754      -0.00134426       0.00117610       0.00014002
F        5.50497200       1.14621408       5.04347359       0.00056978      -0.00039908      -0.00182569
F        2.91581105       4.80138231       9.51802968       0.00154823      -0.00234564      -0.00415871
F        2.91580071       4.80031413       5.04838610       0.00116773      -0.00086434       0.00404313
F        5.50229879       1.14863724       9.52584449      -0.00020909       0.00243023       0.00036150
