9
Lattice="6.897484616164531 -1.332502033222392e-07 3.982265047581263 2.2991613635593633 6.503011120584971 3.9822651333744763 2.583074355612279e-07 2.877253335673435e-07 7.964529647760908" Properties=species:S:1:pos:R:3:forces:R:3 energy=-32.230106353759766 free_energy=-32.230106353759766 stress="-2.973814662254881e-05 -1.0346425227680811e-07 2.6146850018449186e-08 -1.0346425227680811e-07 -2.964936356875114e-05 -1.7765795945479113e-08 2.6146850018449186e-08 -1.7765795945479113e-08 -2.9562324925791472e-05" pbc="T T T"
Hg       2.29916128       1.62575235       3.98226476       0.00000082       0.00000037       0.00000012
Hg       6.89748414       4.87725880      11.94679415      -0.00000014      -0.00000025       0.00000048
Ta       0.00000042       0.00000013      -0.00000010       0.00000140       0.00000704       0.00000448
Cl       1.93251370       1.36649375       7.96452997       0.00084284       0.00059579      -0.00000069
Cl       7.26413391       5.13651826       7.96453026      -0.00085104      -0.00060128       0.00000009
Cl       5.93122751       1.36649376       5.65587181      -0.00041553       0.00058842       0.00071883
Cl       3.26541817       5.13651742      10.27318830       0.00041964      -0.00059068      -0.00072357
Cl       3.26541841       5.13651692       5.65587220       0.00041599      -0.00058699       0.00071779
Cl       5.93122750       1.36649384      10.27318809      -0.00041402       0.00058752      -0.00071743
