9
Lattice="6.26701612306739 -2.696191665701277e-07 3.6182623459364978 2.0890047864361923 5.908598926562926 3.6182629239573947 3.135605668764886e-07 9.296487038319577e-07 7.23652414877088" Properties=species:S:1:pos:R:3:forces:R:3 energy=-45.26653289794922 free_energy=-45.26653289794922 stress="-3.0142009563860483e-05 -3.8555771908477254e-08 -1.1805263433473101e-08 -3.8555771908477254e-08 -3.0127759600873105e-05 3.218403321625374e-08 -1.1805263433473101e-08 3.218403321625374e-08 -3.016805749211926e-05" pbc="T T T"
Hg       2.08900585       1.47714895       3.61826170       0.00000063       0.00000138       0.00000042
Hg       6.26701581       4.43145380      10.85478280      -0.00000048      -0.00000072       0.00000116
Ta      -0.00000032      -0.00000006       0.00000097       0.00002396      -0.00001148      -0.00000962
F        1.56953964       1.10983271       7.23652391       0.00065964       0.00046808       0.00000005
F        6.78648153       4.79876699       7.23652560      -0.00066993      -0.00047553       0.00000100
F        5.48224568       1.10983069       4.97752433      -0.00033385       0.00047396       0.00058034
F        2.87377542       4.79876725       9.49552734       0.00032522      -0.00046171      -0.00056684
F        2.87377490       4.79876694       4.97752466       0.00032854      -0.00046703       0.00057343
F        5.48224574       1.10983214       9.49552638      -0.00033376       0.00047302      -0.00057998
