9
Lattice="6.787403045813423 4.676284638002416e-08 3.9187089708651217 2.262467736088654 6.399224899164916 3.918708953436455 -5.3655222215223135e-08 -5.928556457553059e-08 7.837418034663949" Properties=species:S:1:pos:R:3:forces:R:3 energy=-24.381175994873047 free_energy=-24.381175994873047 stress="-8.672376679896843e-06 -1.116287506874869e-08 -4.305648615421376e-10 -1.116287506874869e-08 -8.67568451212719e-06 -1.2849213915089308e-09 -4.305648615421376e-10 -1.2849213915089308e-09 -8.663983862788882e-06" pbc="T T T"
Hg       2.26246718       1.59980592       3.91870850      -0.00000036      -0.00000035       0.00000049
Hg       6.78740342       4.79941880      11.75612757       0.00000023       0.00000014      -0.00000049
Ti      -0.00000012      -0.00000014      -0.00000026      -0.00000002       0.00000004      -0.00000091
Br       2.05715861       1.45463099       7.83741838       0.00008205       0.00005837      -0.00000089
Br       6.99271162       4.94459383       7.83741801      -0.00007972      -0.00005707      -0.00000039
Br       5.75882405       1.45463077       5.70026053      -0.00004147       0.00005808       0.00007091
Br       3.29104710       4.94459395       9.97457528       0.00003937      -0.00005658      -0.00006954
Br       3.29104726       4.94459428       5.70026047       0.00003988      -0.00005855       0.00007029
Br       5.75882368       1.45463121       9.97457535      -0.00003988       0.00005586      -0.00006936
