9
Lattice="5.692679605551315 2.1594921039628634e-07 3.2866703825391075 1.8975599000736707 5.367110044527078 3.286670680524806 1.8751585833934206e-08 3.7821621442385437e-07 6.573340732599894" Properties=species:S:1:pos:R:3:forces:R:3 energy=-39.87794494628906 free_energy=-39.87794494628906 stress="1.2433953997970093e-05 9.876733031433105e-08 -5.947709880160801e-08 9.876733031433105e-08 1.2596507076523267e-05 1.4134395875942118e-08 -5.947709880160801e-08 1.4134395875942118e-08 1.2384604815451894e-05" pbc="T T T"
Hg       1.89755596       1.34178012       3.28667000      -0.00000308       0.00000206       0.00000014
Hg       5.69267922       4.02532873       9.86000854      -0.00000090      -0.00000346      -0.00000215
Ti       0.00000023       0.00000004       0.00000078       0.00000125      -0.00000580      -0.00002160
F        1.55327564       1.09833390       6.57334090      -0.00375587      -0.00266010       0.00000247
F        6.03696350       4.26877646       6.57334282       0.00376499       0.00266713      -0.00000034
F        4.91604307       1.09833281       4.63184747       0.00187269      -0.00265408      -0.00324708
F        2.67419874       4.26877835       8.51483494      -0.00188157       0.00266165       0.00325888
F        2.67419775       4.26877786       4.63184706      -0.00187191       0.00265253      -0.00324488
F        4.91604346       1.09833439       8.51483489       0.00187454      -0.00266004       0.00325400
