9
Lattice="7.067170410435328 -1.0784118133268065e-07 4.080232685702669 2.3557233432019777 6.662992818489809 4.080232729470722 -2.9800652144375065e-07 -1.5711759239801276e-07 8.160465887567502" Properties=species:S:1:pos:R:3:forces:R:3 energy=-28.13787841796875 free_energy=-28.13787841796875 stress="-1.6132165910676122e-05 -5.053074403349456e-08 -2.9794520628456667e-08 -5.053074403349456e-08 -1.6063571820268407e-05 4.186687974083725e-08 -2.9794520628456667e-08 4.186687974083725e-08 -1.604359204065986e-05" pbc="T T T"
Hg       2.35572331       1.66574827       4.08023201      -0.00000012      -0.00000018      -0.00000038
Hg       7.06717025       4.99724453      12.24069960      -0.00000012      -0.00000004       0.00000032
Ta      -0.00000074      -0.00000025       0.00000166       0.00001320       0.00000088      -0.00002439
Br       2.06723007       1.46175364       8.16046647      -0.00306079      -0.00216624      -0.00000097
Br       7.35566400       5.20123963       8.16046530       0.00305106       0.00215787      -0.00000033
Br       6.03355518       1.46175293       5.87050696       0.00152771      -0.00216141      -0.00264663
Br       3.38933845       5.20123782      10.45042287      -0.00153723       0.00217693       0.00266461
Br       3.38933836       5.20123980       5.87050692      -0.00152641       0.00216033      -0.00264606
Br       6.03355487       1.46175336      10.45042381       0.00153276      -0.00216805       0.00265382
