9
Lattice="7.508372451288444 -7.140808761713433e-07 4.334960945935392 2.502790643061805 7.078961143272669 4.334960081282205 1.7371101256681285e-07 -9.361471396607183e-07 8.669921590994399" Properties=species:S:1:pos:R:3:forces:R:3 energy=-23.98082160949707 free_energy=-23.98082160949707 stress="-7.886251842137426e-05 6.245369554847002e-09 7.763936338278654e-08 6.245369554847002e-09 -7.884509250288829e-05 -9.752267260410008e-08 7.763936338278654e-08 -9.752267260410008e-08 -7.886782987043262e-05" pbc="T T T"
Hg       2.50279107       1.76973994       4.33496070       0.00000009      -0.00000014       0.00000008
Hg       7.50837222       5.30921962      13.00488204      -0.00000024       0.00000004       0.00000004
Ta       0.00000276       0.00000015       0.00000072      -0.00002649      -0.00000453      -0.00000748
I        2.25922268       1.59751202       8.66992147       0.00392039       0.00277086      -0.00000023
I        7.75193833       5.48144654       8.66992036      -0.00389802      -0.00275490       0.00000074
I        6.37876145       1.59751193       6.29150447      -0.00195955       0.00276805       0.00339246
I        3.63240128       5.48144814      11.04833794       0.00196026      -0.00277136      -0.00339486
I        3.63240342       5.48144705       6.29150647       0.00195212      -0.00276157       0.00338291
I        6.37876004       1.59751251      11.04833613      -0.00194868       0.00275353      -0.00337379
