9
Lattice="7.500783560562443 -2.2791315160567732e-07 4.330579560546855 2.500260940616791 7.071806743365624 4.330579614861726 -8.220642104289518e-08 8.393139605141263e-09 8.661159263479211" Properties=species:S:1:pos:R:3:forces:R:3 energy=-21.089147567749023 free_energy=-21.089147567749023 stress="-2.0902250980725512e-05 -2.2205489003113144e-08 7.02620361892059e-09 -2.2205489003113144e-08 -2.0901181414956227e-05 -1.1565732815910224e-09 7.02620361892059e-09 -1.1565732815910224e-09 -2.090007001243066e-05" pbc="T T T"
Hg       2.50026147       1.76795162       4.33057948      -0.00000007      -0.00000012       0.00000000
Hg       7.50078294       5.30385479      12.99173888      -0.00000030       0.00000001       0.00000011
Ti      -0.00000026      -0.00000073       0.00000013       0.00000304       0.00000341      -0.00000122
I        2.22231479       1.57141306       8.66115888       0.00308368       0.00218069      -0.00000013
I        7.77872899       5.50039439       8.66115852      -0.00308625      -0.00218360       0.00000059
I        6.38962686       1.57141483       6.25516000      -0.00154102       0.00217935       0.00267105
I        3.61141987       5.50039301      11.06715866       0.00154091      -0.00217997      -0.00267059
I        3.61141833       5.50039213       6.25516029       0.00154024      -0.00217937       0.00267042
I        6.38962474       1.57141299      11.06715877      -0.00154035       0.00217958      -0.00267018
