9
Lattice="6.570218088959012 1.4581339227718825e-07 3.793316976552268 2.190072643782562 6.194461441296987 3.7933173056617733 -2.504904406732142e-07 2.2595149164942545e-07 7.5866343869669635" Properties=species:S:1:pos:R:3:forces:R:3 energy=-18.80376434326172 free_energy=-18.80376434326172 stress="0.00010271795326843858 -8.773998416700124e-09 -3.283310334722955e-08 -8.773998416700124e-09 0.00010273338557453826 4.228281369478282e-08 -3.283310334722955e-08 4.228281369478282e-08 0.00010272520739817992" pbc="T T T"
Hg       2.19007253       1.54861569       3.79331679       0.00000018      -0.00000038       0.00000029
Hg       6.57021808       4.64584633      11.37995171      -0.00000037       0.00000009       0.00000018
Te       0.00000007       0.00000034       0.00000306       0.00000157      -0.00000159      -0.00003131
Cl       2.05097043       1.45025556       7.58663446      -0.00270513      -0.00191319       0.00000152
Cl       6.70932056       4.74420613       7.58663449       0.00270401       0.00191338       0.00000128
Cl       5.54473288       1.45025521       5.56950947       0.00135111      -0.00191130      -0.00233908
Cl       3.21555812       4.74420537       9.60375819      -0.00135743       0.00192048       0.00235325
Cl       3.21555673       4.74420703       5.56950800      -0.00134763       0.00190742      -0.00233309
Cl       5.54473262       1.45025565       9.60375852       0.00135370      -0.00191484       0.00234701
