9
Lattice="6.28828833333567 -9.79339992842651e-07 3.630545286020826 2.0960954003235743 5.928654817574768 3.6305449178878364 5.732010175452626e-07 -4.555587204547241e-08 7.26108957922919" Properties=species:S:1:pos:R:3:forces:R:3 energy=-36.3897590637207 free_energy=-36.3897590637207 stress="-7.793521945131943e-05 -9.088915220445415e-08 3.319625463404918e-08 -9.088915220445415e-08 -7.786294008838013e-05 -6.017886278186779e-08 3.319625463404918e-08 -6.017886278186779e-08 -7.785609341226518e-05" pbc="T T T"
Hg       2.09609870       1.48216392       3.63054615      -0.00000025       0.00000039      -0.00000062
Hg       6.28828538       4.44649224      10.89163339       0.00000016      -0.00000018       0.00000018
V       -0.00000028       0.00000049      -0.00000011       0.00003027      -0.00000007      -0.00000675
F        1.48078642       1.04707342       7.26108780       0.00242697       0.00171900       0.00000163
F        6.90359953       4.88157965       7.26109076      -0.00245729      -0.00173355      -0.00000002
F        5.54789524       1.04707208       4.91294343      -0.00121792       0.00172696       0.00211273
F        2.83648885       4.88158001       9.60923873       0.00121545      -0.00171625      -0.00211074
F        2.83648880       4.88158102       4.91294223       0.00121533      -0.00171312       0.00210676
F        5.54789451       1.04707216       9.60923677      -0.00121268       0.00171666      -0.00210308
