9
Lattice="6.567574306034455 -1.8389688189435092e-07 3.791791301027574 2.189191074646317 6.191969084364665 3.791791625473154 -2.8356509008759794e-07 1.968522483248292e-07 7.583583093204341" Properties=species:S:1:pos:R:3:forces:R:3 energy=-23.526559829711914 free_energy=-23.526559829711914 stress="-0.0001949958095792681 -7.447011540762105e-08 -3.630040623647801e-08 -7.447011540762105e-08 -0.00019495612650644034 4.0393373978986347e-08 -3.630040623647801e-08 4.0393373978986347e-08 -0.0001949525176314637" pbc="T T T"
Hg       2.18919156       1.54799202       3.79179167      -0.00000029      -0.00000012      -0.00000048
Hg       6.56757344       4.64397680      11.37537464       0.00000027       0.00000023       0.00000011
V       -0.00000090      -0.00000001      -0.00000226       0.00001187       0.00000003       0.00002801
Br       2.00163600       1.41537088       7.58358260       0.00621536       0.00439462       0.00000238
Br       6.75512994       4.77659949       7.58358246      -0.00622404      -0.00440340       0.00000234
Br       5.56675421       1.41537258       5.52526058      -0.00309813       0.00438315       0.00537354
Br       3.19000985       4.77659764       9.64190677       0.00310862      -0.00439589      -0.00538379
Br       3.19001083       4.77659660       5.52526056       0.00309977      -0.00438343       0.00537339
Br       5.56675570       1.41537033       9.64190740      -0.00311339       0.00440475      -0.00539541
