9
Lattice="6.28702133772497 -9.192783946101828e-07 3.629812761443179 2.0956732928121795 5.927456773810568 3.6298121027890717 2.777670837224474e-07 -6.102725496925611e-07 7.259625041780096" Properties=species:S:1:pos:R:3:forces:R:3 energy=-36.389747619628906 free_energy=-36.389747619628906 stress="3.447639028308913e-05 6.7865575381631515e-09 -2.599602311192939e-08 6.7865575381631515e-09 3.450502845225856e-05 2.7562670368297404e-08 -2.599602311192939e-08 2.7562670368297404e-08 3.4473883715691045e-05" pbc="T T T"
Hg       2.09567261       1.48186351       3.62980780       0.00000008       0.00000005       0.00000172
Hg       6.28702274       4.44558952      10.88943956      -0.00000017       0.00000048      -0.00000015
V       -0.00000089       0.00000086       0.00000076       0.00001139      -0.00001349      -0.00000186
F        1.48111967       1.04731187       7.25962363      -0.00484479      -0.00342545       0.00000275
F        6.90157362       4.88014432       7.25962353       0.00484663       0.00343059       0.00000328
F        5.54646150       1.04730882       4.91250399       0.00241985      -0.00342814      -0.00420052
F        2.83623539       4.88014595       9.60675071      -0.00242653       0.00343041       0.00419640
F        2.83623463       4.88014698       4.91250053      -0.00242450       0.00342813      -0.00419551
F        5.54645974       1.04730927       9.60675058       0.00241802      -0.00342282       0.00419383
