9
Lattice="7.192685285876522 3.817758248911824e-08 4.152696645942141 2.3975612675577427 6.781329359856505 4.152697564614568 -1.2836972945592052e-06 2.1742771741179818e-07 8.305395515313872" Properties=species:S:1:pos:R:3:forces:R:3 energy=-20.391265869140625 free_energy=-20.391265869140625 stress="-0.0001168660819530487 4.600489944550645e-08 -2.8819407305036293e-08 4.600489944550645e-08 -0.00011690940300468355 1.505869207107935e-08 -2.8819407305036293e-08 1.505869207107935e-08 -0.00011696524597937241" pbc="T T T"
Hg       2.39756095       1.69533128       4.15269790       0.00000122       0.00000021       0.00000095
Hg       7.19268497       5.08599926      12.45809195      -0.00000094       0.00000011      -0.00000078
V        0.00000124       0.00000087      -0.00000025      -0.00001262      -0.00001182       0.00000663
I        2.17143110       1.53543399       8.30539331      -0.00492482      -0.00348338       0.00000187
I        7.41881108       5.24589341       8.30539442       0.00494571       0.00349644      -0.00000022
I        6.10696840       1.53543423       6.03321059       0.00246514      -0.00348862      -0.00426766
I        3.48327777       5.24589537      10.57757940      -0.00246597       0.00348268       0.00426613
I        3.48327630       5.24589464       6.03321122      -0.00246648       0.00348550      -0.00426726
I        6.10696919       1.53543490      10.57758010       0.00245883      -0.00348116       0.00426017
