9
Lattice="6.585645598413285 -1.9249434672598695e-07 3.802224068540786 2.195215031421121 6.209007238432558 3.8022240452699663 -4.963795495148946e-07 -3.7949424062573155e-07 7.604448996836221" Properties=species:S:1:pos:R:3:forces:R:3 energy=-27.037328720092773 free_energy=-27.037328720092773 stress="7.873628783272579e-05 5.681173576022047e-08 -1.8013924574233897e-08 5.681173576022047e-08 7.87921526352875e-05 4.283936050342163e-08 -1.8013924574233897e-08 4.283936050342163e-08 7.861568155931309e-05" pbc="T T T"
Hg       2.19521554       1.55225201       3.80222460      -0.00000044      -0.00000029       0.00000012
Hg       6.58564525       4.65675496      11.40667313       0.00000025       0.00000029      -0.00000031
V       -0.00000020       0.00000038      -0.00000079       0.00000216      -0.00000296       0.00001904
Cl       1.86895630       1.32155283       7.60444860      -0.00488624      -0.00345838       0.00000087
Cl       6.91190464       4.88745401       7.60444749       0.00488120       0.00345543       0.00000276
Cl       5.65116686       1.32155304       5.42078704       0.00244400      -0.00345904      -0.00422800
Cl       3.12969158       4.88745453       9.78811068      -0.00243410       0.00344902       0.00421786
Cl       3.12969273       4.88745403       5.42078604      -0.00244084       0.00345725      -0.00422436
Cl       5.65116727       1.32155031       9.78811140       0.00243396      -0.00344145       0.00421190
