9
Lattice="6.587145861859936 -5.524921364851032e-07 3.8030903048387508 2.1957148885414948 6.210420256030905 3.80309009326986 -1.2139359829214246e-07 -3.449561047753204e-07 7.606180819936942" Properties=species:S:1:pos:R:3:forces:R:3 energy=-27.03734016418457 free_energy=-27.03734016418457 stress="-4.3455987906781957e-05 -9.287614233244312e-09 -6.457357759614979e-09 -9.287614233244312e-09 -4.343190448707901e-05 2.206140825578018e-09 -6.457357759614979e-09 2.206140825578018e-09 -4.3444320908747613e-05" pbc="T T T"
Hg       2.19571497       1.55260511       3.80309027       0.00000015       0.00000002       0.00000022
Hg       6.58714589       4.65781433      11.40927131      -0.00000018      -0.00000019      -0.00000041
V       -0.00000031      -0.00000041      -0.00000027      -0.00000359      -0.00000061       0.00000535
Cl       1.86838714       1.32114878       7.60618022       0.00211081       0.00149146       0.00000161
Cl       6.91447186       4.88926951       7.60618029      -0.00210062      -0.00148448       0.00000034
Cl       5.65295213       1.32115005       5.42116225      -0.00105196       0.00148320       0.00181925
Cl       3.12990925       4.88926969       9.79119936       0.00105104      -0.00149012      -0.00182411
Cl       3.12990901       4.88927005       5.42116173       0.00104988      -0.00148681       0.00182155
Cl       5.65295256       1.32114956       9.79119991      -0.00105579       0.00148740      -0.00182381
