9
Lattice="6.562580776531504 -4.5459368333924444e-08 3.788908107498633 2.1875268908606915 6.187260681977136 3.788908093279226 1.1779341787245974e-08 -9.0859314398334e-09 7.577816194594661" Properties=species:S:1:pos:R:3:forces:R:3 energy=-23.526517868041992 free_energy=-23.526517868041992 stress="-0.00014522593119181693 -7.256445444525639e-10 6.339772706809299e-09 -7.256445444525639e-10 -0.00014521913544740528 -6.930661378135028e-09 6.339772706809299e-09 -6.930661378135028e-09 -0.00014518336683977395" pbc="T T T"
Hg       2.18752698       1.54681498       3.78890840       0.00000006       0.00000001      -0.00000013
Hg       6.56258057       4.64044567      11.36672397       0.00000002       0.00000000       0.00000004
V        0.00000087      -0.00000031       0.00000013      -0.00001317       0.00000725      -0.00000059
Br       2.00221951       1.41578245       7.57781648       0.00163087       0.00115490      -0.00000064
Br       6.74788797       4.77147706       7.57781655      -0.00162542      -0.00114669      -0.00000087
Br       5.56147128       1.41578319       5.52288239      -0.00081296       0.00114854       0.00140250
Br       3.18863650       4.77147791       9.63275106       0.00081539      -0.00115424      -0.00141373
Br       3.18863628       4.77147821       5.52288105       0.00081640      -0.00115511       0.00141373
Br       5.56147080       1.41578331       9.63274974      -0.00081113       0.00114539      -0.00140023
