9
Lattice="6.570359887744024 -8.772549746624287e-07 3.79339776753829 2.1901189943754673 6.194594720850665 3.79339801196816 -3.8211384820543117e-07 2.9169273854376868e-08 7.586796196916971" Properties=species:S:1:pos:R:3:forces:R:3 energy=-37.1894645690918 free_energy=-37.1894645690918 stress="5.1553834055084735e-06 7.320158346146854e-08 -7.287914716158639e-09 7.320158346146854e-08 5.161849912838079e-06 -1.4004627679753412e-08 -7.287914716158639e-09 -1.4004627679753412e-08 5.10467771164258e-06" pbc="T T T"
Hg       2.19012334       1.54864497       3.79339275      -0.00000042       0.00000193       0.00000082
Hg       6.57035583       4.64594900      11.38018966       0.00000015      -0.00000097       0.00000079
W       -0.00000049       0.00000070      -0.00000005       0.00001369       0.00000088      -0.00003801
F        1.54510184       1.09255098       7.58679817      -0.00230539      -0.00162762      -0.00000322
F        7.21537787       5.10204282       7.58679902       0.00229046       0.00162193      -0.00000560
F        5.79781060       1.09254825       5.13149652       0.00113547      -0.00160310      -0.00197312
F        2.96267028       5.10204193      10.04209864      -0.00115415       0.00163126       0.00199291
F        2.96266692       5.10204508       5.13149545      -0.00113381       0.00160673      -0.00197130
F        5.79780773       1.09255192      10.04209712       0.00115395      -0.00163108       0.00199673
