9
Lattice="7.084138577686599 -1.803225701657965e-07 4.0900293589441 2.3613793656835016 6.678990470459738 4.090029341973613 -1.0152306382172807e-07 -9.257220132773545e-08 8.18005889373136" Properties=species:S:1:pos:R:3:forces:R:3 energy=-22.611942291259766 free_energy=-22.611942291259766 stress="6.166399543872103e-05 -9.320991267713907e-08 7.916797217788485e-10 -9.320991267713907e-08 6.176067108754069e-05 -1.1984422343402912e-08 7.916797217788485e-10 -1.1984422343402912e-08 6.181842036312446e-05" pbc="T T T"
Hg       2.36138019       1.66974781       4.09002995      -0.00000006      -0.00000043       0.00000025
Hg       7.08413771       5.00924246      12.27008720       0.00000019       0.00000065      -0.00000011
W        0.00000041       0.00000179       0.00000083      -0.00000609      -0.00002089      -0.00001833
I        2.23235724       1.57851554       8.18005909      -0.00204764      -0.00144994      -0.00000075
I        7.21315989       5.10047384       8.18005941       0.00206299       0.00146003      -0.00000207
I        5.96795915       1.57851601       6.02330906       0.00102788      -0.00145464      -0.00178215
I        3.47755950       5.10047227      10.33680739      -0.00104013       0.00147100       0.00180049
I        3.47755874       5.10047328       6.02330967      -0.00103286       0.00146188      -0.00179175
I        5.96795879       1.57851788      10.33680753       0.00103568      -0.00146769       0.00179440
