9
Lattice="7.09278074357787 -7.474515936789294e-07 4.095019284252114 2.364259952713611 6.687137517178228 4.095018574875799 3.828011885836101e-07 -5.981233448083513e-07 8.190037905473282" Properties=species:S:1:pos:R:3:forces:R:3 energy=-26.43063735961914 free_energy=-26.43063735961914 stress="-0.00015260417421814054 -1.0907404401905296e-07 8.435964105046878e-08 -1.0907404401905296e-07 -0.00015252121374942362 -1.2897731949124136e-07 8.435964105046878e-08 -1.2897731949124136e-07 -0.00015243505185935646" pbc="T T T"
Hg       2.36426046       1.67178373       4.09501854      -0.00000006      -0.00000000      -0.00000013
Hg       7.09278071       5.01535224      12.28505698       0.00000013      -0.00000019      -0.00000015
W       -0.00000019      -0.00000073      -0.00000053      -0.00000240       0.00002425       0.00000767
Br       2.03294021       1.43750411       8.19003808       0.00399526       0.00282827      -0.00000072
Br       7.42410232       5.24963191       8.19003765      -0.00400946      -0.00283340      -0.00000015
Br       6.07631057       1.43750464       5.85559822      -0.00199461       0.00282158       0.00345182
Br       3.38072986       5.24963124      10.52447993       0.00200416      -0.00283262      -0.00347177
Br       3.38073056       5.24963115       5.85559776       0.00199219      -0.00281660       0.00345015
Br       6.07630978       1.43750651      10.52447616      -0.00198524       0.00280859      -0.00343669
