9
Lattice="5.531547934522842 1.2706955243282434e-07 3.193640987962437 1.8438494847237683 5.2151936586128125 3.193640895447063 2.5842325001282677e-07 6.94250254543283e-08 6.387281528322661" Properties=species:S:1:pos:R:3:forces:R:3 energy=-37.192222595214844 free_energy=-37.192222595214844 stress="-0.00010938019840978086 -2.0591514271472988e-08 6.265588936571476e-09 -2.0591514271472988e-08 -0.00010929180280072615 -5.0338022639095925e-09 6.265588936571476e-09 -5.0338022639095925e-09 -0.0001092501770472154" pbc="T T T"
Hg       1.84384973       1.30379868       3.19363976      -0.00000106      -0.00000007      -0.00000401
Hg       5.53154722       3.91139455       9.58092295      -0.00000197      -0.00000199       0.00000163
Y       -0.00000014       0.00000012      -0.00000020       0.00000178      -0.00000570       0.00000000
F        1.77729594       1.25673746       6.38728249       0.00526413       0.00372112       0.00000066
F        5.59810186       3.95845635       6.38728194      -0.00526404      -0.00372145      -0.00000076
F        4.64290106       1.25673811       4.73282428      -0.00263084       0.00372380       0.00455746
F        2.73249698       3.95845589       8.04173897       0.00263102      -0.00371924      -0.00455365
F        2.73249750       3.95845560       4.73282361       0.00263137      -0.00371945       0.00455478
F        4.64290047       1.25673860       8.04173977      -0.00263081       0.00372300      -0.00455627
