9
Lattice="7.401378980689036 6.185074500626014e-07 4.273188054757905 2.4671268613205553 6.978087649334542 4.27318813912643 -9.021873582622055e-08 3.9535534850249225e-08 8.546376265779422" Properties=species:S:1:pos:R:3:forces:R:3 energy=-28.00108528137207 free_energy=-28.00108528137207 stress="0.00011873578478116542 -2.5362288269548117e-08 -1.1640894470588137e-08 -2.5362288269548117e-08 0.00011873841867782176 2.2627132167940545e-08 -1.1640894470588137e-08 2.2627132167940545e-08 0.00011878496297867969" pbc="T T T"
Hg       2.46712612       1.74452158       4.27318769      -0.00000018      -0.00000035      -0.00000018
Hg       7.40137962       5.23356622      12.81956351      -0.00000003      -0.00000002      -0.00000004
Y       -0.00000051      -0.00000045       0.00000008       0.00000462       0.00000392      -0.00000062
Cl       2.15515368       1.52392197       8.54637692      -0.00316265      -0.00223605      -0.00000052
Cl       7.71335226       5.45416572       8.54637658       0.00315934       0.00223376       0.00000002
Cl       6.32380235       1.52392470       6.13960622       0.00158270      -0.00223820      -0.00274357
Cl       3.54470306       5.45416367      10.95314609      -0.00158392       0.00223905       0.00274494
Cl       3.54470224       5.45416607       6.13960721      -0.00158186       0.00223483      -0.00274062
Cl       6.32380413       1.52392375      10.95314565       0.00158189      -0.00223689       0.00274062
