9
Lattice="7.595590748655182 -2.4897861519891325e-07 4.3853162596373645 2.531863330326557 7.1611919142637275 4.38531629050072 -9.346027395832282e-08 -2.8286277262732383e-08 8.770632681152401" Properties=species:S:1:pos:R:3:forces:R:3 energy=-25.092451095581055 free_energy=-25.092451095581055 stress="-6.193861281644786e-06 -1.417656569913106e-08 -3.6980811746190057e-09 -1.417656569913106e-08 -6.188301540532848e-06 1.0276274942100372e-08 -3.6980811746190057e-09 1.0276274942100372e-08 -6.169103926367825e-06" pbc="T T T"
Hg       2.53186393       1.79029773       4.38531612       0.00000016      -0.00000012      -0.00000011
Hg       7.59559006       5.37089389      13.15594930       0.00000012       0.00000012      -0.00000004
Y       -0.00000001       0.00000021      -0.00000069       0.00000139      -0.00000154       0.00000330
Br       2.29577796       1.62336009       8.77063283      -0.00318933      -0.00225486      -0.00000070
Br       7.83167615       5.53783127       8.77063249       0.00318889       0.00225498      -0.00000037
Br       6.44770152       1.62336017       6.37351941       0.00159569      -0.00225708      -0.00276503
Br       3.67975341       5.53783082      11.16774593      -0.00159666       0.00225791       0.00276518
Br       3.67975200       5.53783173       6.37351937      -0.00159551       0.00225617      -0.00276443
Br       6.44770081       1.62336055      11.16774630       0.00159509      -0.00225562       0.00276217
