9
Lattice="6.2702322207908425 2.2478743127071363e-08 3.6201203354948404 2.0900774132657536 5.9116316075984345 3.6201203612290818 -9.425909067449571e-09 2.4852768746303623e-08 7.240240687315844" Properties=species:S:1:pos:R:3:forces:R:3 energy=-13.89750862121582 free_energy=-13.89750862121582 stress="5.054213397670537e-05 -1.8164981741009e-09 1.239372338091016e-08 -1.8164981741009e-09 5.0540940719656646e-05 -9.557573399376906e-09 1.239372338091016e-08 -9.557573399376906e-09 5.0530696171335876e-05" pbc="T T T"
Hg       2.09007754       1.47790808       3.62012032       0.00000019       0.00000032      -0.00000042
Hg       6.27023216       4.43372377      10.86036113       0.00000013       0.00000020       0.00000036
Zn      -0.00000007       0.00000005      -0.00000050      -0.00000026       0.00000086       0.00000405
Br       2.08529503       1.47452603       7.24024072      -0.00065216      -0.00046130       0.00000082
Br       6.27501495       4.43710553       7.24024072       0.00065133       0.00046127       0.00000080
Br       5.22758474       1.47452624       5.42603868       0.00032738      -0.00046264      -0.00056651
Br       3.13272464       4.43710551       9.05444299      -0.00032468       0.00045888       0.00056219
Br       3.13272483       4.43710539       5.42603852      -0.00032723       0.00046329      -0.00056586
Br       5.22758469       1.47452604       9.05444287       0.00032520      -0.00046067       0.00056466
