9
Lattice="6.9882689718722 -1.3100029993779657e-07 4.03467917850921 2.3294227544958854 6.5886034934232125 4.034679373572585 -1.8937969192943126e-07 1.0499111933824453e-07 8.069358685033652" Properties=species:S:1:pos:R:3:forces:R:3 energy=-26.500600814819336 free_energy=-26.500600814819336 stress="-7.040120544843376e-05 1.4093782807478306e-09 6.77495126666372e-09 1.4093782807478306e-09 -7.039119373075664e-05 -1.057163245832271e-08 6.77495126666372e-09 -1.057163245832271e-08 -7.040138734737411e-05" pbc="T T T"
Hg       2.32942302       1.64715067       4.03467862       0.00000014      -0.00000037       0.00000038
Hg       6.98826877       4.94145231      12.10403817      -0.00000009       0.00000025       0.00000004
Zr      -0.00000064       0.00000027       0.00000082       0.00000435      -0.00000150      -0.00000892
Br       2.17084544       1.53501971       8.06935861       0.00417730       0.00295357      -0.00000018
Br       7.14684625       5.05358373       8.06935842      -0.00418010      -0.00295525      -0.00000017
Br       5.90284615       1.53501956       5.91468665      -0.00209180       0.00295788       0.00362265
Br       3.41484541       5.05358365      10.22403064       0.00208803      -0.00295209      -0.00361684
Br       3.41484558       5.05358368       5.91468675       0.00209024      -0.00295535       0.00362015
Br       5.90284607       1.53502032      10.22403019      -0.00208806       0.00295285      -0.00361714
