9
Lattice="7.6290223355879725 -4.06120575643235e-07 4.4046178821159625 2.5430071099367737 7.192710380949305 4.404617799609358 1.798037745642617e-08 -8.833533123240196e-08 8.809235733089055" Properties=species:S:1:pos:R:3:forces:R:3 energy=-23.007286071777344 free_energy=-23.007286071777344 stress="-0.00010438644676469266 -1.4774200529643622e-08 1.6568503014013913e-08 -1.4774200529643622e-08 -0.00010438437311677262 -1.9775866277882415e-08 1.6568503014013913e-08 -1.9775866277882415e-08 -0.00010437033051857725" pbc="T T T"
Hg       2.54300735       1.79817763       4.40461728       0.00000015       0.00000010       0.00000004
Hg       7.62902156       5.39453202      13.21385413       0.00000016      -0.00000006       0.00000000
Zr       0.00000133      -0.00000018      -0.00000199      -0.00000794       0.00000220       0.00001969
I        2.33614197       1.65190096       8.80923582       0.00488815       0.00345711       0.00000047
I        7.83588784       5.54080886       8.80923540      -0.00488544      -0.00345467       0.00000107
I        6.46095084       1.65190179       6.42777685      -0.00243876       0.00344928       0.00422516
I        3.71107654       5.54081018      11.19069616       0.00244797      -0.00346196      -0.00423903
I        3.71107959       5.54080785       6.42777650       0.00243926      -0.00344927       0.00422514
I        6.46095081       1.65190041      11.19069533      -0.00244347       0.00345732      -0.00423256
