9
Lattice="5.685851973855813 2.0355053045349698e-07 3.2827284950312965 1.8952842185013734 5.360672555359021 3.2827284338780545 2.3598144147548323e-07 9.196695623785302e-08 6.565456581330661" Properties=species:S:1:pos:R:3:forces:R:3 energy=-41.93635559082031 free_energy=-41.93635559082031 stress="-0.00014863317483104765 -1.930417781181859e-08 -6.1265312822911255e-09 -1.930417781181859e-08 -0.00014862173702567816 -1.3392654096833212e-08 -6.1265312822911255e-09 -1.3392654096833212e-08 -0.00014857988571748137" pbc="T T T"
Hg       1.89528388       1.34016828       3.28272869      -0.00000021       0.00000059       0.00000024
Hg       5.68585271       4.02050445       9.84818551       0.00000020       0.00000027       0.00000065
Zr       0.00000014       0.00000020       0.00000085       0.00000100       0.00000332      -0.00001979
F        1.66746278       1.17907444       6.56545649       0.00196984       0.00139341       0.00000086
F        5.91367375       4.18159881       6.56545684      -0.00197387      -0.00139567       0.00000030
F        4.85212099       1.17907439       4.72679312      -0.00098711       0.00139728       0.00171036
F        2.72901518       4.18159872       8.40411943       0.00098425      -0.00139162      -0.00170293
F        2.72901509       4.18159800       4.72679334       0.00098900      -0.00139788       0.00171155
F        4.85212109       1.17907422       8.40411984      -0.00098298       0.00139010      -0.00170121
