9
Lattice="5.855891932178553 6.824896765913711e-09 3.380900713976399 1.9519639769714552 5.520987888401606 3.380900725851296 -1.1887592042613527e-08 6.137912936561127e-09 6.761801448542707" Properties=species:S:1:pos:R:3:forces:R:3 energy=-16.123029708862305 free_energy=-16.123029708862305 stress="-0.00034459427115507424 -1.497027746211188e-08 1.6791590340403673e-08 -1.497027746211188e-08 -0.0003445891197770834 -4.218243088160989e-09 1.6791590340403673e-08 -4.218243088160989e-09 -0.00034461423638276756" pbc="T T T"
Hg       1.95196397       1.38024697       3.38090071       0.00000009       0.00000143       0.00000021
Hg       5.85589191       4.14074096      10.14270215       0.00000005      -0.00000060      -0.00000063
Zn      -0.00000005       0.00000000      -0.00000001       0.00000130       0.00000002       0.00000135
Cl       1.95358893       1.38139601       6.76180144       0.00219339       0.00154990       0.00000179
Cl       5.85426704       4.13959196       6.76180142      -0.00219691      -0.00155383       0.00000021
Cl       4.87909744       1.38139596       5.07275831      -0.00109644       0.00155181       0.00190130
Cl       2.92875843       4.13959189       8.45084454       0.00109814      -0.00155088      -0.00190210
Cl       2.92875844       4.13959191       5.07275838       0.00109777      -0.00154987       0.00189987
Cl       4.87909748       1.38139596       8.45084463      -0.00109729       0.00155205      -0.00190246
