9
Lattice="6.746089409092539 3.2531603810660347e-07 3.894856962013024 2.248696752536252 6.36027415366766 3.894857003360698 2.552640379045836e-07 2.311393526109883e-07 7.7897134818956735" Properties=species:S:1:pos:R:3:forces:R:3 energy=-30.185346603393555 free_energy=-30.185346603393555 stress="-1.0576361546554836e-06 1.5617592552530368e-08 -4.582657453511274e-08 1.5617592552530368e-08 -1.0455758001626236e-06 6.736899393899876e-08 -4.582657453511274e-08 6.736899393899876e-08 -1.0580744174149004e-06" pbc="T T T"
Hg       2.24869620       1.59006817       3.89485682       0.00000013       0.00000002      -0.00000010
Hg       6.74609000       4.77020590      11.68457065       0.00000013      -0.00000015      -0.00000017
Zr       0.00000003       0.00000022      -0.00000063       0.00000535      -0.00000812       0.00000793
Cl       2.03143454       1.43644241       7.78971331      -0.00035834      -0.00025673       0.00000042
Cl       6.96335130       4.92383381       7.78971391       0.00035962       0.00025378       0.00000009
Cl       5.73037190       1.43644233       5.65413097       0.00018083      -0.00025643      -0.00031269
Cl       3.26441480       4.92383204       9.92529531      -0.00018188       0.00025842       0.00031799
Cl       3.26441360       4.92383311       5.65413138      -0.00017931       0.00025493      -0.00031272
Cl       5.73037335       1.43644095       9.92529802       0.00017342      -0.00024582       0.00029939
