9
Lattice="6.410836045612869 1.9822131417147338e-08 3.7012978837810784 2.1369453688140636 6.044194095301221 3.7012978810306887 7.060681723222153e-09 1.624115709607004e-09 7.4025957553326585" Properties=species:S:1:pos:R:3:forces:R:3 energy=-20.8668212890625 free_energy=-20.8668212890625 stress="-7.658436516067013e-05 3.7189411550286877e-09 2.1809070105405226e-09 3.7189411550286877e-09 -7.659307448193431e-05 -4.832309219438002e-09 2.1809070105405226e-09 -4.832309219438002e-09 -7.65936347306706e-05" pbc="T T T"
In       2.13694537       1.51104849       3.70129789       0.00000024      -0.00000005       0.00000004
In       6.41083614       4.53314558      11.10389347      -0.00000012      -0.00000041      -0.00000042
Ag      -0.00000026      -0.00000031       0.00000035       0.00000245       0.00000296      -0.00000021
Br       2.14571179       1.51724746       7.40259587      -0.00247444      -0.00174954      -0.00000005
Br       6.40206984       4.52694689       7.40259573       0.00247122       0.00174764       0.00000063
Br       5.33798033       1.51724709       5.55953864       0.00123607      -0.00174812      -0.00214098
Br       3.20980126       4.52694689       9.24565272      -0.00123576       0.00174788       0.00214078
Br       3.20980104       4.52694708       5.55953862      -0.00123605       0.00174760      -0.00214076
Br       5.33798016       1.51724732       9.24565278       0.00123641      -0.00174801       0.00214116
