9
Lattice="5.1153468860768605 3.162671734931175e-07 2.9533469793736997 1.7051157267941046 4.822796367737473 2.9533473259185246 -1.0535573043847311e-07 3.499311761400393e-07 5.906694141228935" Properties=species:S:1:pos:R:3:forces:R:3 energy=-32.83235549926758 free_energy=-32.83235549926758 stress="0.00026061275275424123 -1.1676229760837487e-08 1.7575432664784785e-08 -1.1676229760837487e-08 0.00026058635558001697 -4.248414242624676e-08 1.7575432664784785e-08 -4.248414242624676e-08 0.0002606283233035356" pbc="T T T"
In       1.70511492       1.20569961       2.95334712      -0.00000263       0.00000173       0.00000029
In       5.11534650       3.61709741       8.86004132      -0.00000053      -0.00000177       0.00000019
Au      -0.00000009       0.00000010      -0.00000020      -0.00000040      -0.00000565       0.00000251
F        1.70852516       1.20811058       5.90669433      -0.00648695      -0.00458619       0.00000002
F        5.11193752       3.61468628       5.90669418       0.00649035       0.00458902      -0.00000045
F        4.26108464       1.20811089       4.43297401       0.00324477      -0.00458691      -0.00561851
F        2.55937825       3.61468638       7.38041484      -0.00324388       0.00458734       0.00561848
F        2.55937825       3.61468591       4.43297362      -0.00324528       0.00458905      -0.00562105
F        4.26108487       1.20811102       7.38041451       0.00324464      -0.00458668       0.00561863
