9
Lattice="6.381875981590909 -5.1007938962914426e-09 3.6845778442654096 2.127291990236954 6.016890507866561 3.6845778422174704 1.4128045443302664e-08 7.481812468964263e-09 7.369155664060333" Properties=species:S:1:pos:R:3:forces:R:3 energy=-21.213163375854492 free_energy=-21.213163375854492 stress="6.342010692605982e-06 -1.0986582754668461e-09 3.0698719122312923e-09 -1.0986582754668461e-09 6.341082553262822e-06 -1.6557577531273182e-09 3.0698719122312923e-09 -1.6557577531273182e-09 6.332880730042234e-06" pbc="T T T"
In       2.12729202       1.50422250       3.68457784       0.00000014      -0.00000030       0.00000019
In       6.38187590       4.51266792      11.05373343      -0.00000011       0.00000014       0.00000018
Au       0.00000002       0.00000021       0.00000018       0.00000017      -0.00000111      -0.00000075
Br       2.16666946       1.53206673       7.36915569      -0.00366825      -0.00259408       0.00000002
Br       6.34249840       4.48482359       7.36915568       0.00366858       0.00259441      -0.00000048
Br       5.29854121       1.53206684       5.56096888       0.00183396      -0.00259353      -0.00317664
Br       3.21062690       4.48482365       9.17734242      -0.00183441       0.00259452       0.00317742
Br       3.21062689       4.48482372       5.56096882      -0.00183402       0.00259411      -0.00317708
Br       5.29854115       1.53206690       9.17734246       0.00183393      -0.00259419       0.00317694
