9
Lattice="6.172085427424194 1.0569312517524043e-07 3.563455081987437 2.057361911994143 5.819097814405016 3.563455076437379 -9.740487473669047e-08 -7.567305537592154e-08 7.126910332685076" Properties=species:S:1:pos:R:3:forces:R:3 energy=-23.698347091674805 free_energy=-23.698347091674805 stress="8.037508086999878e-05 2.0769441722023885e-09 -1.1046775716394563e-09 2.0769441722023885e-09 8.036177314352244e-05 1.7844964395052898e-09 -1.1046775716394563e-09 1.7844964395052898e-09 8.03817092673853e-05" pbc="T T T"
In       2.05736185       1.45477494       3.56345476      -0.00000007       0.00000064      -0.00000018
In       6.17208544       4.36432353      10.69036569      -0.00000003       0.00000038       0.00000002
Au      -0.00000016      -0.00000023      -0.00000008       0.00000226       0.00000133       0.00000368
Cl       2.02962049       1.43515829       7.12690989       0.00144926       0.00102454       0.00000003
Cl       6.19982699       4.38393954       7.12691000      -0.00145105      -0.00102538      -0.00000027
Cl       5.15727554       1.43515821       5.32115776      -0.00072493       0.00102428       0.00125477
Cl       3.07217173       4.38393961       8.93266319       0.00072469      -0.00102586      -0.00125685
Cl       3.07217169       4.38393955       5.32115755       0.00072466      -0.00102437       0.00125468
Cl       5.15727539       1.43515797       8.93266320      -0.00072472       0.00102431      -0.00125557
