9
Lattice="6.208983212944085 -6.834055098952681e-08 3.5847580451435106 2.069661015119992 5.853885449225962 3.5847580302985045 -2.949332808114255e-08 -3.903620453756103e-08 7.169516141370888" Properties=species:S:1:pos:R:3:forces:R:3 energy=-23.22024917602539 free_energy=-23.22024917602539 stress="-8.164562132151332e-06 1.936599547391893e-09 5.8093934107716905e-09 1.936599547391893e-09 -8.169394277501851e-06 6.514309647265293e-10 5.8093934107716905e-09 6.514309647265293e-10 -8.173597052518744e-06" pbc="T T T"
In       2.06966120       1.46347128       3.58475826       0.00000016       0.00000032       0.00000031
In       6.20898323       4.39041429      10.75427409       0.00000054       0.00000018      -0.00000010
Ag      -0.00000008      -0.00000010      -0.00000003      -0.00000001      -0.00000044       0.00000083
Cl       2.01143368       1.42229839       7.16951620       0.00507528       0.00358854       0.00000001
Cl       6.26721081       4.43158720       7.16951633      -0.00507587      -0.00358960      -0.00000027
Cl       5.20326629       1.42229839       5.32671083      -0.00253758       0.00358893       0.00439537
Cl       3.07537789       4.43158730       9.01232107       0.00253768      -0.00358896      -0.00439501
Cl       3.07537762       4.43158657       5.32671102       0.00253753      -0.00358795       0.00439471
Cl       5.20326607       1.42229808       9.01232115      -0.00253788       0.00358891      -0.00439584
