9
Lattice="6.794584426260223 -5.7633996433068514e-08 3.9228551478466676 2.2648614631500257 6.405995547762405 3.922855074983065 3.7991940623192256e-08 -6.2374955544071e-08 7.845710229889366" Properties=species:S:1:pos:R:3:forces:R:3 energy=-18.916330337524414 free_energy=-18.916330337524414 stress="5.0590351747814566e-05 5.565877092550409e-09 5.481070042279157e-10 5.565877092550409e-09 5.0575104978634045e-05 -2.9285676106383107e-09 5.481070042279157e-10 -2.9285676106383107e-09 5.057947419118136e-05" pbc="T T T"
In       2.26486142       1.60149883       3.92285504      -0.00000029      -0.00000013       0.00000013
In       6.79458445       4.80449649      11.76856535       0.00000036       0.00000012      -0.00000004
Ag       0.00000009       0.00000001      -0.00000015       0.00000032       0.00000017       0.00000020
I        2.35041151       1.66199199       7.84571015      -0.00001139      -0.00000775       0.00000031
I        6.70903438       4.74400349       7.84571020       0.00001136       0.00000831       0.00000011
I        5.61937850       1.66199202       5.95837130       0.00000549      -0.00000838      -0.00001022
I        3.44006726       4.74400358       9.73304931      -0.00000566       0.00000789       0.00000953
I        3.44006730       4.74400337       5.95837127      -0.00000557       0.00000808      -0.00000961
I        5.61937877       1.66199189       9.73304935       0.00000538      -0.00000831       0.00000965
