9
Lattice="6.784708777811457 5.9923968688876965e-09 3.9171534058701334 2.2615695989846922 6.396684778084453 3.91715340460379 -1.2260837162447626e-08 -1.0220679993197778e-08 7.834306832976662" Properties=species:S:1:pos:R:3:forces:R:3 energy=-19.372922897338867 free_energy=-19.372922897338867 stress="8.394610631512478e-05 2.5110955537144264e-09 7.49846129632914e-10 2.5110955537144264e-09 8.394164615310729e-05 -2.507652308025854e-09 7.49846129632914e-10 -2.507652308025854e-09 8.393994357902557e-05" pbc="T T T"
In       2.26156954       1.59917124       3.91715336       0.00000019       0.00000004      -0.00000013
In       6.78470876       4.79751350      11.75146027      -0.00000007      -0.00000014       0.00000006
Au       0.00000015      -0.00000016      -0.00000018      -0.00000028       0.00000104       0.00000084
I        2.34868487       1.66077094       7.83430685      -0.00064561      -0.00045615       0.00000007
I        6.69759353       4.73591389       7.83430672       0.00064516       0.00045586      -0.00000013
I        5.61036644       1.66077101       5.95117411       0.00032267      -0.00045636      -0.00055899
I        3.43591187       4.73591397       9.71743973      -0.00032248       0.00045551       0.00055817
I        3.43591192       4.73591385       5.95117405      -0.00032229       0.00045635      -0.00055870
I        5.61036635       1.66077085       9.71743961       0.00032265      -0.00045618       0.00055869
