9
Lattice="4.964569573359677 -5.151233834868992e-10 2.8662956756422475 1.6548565249717455 4.680641333862984 2.8662956739029366 -1.1530290991252253e-07 -8.366167980533443e-08 5.732591550994986" Properties=species:S:1:pos:R:3:forces:R:3 energy=-32.60960006713867 free_energy=-32.60960006713867 stress="0.00024626776576042175 -3.089208533424426e-08 3.581061491786386e-08 -3.089208533424426e-08 0.0002462666016072035 2.7732667717828008e-08 3.581061491786386e-08 2.7732667717828008e-08 0.00024615463917143643" pbc="T T T"
In       1.65485638       1.17016026       2.86629546      -0.00000016      -0.00000041      -0.00000150
In       4.96457004       3.51048052       8.59888637       0.00000351      -0.00000317      -0.00000477
Ag      -0.00000010       0.00000000       0.00000001      -0.00000170       0.00000135      -0.00000162
F        1.69794320       1.20062793       5.73259162      -0.00350314      -0.00247473       0.00000068
F        4.92148261       3.48001367       5.73259190       0.00350237       0.00247604       0.00000199
F        4.11559786       1.20062728       4.33675807       0.00175083      -0.00247541      -0.00303096
F        2.50382815       3.48001384       7.12842479      -0.00175187       0.00247619       0.00303257
F        2.50382800       3.48001384       4.33675830      -0.00175107       0.00247520      -0.00302994
F        4.11559760       1.20062774       7.12842513       0.00175107      -0.00247496       0.00303417
