9
Lattice="6.372178996386834 2.588557070958131e-07 3.6789792395463 2.1240599054208777 6.007747728764682 3.6789792466354214 9.731721070661003e-08 7.74960641644118e-08 7.3579583105342135" Properties=species:S:1:pos:R:3:forces:R:3 energy=-23.777454376220703 free_energy=-23.777454376220703 stress="3.053916589124128e-05 1.896152124203354e-09 9.292556946149944e-09 1.896152124203354e-09 3.0537099519278854e-05 -4.275909348816498e-10 9.292556946149944e-09 -4.275909348816498e-10 3.052314423257485e-05" pbc="T T T"
In       2.12405780       1.50193589       3.67897856      -0.00000145      -0.00000077      -0.00000062
In       6.37217982       4.50581048      11.03693713       0.00000034      -0.00000092      -0.00000073
Be      -0.00000004       0.00000014      -0.00000017       0.00000036       0.00000008      -0.00000043
Br       2.01240249       1.42298375       7.35795874      -0.00049153      -0.00034787       0.00000029
Br       6.48383632       4.58476430       7.35795856       0.00049469       0.00034975      -0.00000034
Br       5.36597841       1.42298411       5.42177082       0.00024612      -0.00034927      -0.00042582
Br       3.13026168       4.58476472       9.29414601      -0.00024782       0.00034952       0.00042792
Br       3.13026152       4.58476427       5.42177102      -0.00024739       0.00034888      -0.00042742
Br       5.36597795       1.42298457       9.29414644       0.00024660      -0.00034939       0.00042699
