9
Lattice="6.7657741642004074 1.226840579357028e-08 3.9062215425842832 2.2552580721424547 6.378832989293916 3.9062215324652163 -4.572545897578235e-08 -4.472607454953422e-08 7.812443164367415" Properties=species:S:1:pos:R:3:forces:R:3 energy=-21.145105361938477 free_energy=-21.145105361938477 stress="6.553068669745699e-05 -3.1374631781488915e-09 -4.1899050895466416e-10 -3.1374631781488915e-09 6.552886043209583e-05 -4.755476568085726e-10 -4.1899050895466416e-10 -4.755476568085726e-10 6.553903949679807e-05" pbc="T T T"
In       2.25525812       1.59470827       3.90622170       0.00000002      -0.00000000       0.00000001
In       6.76577405       4.78412469      11.71866457       0.00000008      -0.00000004       0.00000006
Be      -0.00000004       0.00000026       0.00000019      -0.00000003      -0.00000048      -0.00000054
I        2.13098303       1.50683256       7.81244317       0.00138293       0.00097790      -0.00000018
I        6.89004925       4.87200023       7.81244316      -0.00138295      -0.00097747      -0.00000005
I        5.70028264       1.50683265       5.75170679      -0.00069124       0.00097797       0.00119820
I        3.32074963       4.87200047       9.87317938       0.00069123      -0.00097784      -0.00119783
I        3.32074946       4.87200019       5.75170665       0.00069134      -0.00097746       0.00119759
I        5.70028263       1.50683253       9.87317944      -0.00069136       0.00097743      -0.00119713
