9
Lattice="4.533040232576883 -2.2747464846426424e-09 2.6171520953099012 1.5110134247131943 4.273791281472427 2.6171520675990205 2.3070709464770636e-08 -1.7625295771982363e-08 5.234304150660149" Properties=species:S:1:pos:R:3:forces:R:3 energy=-41.445098876953125 free_energy=-41.445098876953125 stress="0.00018585569341666996 1.2909223912060952e-08 -1.7827535003789308e-08 1.2909223912060952e-08 0.0001859569747466594 -2.4255037089915277e-08 -1.7827535003789308e-08 -2.4255037089915277e-08 0.0001859725161921233" pbc="T T T"
In       1.51101330       1.06844789       2.61715214       0.00000009       0.00000147       0.00000060
In       4.53304039       3.20534354       7.85145598       0.00000009       0.00000072      -0.00000029
Be       0.00000011       0.00000004       0.00000013       0.00000026       0.00000076       0.00000097
F        1.42848677       1.01009256       5.23430415      -0.00074703      -0.00052878      -0.00000045
F        4.61556692       3.26369852       5.23430422       0.00074759       0.00052840       0.00000019
F        3.81879688       1.01009257       3.85425798       0.00037314      -0.00052890      -0.00064677
F        2.22525674       3.26369864       6.61435036      -0.00037399       0.00052750       0.00064564
F        2.22525670       3.26369862       3.85425791      -0.00037341       0.00052780      -0.00064641
F        3.81879694       1.01009270       6.61435048       0.00037315      -0.00052878       0.00064668
