9
Lattice="4.811122186991261 3.0499411485457686e-08 2.777702763899354 1.6037074427979274 4.535969178403 2.777702732065896 9.43672935933844e-08 2.773987197436438e-08 5.55540536434973" Properties=species:S:1:pos:R:3:forces:R:3 energy=-38.126914978027344 free_energy=-38.126914978027344 stress="-0.0006884437752887607 6.00119136606736e-08 -5.1530925304632547e-08 6.00119136606736e-08 -0.0006883305031806231 -7.486388398092458e-09 -5.1530925304632547e-08 -7.486388398092458e-09 -0.0006885424954816699" pbc="T T T"
In       1.60370683       1.13399160       2.77770275      -0.00000590      -0.00000576       0.00000071
In       4.81112210       3.40197743       8.33310882      -0.00000306       0.00000394       0.00000797
Ca       0.00000006      -0.00000007       0.00000025      -0.00000386       0.00000165      -0.00000344
F        1.71337706       1.21154005       5.55540532       0.00164559       0.00116012      -0.00000123
F        4.70145276       3.32442910       5.55540494      -0.00164309      -0.00115967      -0.00000441
F        3.95443428       1.21154023       4.26153066      -0.00082000       0.00116310       0.00142649
F        2.46039565       3.32442921       6.84928015       0.00082259      -0.00116134      -0.00142772
F        2.46039605       3.32442926       4.26153041       0.00082827      -0.00116296       0.00142634
F        3.95443410       1.21154023       6.84928014      -0.00082040       0.00116059      -0.00142509
