9
Lattice="6.818934264251455 -5.453882747424105e-08 3.9369135750592985 2.2729779760218904 6.428952971892731 3.936913680094711 -3.06507688454974e-08 1.0696820319067346e-07 7.873827203207309" Properties=species:S:1:pos:R:3:forces:R:3 energy=-27.740806579589844 free_energy=-27.740806579589844 stress="5.0738970458041877e-05 -1.7727701973058174e-08 -2.7258839629951126e-09 -1.7727701973058174e-08 5.0753071263898164e-05 3.359640121658458e-09 -2.7258839629951126e-09 3.359640121658458e-09 5.0763803301379085e-05" pbc="T T T"
In       2.27297816       1.60723816       3.93691367       0.00000007       0.00000005      -0.00000003
In       6.81893412       4.82171477      11.81074084      -0.00000005       0.00000008      -0.00000011
Cr       0.00000002       0.00000022      -0.00000125      -0.00000007      -0.00000114       0.00001116
I        2.18413534       1.54441700       7.87382719       0.00124745       0.00088175      -0.00000050
I        6.90777683       4.88453608       7.87382728      -0.00124697      -0.00088248       0.00000003
I        5.72686611       1.54441762       5.82843096      -0.00062134       0.00087877       0.00107613
I        3.36504584       4.88453587       9.91922395       0.00062374      -0.00088205      -0.00108072
I        3.36504600       4.88453538       5.82843108       0.00062125      -0.00087815       0.00107583
I        5.72686648       1.54441705       9.91922405      -0.00062407       0.00088303      -0.00108178
