9
Lattice="6.117925816364232 3.671207096368347e-08 3.5321858495734477 2.0393085912200903 5.768035301162025 3.532185934179178 -1.310520630394478e-07 1.0952559401598914e-08 7.064371926135789" Properties=species:S:1:pos:R:3:forces:R:3 energy=-28.96187973022461 free_energy=-28.96187973022461 stress="3.676884443848394e-05 -2.2352162343253212e-09 4.8612460723518325e-09 -2.2352162343253212e-09 3.678571374621242e-05 -5.215515130885251e-09 4.8612460723518325e-09 -5.215515130885251e-09 3.676545020425692e-05" pbc="T T T"
In       2.03930844       1.44200914       3.53218587      -0.00000012       0.00000034      -0.00000012
In       6.11792583       4.32602582      10.59655727      -0.00000012      -0.00000042      -0.00000028
Co      -0.00000003       0.00000026      -0.00000042       0.00000057      -0.00000129       0.00000191
Cl       1.84720353       1.30617080       7.06437214       0.00180379       0.00127645      -0.00000045
Cl       6.31003025       4.46186452       7.06437206      -0.00180301      -0.00127433      -0.00000017
Cl       5.19432354       1.30617070       5.13191132      -0.00090176       0.00127439       0.00156197
Cl       2.96291085       4.46186504       8.99683237       0.00090238      -0.00127554      -0.00156258
Cl       2.96291102       4.46186477       5.13191160       0.00090078      -0.00127412       0.00156145
Cl       5.19432363       1.30617041       8.99683235      -0.00090255       0.00127447      -0.00156154
