9
Lattice="6.1213482224851585 -3.024247905114048e-08 3.5341621665961878 2.040449434736521 5.771262340902303 3.5341620700269063 1.0697003949506819e-07 -4.263353377480723e-08 7.068324147914919" Properties=species:S:1:pos:R:3:forces:R:3 energy=-34.20305633544922 free_energy=-34.20305633544922 stress="-3.3644450013525784e-05 -2.0609484951972235e-10 3.4287210848304994e-09 -2.0609484951972235e-10 -3.361970084370114e-05 -1.2808490268412243e-08 3.4287210848304994e-09 -1.2808490268412243e-08 -3.3584306947886944e-05" pbc="T T T"
In       2.04044976       1.44281550       3.53416234       0.00000007      -0.00000015       0.00000076
In       6.12134869       4.32844653      10.60248677       0.00000078      -0.00000011       0.00000041
Cr      -0.00000000       0.00000024      -0.00000088      -0.00000189      -0.00000265       0.00001638
Cl       1.90671534       1.34825152       7.06832367       0.00240175       0.00169843       0.00000122
Cl       6.25508249       4.42301050       7.06832388      -0.00240070      -0.00169653       0.00000043
Cl       5.16799024       1.34825165       5.18542682      -0.00119754       0.00169336       0.00207381
Cl       2.99380634       4.42301169       8.95122191       0.00120412      -0.00170278      -0.00208257
Cl       2.99380723       4.42301046       5.18542683       0.00119726      -0.00169155       0.00207134
Cl       5.16799112       1.34825088       8.95122216      -0.00120386       0.00170197      -0.00208198
