9
Lattice="6.5503705103558065 -3.833653393323333e-07 3.7818583145063687 2.1834567189881895 6.17574802338158 3.781857892503771 8.227985288096053e-08 -4.586647898431977e-07 7.563716486499872" Properties=species:S:1:pos:R:3:forces:R:3 energy=-23.008174896240234 free_energy=-23.008174896240234 stress="0.00016594029148109257 -1.2712717101237558e-08 -3.587153907247398e-09 -1.2712717101237558e-08 0.00016592882457189262 -1.921795389492331e-09 -3.587153907247398e-09 -1.921795389492331e-09 0.0001659309637034312" pbc="T T T"
In       2.18345766       1.54393688       3.78185894       0.00000017       0.00000019       0.00000002
In       6.55037145       4.63181100      11.34557520       0.00000015      -0.00000018       0.00000041
C        0.00000064      -0.00000011      -0.00000022      -0.00000118       0.00000083      -0.00000019
Br       1.93395868       1.36751497       7.56371614      -0.00408113      -0.00288653       0.00000108
Br       6.79986806       4.80823214       7.56371591       0.00408024       0.00288454      -0.00000008
Br       5.58339025       1.36751554       5.45671602       0.00204289      -0.00288764      -0.00353512
Br       3.15043601       4.80823151       9.67071636      -0.00204143       0.00288740       0.00353539
Br       3.15043603       4.80823189       5.45671580      -0.00204080       0.00288737      -0.00353476
Br       5.58339058       1.36751498       9.67071689       0.00204100      -0.00288594       0.00353315
