9
Lattice="6.3917848823668075 6.815975647150802e-08 3.690298664484027 2.130595093928343 6.026232482018028 3.6902985451842154 8.409817048077355e-09 -1.4016521287397546e-07 7.380597314401815" Properties=species:S:1:pos:R:3:forces:R:3 energy=-31.120851516723633 free_energy=-31.120851516723633 stress="8.85926783666946e-05 2.08442383353713e-08 4.188654312287099e-09 2.08442383353713e-08 8.859735680744052e-05 -1.3903412643401225e-08 4.188654312287099e-09 -1.3903412643401225e-08 8.857815555529669e-05" pbc="T T T"
In       2.13059499       1.50655815       3.69029868      -0.00000010       0.00000009       0.00000024
In       6.39178507       4.51967428      11.07089575       0.00000011      -0.00000011       0.00000017
Cr       0.00000093      -0.00000121       0.00000085      -0.00001465       0.00001892      -0.00001337
Br       2.01575231       1.42535217       7.38059708      -0.00133714      -0.00094573       0.00000066
Br       6.50662737       4.60088007       7.38059722       0.00133787       0.00094695       0.00000006
Br       5.38390890       1.42535181       5.43599127       0.00066934      -0.00094700      -0.00115884
Br       3.13847072       4.60088110       9.32520399      -0.00066510       0.00094094       0.00115262
Br       3.13847089       4.60088085       5.43599057      -0.00066293       0.00093827      -0.00114811
Br       5.38390873       1.42535243       9.32520266       0.00067265      -0.00095236       0.00116666
