9
Lattice="6.400341459292634 -4.0091352614285797e-07 3.695238880834938 2.133446844048455 6.034299060953095 3.695238761434716 -5.461172093715558e-08 -1.8485119431348687e-07 7.390477856260051" Properties=species:S:1:pos:R:3:forces:R:3 energy=-25.195234298706055 free_energy=-25.195234298706055 stress="-5.626841448247433e-05 2.5279687676516005e-08 -4.972688483206866e-09 2.5279687676516005e-08 -5.6441378546878695e-05 1.7883275305052848e-08 -4.972688483206866e-09 1.7883275305052848e-08 -5.6358756410190836e-05" pbc="T T T"
In       2.13344495       1.50857531       3.69523903      -0.00000107       0.00000110      -0.00000040
In       6.40034049       4.52572484      11.08571551      -0.00000100       0.00000134      -0.00000051
C       -0.00000375       0.00000610      -0.00000175      -0.00001405       0.00002094      -0.00000533
Cl       1.77381976       1.25427973       7.39047868      -0.00073280      -0.00051733      -0.00000288
Cl       6.75996787       4.78002006       7.39047844       0.00073505       0.00050946      -0.00000131
Cl       5.51343285       1.25427701       5.23141068       0.00036798      -0.00051391      -0.00063751
Cl       3.02035786       4.78001806       9.54954318      -0.00036231       0.00050917       0.00062366
Cl       3.02035910       4.78001753       5.23141309      -0.00036072       0.00050378      -0.00061611
Cl       5.51343373       1.25427550       9.54954529       0.00036881      -0.00051438       0.00064045
