9
Lattice="6.17119995883886 4.230641744978885e-07 3.56294436100695 2.0570669756140143 5.818264057346576 3.5629444929909173 -3.4181907171417196e-07 -8.005585223789354e-08 7.125889314061854" Properties=species:S:1:pos:R:3:forces:R:3 energy=-24.836078643798828 free_energy=-24.836078643798828 stress="-4.79953939702682e-07 -9.421293967193378e-09 1.0591313603924846e-08 -9.421293967193378e-09 -5.055957217336982e-07 -6.5046119601674945e-09 1.0591313603924846e-08 -6.5046119601674945e-09 -4.7461955432481773e-07" pbc="T T T"
In       2.05706876       1.45456616       3.56294497       0.00000282       0.00000009       0.00000034
In       6.17119934       4.36370001      10.68883570       0.00000007       0.00000215       0.00000380
Cu       0.00000028      -0.00000051      -0.00000066      -0.00000354       0.00000356       0.00000591
Cl       1.91854922       1.35661965       7.12588865      -0.00097299      -0.00068858      -0.00000033
Cl       6.30971772       4.46164405       7.12588793       0.00097084       0.00068706       0.00000025
Cl       5.21192478       1.35661968       5.22445646       0.00048599      -0.00068954      -0.00084606
Cl       3.01634077       4.46164500       9.02732172      -0.00048351       0.00068557       0.00083852
Cl       3.01634123       4.46164570       5.22445681      -0.00048545       0.00068760      -0.00084290
Cl       5.21192419       1.35661807       9.02732101       0.00048572      -0.00068772       0.00084057
