9
Lattice="6.716967192649581 -3.731643617203477e-08 3.8780428592451344 2.2389890486100974 6.332817479847912 3.878042825338745 3.801626115873149e-08 -1.4645051075020335e-08 7.75608565264405" Properties=species:S:1:pos:R:3:forces:R:3 energy=-23.481250762939453 free_energy=-23.481250762939453 stress="0.00026629355852492154 -4.0946751544979065e-10 -3.225618216973203e-09 -4.0946751544979065e-10 0.0002662961487658322 3.5096980877113992e-09 -3.225618216973203e-09 3.5096980877113992e-09 0.0002662954502739012" pbc="T T T"
In       2.23898913       1.58320454       3.87804290       0.00000005       0.00000003       0.00000034
In       6.71696723       4.74961288      11.63412842      -0.00000014      -0.00000015      -0.00000016
Co       0.00000003       0.00000008       0.00000021      -0.00000027      -0.00000025      -0.00000013
I        2.18675027       1.54626598       7.75608567      -0.00471649      -0.00333537      -0.00000016
I        6.76920604       4.78655128       7.75608566       0.00471687       0.00333546       0.00000004
I        5.62359209       1.54626595       5.77182438       0.00235765      -0.00333463      -0.00408468
I        3.33236418       4.78655128       9.74034695      -0.00235824       0.00333546       0.00408474
I        3.33236422       4.78655131       5.77182435      -0.00235765       0.00333531      -0.00408520
I        5.62359193       1.54626640       9.74034682       0.00235827      -0.00333585       0.00408521
