9
Lattice="6.7237712841591915 6.150025403955919e-08 3.88197107744147 2.2412571569729547 6.3392322440159345 3.881971070045192 -3.248891867654608e-08 -3.203161654562991e-08 7.763942211155389" Properties=species:S:1:pos:R:3:forces:R:3 energy=-20.26263427734375 free_energy=-20.26263427734375 stress="0.0002625409106258303 -5.959047477688273e-09 -2.432237744542931e-10 -5.959047477688273e-09 0.0002625480992719531 2.773557494784029e-10 -2.432237744542931e-10 2.773557494784029e-10 0.00026253930991515517" pbc="T T T"
In       2.24125693       1.58480803       3.88197102      -0.00000023      -0.00000025      -0.00000016
In       6.72377134       4.75442425      11.64591331       0.00000002       0.00000004       0.00000030
Cu      -0.00000011       0.00000001       0.00000008       0.00000028      -0.00000025      -0.00000037
I        2.25217708       1.59252961       7.76394215      -0.00726166      -0.00513499       0.00000011
I        6.71285136       4.74670274       7.76394227       0.00726166       0.00513495      -0.00000040
I        5.59768294       1.59252930       5.83241338       0.00363074      -0.00513464      -0.00628842
I        3.36734561       4.74670291       9.69547089      -0.00363089       0.00513587       0.00628889
I        3.36734569       4.74670282       5.83241336      -0.00363041       0.00513484      -0.00628871
I        5.59768279       1.59252941       9.69547097       0.00363050      -0.00513554       0.00628883
