9
Lattice="6.125610912387785 2.6696414863313036e-08 3.5366232230300345 2.0418703020713007 5.77528153004298 3.536623270189535 -2.462083711422575e-08 4.0348857511587535e-08 7.073246488704766" Properties=species:S:1:pos:R:3:forces:R:3 energy=-34.20298385620117 free_energy=-34.20298385620117 stress="0.0003217890625819564 -7.104045351979948e-08 2.153872813437374e-08 -7.104045351979948e-08 0.00032181345159187913 -1.5467911396171985e-08 2.153872813437374e-08 -1.5467911396171985e-08 0.00032188562909141183" pbc="T T T"
In       2.04187005       1.44382034       3.53662256      -0.00000034       0.00000016      -0.00000049
In       6.12560983       4.33146171      10.60986917      -0.00000093       0.00000087      -0.00000052
Cr      -0.00000001       0.00000006       0.00000050       0.00000376      -0.00000101      -0.00000581
Cl       1.90737564       1.34871807       7.07324640      -0.00324674      -0.00229590       0.00000139
Cl       6.26010646       4.42656386       7.07324644       0.00324365       0.00229212       0.00000163
Cl       5.17192269       1.34871880       5.18845945       0.00162652      -0.00229935      -0.00281444
Cl       2.99555862       4.42656311       8.95803364      -0.00162551       0.00229950       0.00281860
Cl       2.99555890       4.42656234       5.18845969      -0.00162745       0.00230249      -0.00281847
Cl       5.17192259       1.34871833       8.95803378       0.00162707      -0.00229892       0.00281787
