9
Lattice="6.366503271305569 -3.3874533057805966e-08 3.6757025364047426 2.122167718053507 6.002397050803282 3.675702548721484 -1.3337945122263851e-08 5.653545211074278e-09 7.3514050959115504" Properties=species:S:1:pos:R:3:forces:R:3 energy=-26.109622955322266 free_energy=-26.109622955322266 stress="-6.919587031006813e-05 8.80356676447036e-09 -7.932973389301878e-09 8.80356676447036e-09 -6.917260179761797e-05 2.0113635201823854e-09 -7.932973389301878e-09 2.0113635201823854e-09 -6.916710844961926e-05" pbc="T T T"
In       2.12216758       1.50059918       3.67570251      -0.00000020      -0.00000013       0.00000004
In       6.36650349       4.50179799      11.02710774       0.00000023       0.00000029       0.00000021
Co      -0.00000038      -0.00000037      -0.00000005       0.00000306       0.00000275      -0.00000104
Br       2.02709467       1.43337241       7.35140508       0.00002374       0.00001618       0.00000024
Br       6.46157666       4.56902527       7.35140503      -0.00002515      -0.00001919      -0.00000038
Br       5.35295609       1.43337219       5.43121820      -0.00001319       0.00001784       0.00002155
Br       3.13571502       4.56902461       9.27159205       0.00001155      -0.00001727      -0.00002092
Br       3.13571482       4.56902475       5.43121805       0.00001205      -0.00001778       0.00002113
Br       5.35295592       1.43337214       9.27159222      -0.00001197       0.00001740      -0.00002089
