9
Lattice="6.11844254559412 -4.499669473727319e-08 3.5324843454982195 2.0394807781706668 5.768523340597067 3.5324843938872874 -1.816364312799001e-07 -6.917209832980125e-08 7.064969005600034" Properties=species:S:1:pos:R:3:forces:R:3 energy=-28.961877822875977 free_energy=-28.961877822875977 stress="0.00010645553265931085 -7.553696335094173e-09 1.3984390902221921e-11 -7.553696335094173e-09 0.00010649345495039597 -1.859822740257755e-09 1.3984390902221921e-11 -1.859822740257755e-09 0.00010647546878317371" pbc="T T T"
In       2.03948107       1.44213050       3.53248406       0.00000048      -0.00000031      -0.00000045
In       6.11844218       4.32639173      10.59745382      -0.00000036      -0.00000100       0.00000066
Co      -0.00000011      -0.00000004      -0.00000023       0.00000092       0.00000090      -0.00000017
Cl       1.84751843       1.30639304       7.06496931      -0.00024280      -0.00017232      -0.00000049
Cl       6.31040474       4.46213054       7.06496907       0.00024104       0.00017153      -0.00000098
Cl       5.19468308       1.30639345       5.13248260       0.00012150      -0.00017104      -0.00021094
Cl       2.96324002       4.46212995       8.99745488      -0.00012179       0.00017299       0.00021118
Cl       2.96324002       4.46212987       5.13248262      -0.00012080       0.00017215      -0.00021069
Cl       5.19468302       1.30639371       8.99745476       0.00012200      -0.00017281       0.00021170
