9
Lattice="4.75698703487 -5.557160745487847e-08 2.7464477445059514 1.5856623175794182 4.484930334869613 2.746447701176685 2.7316582370238652e-08 -3.375152730079893e-08 5.4928954416981846" Properties=species:S:1:pos:R:3:forces:R:3 energy=-36.25592803955078 free_energy=-36.25592803955078 stress="-0.00010060858767246827 -1.0391123517194956e-08 -6.327991020071977e-09 -1.0391123517194956e-08 -0.00010065339301945642 7.510241317731925e-09 -6.327991020071977e-09 7.510241317731925e-09 -0.00010061493230750784" pbc="T T T"
In       1.58566220       1.12123284       2.74644767      -0.00000172       0.00000162      -0.00000030
In       4.75698690       3.36369756       8.23934345       0.00000013       0.00000007       0.00000201
Cu      -0.00000005      -0.00000011       0.00000010       0.00000020      -0.00000211      -0.00000663
F        1.58274717       1.11917127       5.49289542       0.00075376       0.00053298       0.00000035
F        4.75990242       3.36575899       5.49289534      -0.00075370      -0.00053400      -0.00000117
F        3.96561363       1.11917121       4.11714680      -0.00037712       0.00053450       0.00065359
F        2.37703582       3.36575891       6.86864391       0.00037569      -0.00053141      -0.00064960
F        2.37703597       3.36575912       4.11714679       0.00037792      -0.00053364       0.00065309
F        3.96561358       1.11917119       6.86864397      -0.00037533       0.00053191      -0.00065130
