9
Lattice="6.7115681376340985 1.283586923891082e-07 3.8749255875501754 2.237189480021816 6.32772700211749 3.8749256225501996 -6.640446734971402e-10 4.239661636873447e-08 7.749851176250344" Properties=species:S:1:pos:R:3:forces:R:3 energy=-23.48126983642578 free_energy=-23.48126983642578 stress="-0.0001777638535713777 -4.454202340298252e-09 7.969306881072669e-10 -4.454202340298252e-09 -0.0001777699071681127 7.54085016652084e-10 7.969306881072669e-10 7.54085016652084e-10 -0.00017775982269085944" pbc="T T T"
In       2.23718942       1.58193201       3.87492565      -0.00000008      -0.00000005      -0.00000009
In       6.71156813       4.74579539      11.62477704       0.00000019       0.00000002      -0.00000007
Co       0.00000005      -0.00000011      -0.00000041      -0.00000014       0.00000084       0.00000078
I        2.18343140       1.54391942       7.74985098       0.00678343       0.00479701       0.00000010
I        6.76532639       4.78380796       7.74985105      -0.00678426      -0.00479721      -0.00000004
I        5.61985226       1.54391959       5.76583272      -0.00339174       0.00479673       0.00587451
I        3.32890504       4.78380784       9.73386992       0.00339294      -0.00479770      -0.00587587
I        3.32890533       4.78380754       5.76583260       0.00339212      -0.00479655       0.00587547
I        5.61985239       1.54391910       9.73386995      -0.00339254       0.00479694      -0.00587481
