9
Lattice="6.816944828949853 -1.4050605487432915e-07 3.935765233945615 2.272314781416059 6.427077362945923 3.9357652843428426 -3.06811567533708e-08 4.0028879341970724e-08 7.871530521032515" Properties=species:S:1:pos:R:3:forces:R:3 energy=-27.74080467224121 free_energy=-27.74080467224121 stress="-7.658150570932776e-05 -2.6094287619571332e-08 -1.6977115269156684e-09 -2.6094287619571332e-08 -7.655421359231696e-05 8.756032565671035e-10 -1.6977115269156684e-09 8.756032565671035e-10 -7.653016655240208e-05" pbc="T T T"
In       2.27231481       1.60676927       3.93576527      -0.00000013      -0.00000007      -0.00000002
In       6.81694465       4.82030795      11.80729568       0.00000004       0.00000004       0.00000007
Cr      -0.00000026       0.00000053      -0.00000037       0.00000423      -0.00000334       0.00000155
I        2.18370029       1.54410924       7.87153075       0.00327703       0.00231725      -0.00000039
I        6.90555951       4.88296808       7.87153068      -0.00327868      -0.00231765      -0.00000017
I        5.72509442       1.54410976       5.82690573      -0.00163712       0.00231503       0.00283514
I        3.36416530       4.88296732       9.91615514       0.00163637      -0.00231383      -0.00283300
I        3.36416520       4.88296755       5.82690603       0.00163562      -0.00231296       0.00283276
I        5.72509442       1.54410950       9.91615532      -0.00163738       0.00231545      -0.00283586
