9
Lattice="4.749669257003107 -3.6804747435676816e-08 2.7422228381051545 1.5832230238053602 4.478031207119659 2.742222885151965 -4.20615485706801e-08 2.7878317734337703e-08 5.484445749063089" Properties=species:S:1:pos:R:3:forces:R:3 energy=-39.61229705810547 free_energy=-39.61229705810547 stress="0.0002868352166842669 -8.399846507245456e-08 1.5694379129627123e-08 -8.399846507245456e-08 0.0002868676674552262 -9.675529710762021e-09 1.5694379129627123e-08 -9.675529710762021e-09 0.0002868524461518973" pbc="T T T"
In       1.58322318       1.11950836       2.74222254       0.00000179       0.00000191      -0.00000129
In       4.74966912       3.35852367       8.22666834      -0.00000152       0.00000095      -0.00000040
Co       0.00000013      -0.00000017       0.00000121      -0.00000123       0.00000838      -0.00004017
F        1.52180133       1.07607588       5.48444575      -0.00372209      -0.00263208       0.00000084
F        4.81109081       3.40195510       5.48444567       0.00371934       0.00262928       0.00000094
F        3.98876863       1.07607604       4.06014146       0.00185823      -0.00262862      -0.00321795
F        2.34412432       3.40195446       6.90874986      -0.00186736       0.00263873       0.00323471
F        2.34412369       3.40195503       4.06014148      -0.00185696       0.00262619      -0.00321522
F        3.98876768       1.07607648       6.90874960       0.00186978      -0.00264466       0.00323867
