9
Lattice="6.399383976716632 -1.594861377919816e-08 3.6946860459355855 2.1331280207569807 6.033396990139458 3.6946859704967934 6.890389227448559e-08 -4.3670889147412706e-08 7.389371972526197" Properties=species:S:1:pos:R:3:forces:R:3 energy=-22.474531173706055 free_energy=-22.474531173706055 stress="9.76720912149176e-05 -5.543054459877794e-09 -4.246508478189526e-09 -5.543054459877794e-09 9.768355812411755e-05 1.4998915442987482e-09 -4.246508478189526e-09 1.4998915442987482e-09 9.76793744484894e-05" pbc="T T T"
In       2.13312788       1.50834898       3.69468611       0.00000014       0.00000023       0.00000016
In       6.39938431       4.52504776      11.08405781       0.00000041       0.00000023      -0.00000014
Cu       0.00000020       0.00000047       0.00000010      -0.00000084      -0.00000217       0.00000055
Br       2.04815749       1.44826601       7.38937188      -0.00677732      -0.00479247       0.00000014
Br       6.48435459       4.58513099       7.38937204       0.00677708       0.00479192       0.00000010
Br       5.37530519       1.44826601       5.46844229       0.00338916      -0.00479251      -0.00586906
Br       3.15720661       4.58513085       9.31030164      -0.00338842       0.00479314       0.00586906
Br       3.15720661       4.58513087       5.46844244      -0.00338869       0.00479366      -0.00586931
Br       5.37530537       1.44826582       9.31030166       0.00338869      -0.00479206       0.00586849
