9
Lattice="6.259589278430525 -3.579462810101607e-08 3.613975542574548 2.086529762689731 5.901597329435181 3.613975478557377 4.937717951176906e-08 -4.3489832796654856e-08 7.2279509996253255" Properties=species:S:1:pos:R:3:forces:R:3 energy=-23.251455307006836 free_energy=-23.251455307006836 stress="-0.00032078137155622244 -1.0992150301092352e-08 -6.282888875830395e-09 -1.0992150301092352e-08 -0.000320771912811324 3.4172913387919834e-09 -6.282888875830395e-09 3.4172913387919834e-09 -0.0003207743866369128" pbc="T T T"
In       2.08652992       1.47539942       3.61397544       0.00000051       0.00000114       0.00000002
In       6.25958901       4.42619732      10.84192610       0.00000010      -0.00000096      -0.00000165
Cd       0.00000010       0.00000008      -0.00000001       0.00000089      -0.00000046      -0.00000104
Cl       2.11483335       1.49541293       7.22795119       0.00215998       0.00152758      -0.00000027
Cl       6.23128586       4.40618438       7.22795091      -0.00216082      -0.00152850       0.00000013
Cl       5.20217288       1.49541259       5.44547470      -0.00108129       0.00152859       0.00187171
Cl       3.14394643       4.40618443       9.01042755       0.00108014      -0.00152704      -0.00187004
Cl       3.14394624       4.40618467       5.44547462       0.00108077      -0.00152886       0.00187162
Cl       5.20217264       1.49541314       9.01042764      -0.00107999       0.00152847      -0.00187069
