9
Lattice="4.954669158892887 -1.5758683467233956e-08 2.8605795877297515 1.6515563715330777 4.671306912862849 2.86057958756886 3.318409208567795e-08 2.3267647768212244e-08 5.721159117982966" Properties=species:S:1:pos:R:3:forces:R:3 energy=-44.43989181518555 free_energy=-44.43989181518555 stress="0.00015891468501649797 2.1216652879019193e-09 -1.502388968788182e-08 2.1216652879019193e-09 0.0001589833409525454 1.0382495974070594e-09 -1.502388968788182e-08 1.0382495974070594e-09 0.0001589406601851806" pbc="T T T"
In       1.65155619       1.16782661       2.86057972      -0.00000097       0.00000078      -0.00000042
In       4.95466920       3.50348010       8.58173843      -0.00000037      -0.00000116      -0.00000065
Cr      -0.00000003       0.00000004       0.00000016       0.00000203      -0.00000099       0.00000097
F        1.56471903       1.10642344       5.72115924      -0.00103354      -0.00073148      -0.00000080
F        5.04150655       3.56488354       5.72115935       0.00103195       0.00073032      -0.00000025
F        4.17230973       1.10642348       4.21566599       0.00051642      -0.00072984      -0.00089359
F        2.43391592       3.56488342       7.22665211      -0.00051639       0.00073152       0.00089506
F        2.43391583       3.56488344       4.21566599      -0.00051604       0.00073125      -0.00089435
F        4.17230971       1.10642358       7.22665221       0.00051711      -0.00073038       0.00089422
