9
Lattice="6.71927962269938 -3.771135002345333e-08 3.8793778268442347 2.2397598272055146 6.334997678206822 3.8793778467161197 -2.5509647918783786e-08 6.2998885311036936e-09 7.758755697872535" Properties=species:S:1:pos:R:3:forces:R:3 energy=-20.77322006225586 free_energy=-20.77322006225586 stress="-0.00011642045137705281 7.806748136829356e-09 -1.5856848056827744e-09 7.806748136829356e-09 -0.00011641564924502745 2.4092998707203606e-09 -1.5856848056827744e-09 2.4092998707203606e-09 -0.00011641335731837898" pbc="T T T"
In       2.23975975       1.58374946       3.87937784      -0.00000034      -0.00000015       0.00000029
In       6.71927966       4.75124816      11.63813350       0.00000021       0.00000005      -0.00000023
C        0.00000011      -0.00000068      -0.00000019       0.00000009      -0.00000050       0.00000076
I        2.17283442       1.53642643       7.75875578       0.00496250       0.00350851      -0.00000001
I        6.78620508       4.79857156       7.75875581      -0.00496203      -0.00350809       0.00000020
I        5.63286236       1.53642626       5.76110793      -0.00248131       0.00350842       0.00429696
I        3.32617693       4.79857157       9.75640359       0.00248134      -0.00350875      -0.00429720
I        3.32617703       4.79857172       5.76110798       0.00248092      -0.00350866       0.00429711
I        5.63286237       1.53642614       9.75640340      -0.00248131       0.00350916      -0.00429782
