9
Lattice="6.324230687295199 2.29835472228949e-08 3.6512963946022103 2.1080769808281343 5.962541877998084 3.6512962848006048 8.447590019589261e-08 -7.474548061832074e-08 7.302592642887857" Properties=species:S:1:pos:R:3:forces:R:3 energy=-28.17088508605957 free_energy=-28.17088508605957 stress="-0.00020172014774288982 3.93239396601075e-09 -1.0158233365586966e-08 3.93239396601075e-09 -0.00020171646610833704 1.487985290538063e-08 -1.0158233365586966e-08 1.487985290538063e-08 -0.00020174802921246737" pbc="T T T"
In       2.10807677       1.49063524       3.65129601      -0.00000000       0.00000106      -0.00000041
In       6.32423066       4.47190665      10.95388908      -0.00000015       0.00000016      -0.00000041
Ca       0.00000047       0.00000022       0.00000060      -0.00000498      -0.00000062      -0.00000575
Cl       2.16466724       1.53065016       7.30259326      -0.00033334      -0.00023647       0.00000040
Cl       6.26764062       4.43189068       7.30259322       0.00033870       0.00023986       0.00000024
Cl       5.24189733       1.53065086       5.52595278       0.00016693      -0.00023718      -0.00029083
Cl       3.19041024       4.43189117       9.07923192      -0.00016975       0.00023806       0.00029211
Cl       3.19041057       4.43189120       5.52595254      -0.00016654       0.00023508      -0.00028816
Cl       5.24189709       1.53065119       9.07923193       0.00016905      -0.00023997       0.00029299
