9
Lattice="6.55043297872661 1.7629144257965545e-07 3.7818941928568166 2.183477925277597 6.17580755335141 3.7818940205301352 -4.859902641928002e-08 -2.454208489327225e-07 7.563788469889717" Properties=species:S:1:pos:R:3:forces:R:3 energy=-23.008182525634766 free_energy=-23.008182525634766 stress="0.00012510441592894495 2.2969258495209033e-08 -1.0979559483814683e-08 2.2969258495209033e-08 0.00012510638043750077 -7.045938943406327e-09 -1.0979559483814683e-08 -7.045938943406327e-09 0.00012515352864284068" pbc="T T T"
In       2.18347733       1.54395170       3.78189439      -0.00000047       0.00000000       0.00000027
In       6.55043330       4.63185571      11.34568257      -0.00000019       0.00000026       0.00000028
C        0.00000124      -0.00000128      -0.00000098       0.00000042       0.00000062      -0.00000014
Br       1.93365804       1.36730291       7.56378819      -0.00210851      -0.00148982       0.00000072
Br       6.80025204       4.80850420       7.56378903       0.00210941       0.00149339      -0.00000064
Br       5.58360378       1.36730322       5.45649330       0.00105412      -0.00149119      -0.00183097
Br       3.15030651       4.80850514       9.67108505      -0.00105399       0.00148892       0.00182551
Br       3.15030692       4.80850491       5.45649182      -0.00105387       0.00148967      -0.00182602
Br       5.58360410       1.36730325       9.67108337       0.00105299      -0.00149193       0.00183108
