9
Lattice="4.912280416352683 -3.486205341249507e-09 2.836106601539825 1.637426821565839 4.631342583957267 2.8361065679349613 -3.9520447851231034e-08 -6.91025540062117e-08 5.672213271531083" Properties=species:S:1:pos:R:3:forces:R:3 energy=-32.98302459716797 free_energy=-32.98302459716797 stress="-9.358149691252038e-05 -4.191002744846628e-08 -1.888543366135309e-08 -4.191002744846628e-08 -9.366557060275227e-05 -5.6575466089725523e-08 -1.888543366135309e-08 -5.6575466089725523e-08 -9.352350025437772e-05" pbc="T T T"
In       1.63742678       1.15783598       2.83610632       0.00000059       0.00000224      -0.00000209
In       4.91228046       3.47350664       8.50831956       0.00000018      -0.00000237       0.00000029
Cd       0.00000002      -0.00000013       0.00000007       0.00000040       0.00000213      -0.00000140
F        1.73925197       1.22983693       5.67221345      -0.00322717      -0.00228184       0.00000114
F        4.81045514       3.40150551       5.67221310       0.00322503       0.00228035      -0.00000066
F        4.04265442       1.22983702       4.34234296       0.00161296      -0.00228018      -0.00279456
F        2.50705265       3.40150530       7.00208354      -0.00161359       0.00228092       0.00279546
F        2.50705269       3.40150553       4.34234327      -0.00161374       0.00228122      -0.00279438
F        4.04265452       1.22983721       7.00208333       0.00161514      -0.00228259       0.00279635
