9
Lattice="6.603438218226392 1.1737483351892313e-07 3.812496783583628 2.2011461279333773 6.2257813749789594 3.812496879661944 -5.557443358830779e-08 7.8374359886392e-08 7.624993663425012" Properties=species:S:1:pos:R:3:forces:R:3 energy=-25.469589233398438 free_energy=-25.469589233398438 stress="-1.0905959015872213e-06 -1.5592100943706555e-09 -4.240166440183657e-09 -1.5592100943706555e-09 -1.1430462336647906e-06 -3.75791131546066e-09 -4.240166440183657e-09 -3.75791131546066e-09 -1.1113100981674506e-06" pbc="T T T"
In       2.20114629       1.55644526       3.81249686       0.00000027      -0.00000021       0.00000021
In       6.60343809       4.66933623      11.43749044       0.00000007      -0.00000002      -0.00000011
Ca      -0.00000021       0.00000001      -0.00000021      -0.00000027       0.00000023       0.00000071
Br       2.30792125       1.63194679       7.62499368       0.00030705       0.00021751       0.00000088
Br       6.49666343       4.59383491       7.62499364      -0.00030781      -0.00021774       0.00000078
Br       5.44947738       1.63194661       5.81121497      -0.00015569       0.00021771       0.00026533
Br       3.35510670       4.59383483       9.43877258       0.00015447      -0.00021647      -0.00026697
Br       3.35510663       4.59383500       5.81121486       0.00015607      -0.00021712       0.00026579
Br       5.44947759       1.63194664       9.43877248      -0.00015421       0.00021613      -0.00026676
