9
Lattice="6.371796035832704 -1.0103713613631313e-07 3.6787580331885055 2.123931906450356 6.007386764863152 3.678758050916244 -4.356104530589584e-08 -9.090319460476607e-09 7.357516141826916" Properties=species:S:1:pos:R:3:forces:R:3 energy=-26.10956382751465 free_energy=-26.10956382751465 stress="0.00019401044119149446 -1.1395490773224992e-08 -4.27641033695636e-09 -1.1395490773224992e-08 0.000194007225218229 -2.045582148113567e-09 -4.27641033695636e-09 -2.045582148113567e-09 0.00019401290046516806" pbc="T T T"
In       2.12393201       1.50184673       3.67875791       0.00000005       0.00000014       0.00000004
In       6.37179633       4.50554032      11.03627436       0.00000032       0.00000079      -0.00000033
Co       0.00000020       0.00000051      -0.00000046      -0.00000095      -0.00000159       0.00000058
Br       2.02683756       1.43319051       7.35751605       0.00179487       0.00126961      -0.00000024
Br       6.46889006       4.57419566       7.35751625      -0.00179450      -0.00126921       0.00000041
Br       5.35837700       1.43319068       5.43405097      -0.00089668       0.00126852       0.00155358
Br       3.13735071       4.57419576       9.28098130       0.00089688      -0.00126868      -0.00155412
Br       3.13735092       4.57419582       5.43405097       0.00089679      -0.00126813       0.00155357
Br       5.35837673       1.43319065       9.28098144      -0.00089683       0.00126871      -0.00155358
