9
Lattice="6.403043780342736 1.725873480840834e-07 3.6967989610994625 2.1343480286206726 6.0368466940252885 3.6967990665419586 -3.9460143914532505e-07 -1.498852209346942e-07 7.39359860566873" Properties=species:S:1:pos:R:3:forces:R:3 energy=-25.195241928100586 free_energy=-25.195241928100586 stress="8.921535481931642e-05 -1.817083017385812e-08 5.368328892529917e-09 -1.817083017385812e-08 8.924062422011048e-05 6.460747936642974e-09 5.368328892529917e-09 6.460747936642974e-09 8.921392873162404e-05" pbc="T T T"
In       2.13434894       1.50921147       3.69679994       0.00000007       0.00000024       0.00000080
In       6.40304383       4.52763527      11.09039691      -0.00000022      -0.00000036       0.00000066
C       -0.00000077      -0.00000054       0.00000314      -0.00000275      -0.00000066       0.00001514
Cl       1.77383242       1.25429015       7.39359941      -0.00266188      -0.00188296      -0.00000493
Cl       6.76355951       4.78255722       7.39359907       0.00266518       0.00188453      -0.00000374
Cl       5.51612694       1.25428852       5.23298202       0.00133337      -0.00188654      -0.00230990
Cl       3.02126481       4.78255618       9.55421198      -0.00133168       0.00188533       0.00230550
Cl       3.02126438       4.78255845       5.23298204      -0.00133416       0.00188547      -0.00230925
Cl       5.51612549       1.25429026       9.55421191       0.00133203      -0.00188508       0.00230565
