9
Lattice="4.922017581660218 -2.159420218533868e-08 2.841728101470413 1.640672530176363 4.640522681299466 2.8417280610867777 5.8619125804455414e-08 -8.00966444618374e-09 5.683456101409591" Properties=species:S:1:pos:R:3:forces:R:3 energy=-37.58833312988281 free_energy=-37.58833312988281 stress="-0.00011130282655358315 -3.063581743845134e-07 1.809025889087934e-07 -3.063581743845134e-07 -0.00011223261390114203 -5.759057941645551e-08 1.809025889087934e-07 -5.759057941645551e-08 -0.0001116564599215053" pbc="T T T"
In       1.64067260       1.16013088       2.84172768      -0.00000056       0.00000026      -0.00000259
In       4.92201743       3.48039236       8.52518359       0.00000025       0.00000005      -0.00000196
C       -0.00000052      -0.00000131      -0.00000164       0.00000638       0.00004214      -0.00002803
F        1.34492322       0.95100379       5.68345596       0.00535300       0.00378926       0.00000147
F        5.21776508       3.68951936       5.68345572      -0.00531608      -0.00380086       0.00000773
F        4.24955443       0.95100669       4.00646728      -0.00267008       0.00377084       0.00464159
F        2.31313568       3.68951848       7.36044479       0.00264812      -0.00378749      -0.00460538
F        2.31313796       3.68951527       4.00647008       0.00263860      -0.00377955       0.00460414
F        4.24955507       0.95100495       7.36044533      -0.00265909       0.00376543      -0.00461745
