9
Lattice="6.920962680787976 -2.745175826028746e-08 3.995819666454119 2.3069875843200585 6.525146203353678 3.9958195799570193 5.460262460191328e-08 -6.732702524616612e-08 7.9916392383336845" Properties=species:S:1:pos:R:3:forces:R:3 energy=-18.578174591064453 free_energy=-18.578174591064453 stress="6.60200385027565e-05 5.368687272522266e-09 -2.811914479039501e-09 5.368687272522266e-09 6.601814675377682e-05 3.5523748387333853e-09 -2.811914479039501e-09 3.5523748387333853e-09 6.600918277399614e-05" pbc="T T T"
In       2.30698753       1.63128656       3.99581974       0.00000001      -0.00000013       0.00000013
In       6.92096276       4.89385954      11.98745890       0.00000016       0.00000020       0.00000033
Cd       0.00000009       0.00000021      -0.00000073       0.00000012      -0.00000025       0.00000428
I        2.41568714       1.70814859       7.99163909      -0.00033343      -0.00023685       0.00000002
I        6.81226287       4.81699731       7.99163911       0.00033352       0.00023705      -0.00000035
I        5.71311908       1.70814891       6.08786624       0.00016706      -0.00023617      -0.00028929
I        3.51483103       4.81699770       9.89541257      -0.00016609       0.00023450       0.00028728
I        3.51483141       4.81699713       6.08786641      -0.00016774       0.00023615      -0.00028920
I        5.71311939       1.70814847       9.89541262       0.00016645      -0.00023444       0.00028679
