9
Lattice="6.530662602236954 -2.1292025716494117e-07 3.770479450491124 2.176887344756225 6.15716732677447 3.7704794307104894 6.882408726031975e-08 2.4439748353222978e-08 7.540958781775402" Properties=species:S:1:pos:R:3:forces:R:3 energy=-29.029640197753906 free_energy=-29.029640197753906 stress="-6.148375177872367e-07 1.5753167659227074e-08 -3.703363837814777e-09 1.5753167659227074e-08 -6.06633818733826e-07 -1.2799976634170207e-09 -3.703363837814777e-09 -1.2799976634170207e-09 -6.609851652683574e-07" pbc="T T T"
In       2.17688683       1.53929172       3.77047867       0.00000006      -0.00000013       0.00000006
In       6.53066329       4.61787564      11.31143773      -0.00000016       0.00000005      -0.00000006
Fe      -0.00000008      -0.00000018       0.00000035       0.00000005      -0.00000611      -0.00000165
Br       1.85156659       1.30925522       7.54095882       0.00151607       0.00107104       0.00000086
Br       6.85598324       4.84791204       7.54095888      -0.00151256      -0.00106914       0.00000057
Br       5.60487926       1.30925520       5.37398297      -0.00075898       0.00107270       0.00131585
Br       3.10267067       4.84791183       9.70793524       0.00075743      -0.00107075      -0.00131351
Br       3.10267090       4.84791203       5.37398297       0.00075737      -0.00107054       0.00131375
Br       5.60487938       1.30925506       9.70793511      -0.00075916       0.00107287      -0.00131598
