9
Lattice="6.769646117721451 -3.728091992031914e-08 3.9084568160166313 2.2565486091583207 6.382484090766177 3.9084569227111237 -2.3505364727281968e-07 -3.55345279020916e-08 7.81691403915815" Properties=species:S:1:pos:R:3:forces:R:3 energy=-25.429889678955078 free_energy=-25.429889678955078 stress="7.621098575327778e-06 -2.1447457143608517e-08 -1.0825532470448707e-08 -2.1447457143608517e-08 7.629393167007947e-06 1.615279110467327e-08 -1.0825532470448707e-08 1.615279110467327e-08 7.602403002238134e-06" pbc="T T T"
In       2.25654801       1.59562096       3.90845672       0.00000021       0.00000022      -0.00000015
In       6.76964625       4.78686294      11.72537135      -0.00000001       0.00000034       0.00000011
Fe       0.00000015      -0.00000059       0.00000038      -0.00000263       0.00000425      -0.00000329
I        2.00602559       1.41847456       7.81691369       0.00525688       0.00371563       0.00000161
I        7.02016801       4.96400924       7.81691332      -0.00524969      -0.00371389       0.00000142
I        5.76663280       1.41847602       5.64572577      -0.00262555       0.00370875       0.00455000
I        3.25956256       4.96400959       9.98810128       0.00262387      -0.00371487      -0.00454701
I        3.25956228       4.96400863       5.64572671       0.00262423      -0.00371341       0.00454932
I        5.76663237       1.41847502       9.98810162      -0.00262734       0.00371317      -0.00455184
