9
Lattice="6.1551286973111194 -1.5989860660639964e-07 3.5536656995426537 2.0517093762996925 5.803110908420207 3.553665766602092 -1.1191876088770132e-07 2.992194190608335e-09 7.107331592934275" Properties=species:S:1:pos:R:3:forces:R:3 energy=-31.096187591552734 free_energy=-31.096187591552734 stress="8.205686754081398e-05 5.36574251697175e-09 1.3239658258612508e-08 5.36574251697175e-09 8.204676123568788e-05 1.5205669612328165e-08 1.3239658258612508e-08 1.5205669612328165e-08 8.205402991734445e-05" pbc="T T T"
In       2.05170899       1.45077690       3.55366591      -0.00000059      -0.00000038       0.00000059
In       6.15512819       4.35233315      10.66100004      -0.00000056      -0.00000048       0.00000212
Fe      -0.00000036      -0.00000066       0.00000133       0.00000639       0.00000732      -0.00001781
Cl       1.86271626       1.31713918       7.10733160      -0.00363931      -0.00257355      -0.00000189
Cl       6.34412245       4.48597244       7.10733088       0.00363237       0.00256890      -0.00000074
Cl       5.22377133       1.31713839       5.16682450       0.00181440      -0.00256690      -0.00314435
Cl       2.98306744       4.48597194       9.04783730      -0.00182039       0.00257546       0.00315163
Cl       2.98306699       4.48597218       5.16682404      -0.00181364       0.00256547      -0.00314295
Cl       5.22377027       1.31713945       9.04783697       0.00182131      -0.00257602       0.00315383
