9
Lattice="4.971356202882623 -8.155030812230067e-08 2.8702136464393186 1.6571186619082763 4.687039442611084 2.870213638644376 1.6858912606774383e-09 -8.354734917687607e-09 5.740427289958525" Properties=species:S:1:pos:R:3:forces:R:3 energy=-41.386009216308594 free_energy=-41.386009216308594 stress="-3.4943177524837665e-06 -7.121494505213377e-09 -2.0327160399347122e-08 -7.121494505213377e-09 -3.510415126584121e-06 1.1444824643547236e-08 -2.0327160399347122e-08 1.1444824643547236e-08 -3.511813929435448e-06" pbc="T T T"
In       1.65711851       1.17175998       2.87021369       0.00000021      -0.00000068       0.00000145
In       4.97135630       3.51527930       8.61064116       0.00000042       0.00000022       0.00000052
Fe      -0.00000003       0.00000003      -0.00000019      -0.00000240      -0.00000059      -0.00000540
F        1.57640264       1.11468502       5.74042723       0.00003564       0.00002572       0.00000060
F        5.05207212       3.57235428       5.74042731      -0.00003350      -0.00002412      -0.00000119
F        4.18315482       1.11468523       4.23541837      -0.00001721       0.00002562       0.00003047
F        2.44532007       3.57235425       7.24543630       0.00001529      -0.00002348      -0.00002891
F        2.44532000       3.57235424       4.23541841       0.00001836      -0.00002576       0.00003161
F        4.18315499       1.11468505       7.24543610      -0.00001678       0.00002304      -0.00002913
