9
Lattice="6.1565233998028255 1.1847695581843144e-07 3.5544701970024417 2.0521745391855095 5.804426037527244 3.5544702647542423 -4.445673558924715e-08 5.1543202645312824e-08 7.10894047100617" Properties=species:S:1:pos:R:3:forces:R:3 energy=-31.096193313598633 free_energy=-31.096193313598633 stress="6.238901551114395e-05 -1.2112812086684244e-08 -6.486695180996094e-09 -1.2112812086684244e-08 6.241015216801316e-05 1.2085670242356628e-09 -6.486695180996094e-09 1.2085670242356628e-09 6.238110654521734e-05" pbc="T T T"
In       2.05217463       1.45110689       3.55447029       0.00000022       0.00000062       0.00000017
In       6.15652328       4.35331943      10.66341088       0.00000028      -0.00000017       0.00000026
Fe       0.00000038       0.00000036      -0.00000010      -0.00000501      -0.00000706      -0.00000113
Cl       1.86174136       1.31645023       7.10894034       0.00035664       0.00025031      -0.00000049
Cl       6.34695584       4.48797564       7.10894021      -0.00034875      -0.00024521       0.00000096
Cl       5.22565285       1.31645050       5.16678566      -0.00017722       0.00024763       0.00030601
Cl       2.98304508       4.48797570       9.05109535       0.00017601      -0.00024810      -0.00030404
Cl       2.98304519       4.48797581       5.16678562       0.00017664      -0.00024867       0.00030529
Cl       5.22565277       1.31645023       9.05109554      -0.00017826       0.00025043      -0.00030729
