9
Lattice="6.769057690919361 1.8007587921638573e-07 3.9081170450942113 2.256352643072381 6.381929324043143 3.9081172015758425 7.311655742962496e-08 2.433510778472103e-07 7.816233963546833" Properties=species:S:1:pos:R:3:forces:R:3 energy=-25.429908752441406 free_energy=-25.429908752441406 stress="0.00011264201020821929 -4.419959509505134e-09 1.3606174853464381e-08 -4.419959509505134e-09 0.0001126082061091438 7.628087050903787e-10 1.3606174853464381e-08 7.628087050903787e-10 0.00011259647726546973" pbc="T T T"
In       2.25635247       1.59548264       3.90811715      -0.00000017       0.00000012       0.00000003
In       6.76905734       4.78644732      11.72435064       0.00000019      -0.00000029      -0.00000001
Fe      -0.00000004       0.00000024       0.00000050       0.00000579       0.00000434      -0.00001567
I        2.00686721       1.41906932       7.81623397      -0.00187396      -0.00132226      -0.00000060
I        7.01854473       4.96286102       7.81623444       0.00186273       0.00131586       0.00000095
I        5.76562444       1.41906856       5.64611367       0.00093345      -0.00131650      -0.00161275
I        3.25978599       4.96286084       9.98635490      -0.00093446       0.00132255       0.00161745
I        3.25978640       4.96286065       5.64611328      -0.00093179       0.00131775      -0.00161047
I        5.76562330       1.41906872       9.98635426       0.00093832      -0.00132170       0.00162099
