9
Lattice="6.530486341176734 4.775899799741282e-08 3.7703780685911465 2.176828829725069 6.157001405468554 3.7703780611342825 -9.870195130012123e-08 -7.892559873784316e-08 7.540756308139071" Properties=species:S:1:pos:R:3:forces:R:3 energy=-29.029638290405273 free_energy=-29.029638290405273 stress="-5.485336259880569e-06 4.08650997485438e-08 -1.615839018143106e-08 4.08650997485438e-08 -5.526330369320931e-06 2.5023373595445264e-08 -1.615839018143106e-08 2.5023373595445264e-08 -5.504699856828665e-06" pbc="T T T"
In       2.17682877       1.53925039       3.77037789       0.00000017       0.00000018      -0.00000005
In       6.53048628       4.61775099      11.31113458      -0.00000009      -0.00000015       0.00000014
Fe      -0.00000038      -0.00000069       0.00000071       0.00000056       0.00001254      -0.00001630
Br       1.85157468       1.30926066       7.54075608       0.00144914       0.00102583       0.00000120
Br       6.85573971       4.84774011       7.54075585      -0.00144805      -0.00102457       0.00000155
Br       5.60469933       1.30926117       5.37388925      -0.00072809       0.00102580       0.00125647
Br       3.10261651       4.84774093       9.70762303       0.00072385      -0.00102879      -0.00125465
Br       3.10261617       4.84774106       5.37388900       0.00072899      -0.00103531       0.00126463
Br       5.60469918       1.30926086       9.70762304      -0.00072640       0.00102478      -0.00125268
