9
Lattice="6.873028823341243 -7.430441289793367e-08 3.9681451002873516 2.2910095548245613 6.479953673264849 3.968145070670938 8.343974726355389e-09 -3.0372413262834626e-08 7.936290186122511" Properties=species:S:1:pos:R:3:forces:R:3 energy=-21.811790466308594 free_energy=-21.811790466308594 stress="-1.2225012142152991e-05 -1.3296638234905345e-09 5.879355224891469e-09 -1.3296638234905345e-09 -1.2228993909957353e-05 -4.559877364584963e-09 5.879355224891469e-09 -4.559877364584963e-09 -1.222828996105818e-05" pbc="T T T"
In       2.29100965       1.61998827       3.96814511       0.00000003      -0.00000002      -0.00000028
In       6.87302878       4.85996516      11.90443513      -0.00000006       0.00000007      -0.00000005
Ge      -0.00000003      -0.00000021       0.00000003      -0.00000017      -0.00000014      -0.00000025
I        2.36673198       1.67353217       7.93629028      -0.00230148      -0.00162706       0.00000017
I        6.79730670       4.80642161       7.93629013       0.00230153       0.00162715      -0.00000010
I        5.68966267       1.67353219       6.01779503       0.00115085      -0.00162721      -0.00199215
I        3.47437564       4.80642134       9.85478537      -0.00115073       0.00162716       0.00199233
I        3.47437542       4.80642143       6.01779512      -0.00115049       0.00162789      -0.00199340
I        5.68966273       1.67353229       9.85478521       0.00115048      -0.00162785       0.00199372
