9
Lattice="6.487880658480445 4.819738322397345e-08 3.745779527874648 2.162626853840972 6.116832734120497 3.745779662559019 -3.563474795280032e-08 1.397564229056158e-07 7.491559117470561" Properties=species:S:1:pos:R:3:forces:R:3 energy=-24.874921798706055 free_energy=-24.874921798706055 stress="7.068161357892677e-05 -1.0155386753751827e-08 -4.229963934676562e-09 -1.0155386753751827e-08 7.067840488161892e-05 3.1797648958331592e-09 -4.229963934676562e-09 3.1797648958331592e-09 7.067831757012755e-05" pbc="T T T"
In       2.16262677       1.52920829       3.74577966       0.00000016      -0.00000015       0.00000003
In       6.48788070       4.58762470      11.23733887      -0.00000001       0.00000007       0.00000019
Ge       0.00000019       0.00000019       0.00000064       0.00000146      -0.00000063      -0.00000703
Br       2.03575722       1.43949795       7.49155899       0.00158519       0.00112046      -0.00000035
Br       6.61474989       4.67733512       7.49155911      -0.00158525      -0.00112240      -0.00000053
Br       5.47000207       1.43949771       5.50879690      -0.00079392       0.00112300       0.00137629
Br       3.18050573       4.67733470       9.47432087       0.00079039      -0.00111769      -0.00136937
Br       3.18050559       4.67733500       5.50879718       0.00079305      -0.00112219       0.00137323
Br       5.47000184       1.43949810       9.47432090      -0.00079101       0.00111948      -0.00137228
