9
Lattice="6.485380216701926 1.9330200377864027e-08 3.7443358034668157 2.1617934126048968 6.114474683763106 3.7443358228434804 -1.5115145598352938e-07 -8.314877891243893e-08 7.488671868735622" Properties=species:S:1:pos:R:3:forces:R:3 energy=-24.874942779541016 free_energy=-24.874942779541016 stress="-1.4663548427051865e-05 9.952037416383064e-09 3.735908027380219e-09 9.952037416383064e-09 -1.4668052244815044e-05 1.0435578623457786e-08 3.735908027380219e-09 1.0435578623457786e-08 -1.4673078112537041e-05" pbc="T T T"
In       2.16179258       1.52861828       3.74433597      -0.00000025      -0.00000014       0.00000012
In       6.48538030       4.58585573      11.23300869       0.00000011      -0.00000005       0.00000034
Ge       0.00000005       0.00000029      -0.00000092       0.00000225      -0.00000148       0.00000679
Br       2.03612948       1.43976120       7.48867151       0.00064969       0.00045900       0.00000076
Br       6.61104430       4.67471423       7.48867131      -0.00065234      -0.00046197       0.00000096
Br       5.46731567       1.43976074       5.50767526      -0.00032429       0.00045993       0.00056411
Br       3.17985770       4.67471413       9.46966800       0.00032758      -0.00046226      -0.00056529
Br       3.17985801       4.67471371       5.50767567       0.00032406      -0.00045711       0.00056021
Br       5.46731589       1.43976013       9.46966852      -0.00032690       0.00046401      -0.00056787
