9
Lattice="6.875382206268226 4.051992454813716e-08 3.9695037750603177 2.291794079501887 6.482172500763267 3.96950382261682 -4.177522429389345e-08 2.870499071423265e-08 7.939007622477447" Properties=species:S:1:pos:R:3:forces:R:3 energy=-21.81174087524414 free_energy=-21.81174087524414 stress="0.00016185622371267527 5.020790005971776e-09 2.977428303907459e-09 5.020790005971776e-09 0.00016184196283575147 -6.576393207780029e-09 2.977428303907459e-09 -6.576393207780029e-09 0.00016184814739972353" pbc="T T T"
In       2.29179404       1.62054307       3.96950387       0.00000013      -0.00000008      -0.00000001
In       6.87538220       4.86162948      11.90851141      -0.00000006      -0.00000005      -0.00000011
Ge      -0.00000011      -0.00000006       0.00000003      -0.00000022      -0.00000003      -0.00000028
I        2.36817748       1.67455436       7.93900748      -0.00528881      -0.00373976       0.00000039
I        6.79899884       4.80761817       7.93900756       0.00528958       0.00374034       0.00000016
I        5.69129337       1.67455449       6.02040567       0.00264429      -0.00373960      -0.00458005
I        3.47588282       4.80761824       9.85760949      -0.00264434       0.00373892       0.00457981
I        3.47588286       4.80761827       6.02040562      -0.00264461       0.00374024      -0.00458007
I        5.69129351       1.67455424       9.85760975       0.00264397      -0.00373997       0.00458005
