9
Lattice="6.244103205015137 -3.963524420799727e-09 3.605034631284166 2.0813678279818904 5.886996629087931 3.605034463771092 4.1903079311245086e-08 -1.7553082350515026e-07 7.2100691899900555" Properties=species:S:1:pos:R:3:forces:R:3 energy=-28.51378059387207 free_energy=-28.51378059387207 stress="-0.0001139839441748336 8.56368254087414e-10 2.817883348882333e-08 8.56368254087414e-10 -0.00011397364141885191 -3.6181241114263685e-08 2.817883348882333e-08 -3.6181241114263685e-08 -0.00011399375216569752" pbc="T T T"
In       2.08136832       1.47174940       3.60503409       0.00000021       0.00000025      -0.00000033
In       6.24410328       4.41524785      10.81510336      -0.00000009       0.00000031       0.00000002
Ge       0.00000002      -0.00000038       0.00000021       0.00000077       0.00000372       0.00000142
Cl       1.88200245       1.33077651       7.21006952       0.00405505       0.00286715      -0.00000058
Cl       6.44346855       4.55622020       7.21006924      -0.00405790      -0.00286905      -0.00000088
Cl       5.30310236       1.33077562       5.23489631      -0.00202956       0.00287029       0.00351484
Cl       3.02236878       4.55622027       9.18524227       0.00202990      -0.00287069      -0.00351761
Cl       3.02236884       4.55621981       5.23489626       0.00202765      -0.00286752       0.00351304
Cl       5.30310180       1.33077651       9.18524171      -0.00202619       0.00286533      -0.00350992
