9
Lattice="5.262074507212039 3.5010040458739276e-07 3.038059797094822 1.7540250748853417 4.961131644432639 3.0380599545899623 1.1561354321380077e-07 2.7464243344762437e-07 6.07611939394118" Properties=species:S:1:pos:R:3:forces:R:3 energy=-40.968467712402344 free_energy=-40.968467712402344 stress="-0.00016677385428920388 -2.4746148241661103e-08 1.089888712613174e-08 -2.4746148241661103e-08 -0.00016674728249199688 -9.979099324652907e-09 1.089888712613174e-08 -9.979099324652907e-09 -0.00016670147306285799" pbc="T T T"
In       1.75402453       1.24028327       3.03805986      -0.00000017      -0.00000014       0.00000003
In       5.26207460       3.72084943       9.11417870      -0.00000017      -0.00000011       0.00000091
Ge      -0.00000023       0.00000003       0.00000025       0.00000791      -0.00000011      -0.00001822
F        1.49762418       1.05898042       6.07611943       0.00563222       0.00398259       0.00000047
F        5.51847582       3.90215148       6.07611977      -0.00563619      -0.00398441      -0.00000022
F        4.51326262       1.05898034       4.33504018      -0.00281891       0.00398555       0.00488229
F        2.50283742       3.90215200       7.81719892       0.00281297      -0.00397885      -0.00487122
F        2.50283710       3.90215147       4.33504045       0.00281713      -0.00398390       0.00487892
F        4.51326263       1.05898081       7.81719891      -0.00281490       0.00397928      -0.00487310
