9
Lattice="5.2663623979186855 -2.4220115300379475e-07 3.040535936315023 1.755453945105631 4.965173645890111 3.0405358656204977 -1.63460081215942e-07 -2.0216650230642744e-07 6.081072155751245" Properties=species:S:1:pos:R:3:forces:R:3 energy=-40.968406677246094 free_energy=-40.968406677246094 stress="0.00035652017686516047 -7.480121411163054e-09 -2.240572349876402e-08 -7.480121411163054e-09 0.00035653586382977664 1.8499783038805617e-08 -2.240572349876402e-08 1.8499783038805617e-08 0.0003565730294212699" pbc="T T T"
In       1.75545384       1.24129305       3.04053595       0.00000016       0.00000019      -0.00000001
In       5.26636215       3.72388000       9.12160744      -0.00000023      -0.00000040       0.00000050
Ge       0.00000000      -0.00000000       0.00000014       0.00000398      -0.00000420      -0.00001251
F        1.49794449       1.05920654       6.08107215       0.00068086       0.00048028      -0.00000026
F        5.52387153       3.90596671       6.08107185      -0.00067884      -0.00048068      -0.00000023
F        4.51739010       1.05920653       4.33779401      -0.00034247       0.00048296       0.00059207
F        2.50442615       3.90596684       7.82434992       0.00033642      -0.00047630      -0.00058167
F        2.50442615       3.90596690       4.33779406       0.00034028      -0.00048210       0.00058961
F        4.51739009       1.05920635       7.82435014      -0.00034017       0.00048010      -0.00058754
