9
Lattice="6.499851605958129 1.1705927688302183e-08 3.7526910443657684 2.166617221051811 6.128118849206337 3.752691030458566 2.7368305117838895e-08 2.319554630271952e-09 7.505382041328225" Properties=species:S:1:pos:R:3:forces:R:3 energy=-19.19245147705078 free_energy=-19.19245147705078 stress="-0.0001359008892904967 -4.709226342214379e-09 -5.82553560946053e-09 -4.709226342214379e-09 -0.00013590209709946066 2.774264595828413e-09 -5.82553560946053e-09 2.774264595828413e-09 -0.00013589543232228607" pbc="T T T"
In       2.16661718       1.53202967       3.75269103      -0.00000018      -0.00000023       0.00000018
In       6.49985164       4.59608907      11.25807283      -0.00000009      -0.00000030      -0.00000013
Hg      -0.00000019      -0.00000016       0.00000013       0.00000045      -0.00000076      -0.00000074
Br       2.26554018       1.60197882       7.50538216      -0.00232595      -0.00164479      -0.00000004
Br       6.40092864       4.52614021       7.50538226       0.00232601       0.00164500       0.00000007
Br       5.36708182       1.60197857       5.71470609       0.00116275      -0.00164440      -0.00201443
Br       3.29938735       4.52614013       9.29605769      -0.00116347       0.00164533       0.00201544
Br       3.29938712       4.52614037       5.71470641      -0.00116317       0.00164506      -0.00201446
Br       5.36708168       1.60197878       9.29605796       0.00116363      -0.00164482       0.00201440
