9
Lattice="6.28490205831111 -6.134555107065238e-08 3.6285896963335094 2.094967319186075 5.925462295151942 3.628589654326316 9.334699193032852e-08 1.4558211326400301e-08 7.257179230985299" Properties=species:S:1:pos:R:3:forces:R:3 energy=-21.426464080810547 free_energy=-21.426464080810547 stress="-0.00016980037617031485 2.2871995963846814e-10 6.257154350208793e-09 2.2871995963846814e-10 -0.00016980608052108437 -4.654997276531958e-09 6.257154350208793e-09 -4.654997276531958e-09 -0.00016983129899017513" pbc="T T T"
In       2.09496693       1.48136537       3.62858915      -0.00000049      -0.00000061      -0.00000070
In       6.28490195       4.44409681      10.88576938      -0.00000047       0.00000050       0.00000101
Hg      -0.00000025      -0.00000003      -0.00000000       0.00000565       0.00000191       0.00000005
Cl       2.14535257       1.51699296       7.25717937       0.00226057       0.00159779       0.00000096
Cl       6.23451729       4.40846949       7.25717920      -0.00226420      -0.00160107      -0.00000035
Cl       5.21222600       1.51699318       5.48651906      -0.00113115       0.00160024       0.00195965
Cl       3.16764368       4.40846923       9.02783937       0.00113073      -0.00159997      -0.00195953
Cl       3.16764361       4.40846903       5.48651910       0.00113103      -0.00159883       0.00195926
Cl       5.21222613       1.51699299       9.02783972      -0.00113177       0.00160015      -0.00196040
