9
Lattice="5.002834592789844 -1.436378503662184e-07 2.888387825176606 1.6676114637773032 4.716717373044208 2.8883877069287673 -2.770780781678324e-08 -1.6441579768690705e-07 5.776775698344537" Properties=species:S:1:pos:R:3:forces:R:3 energy=-30.481887817382812 free_energy=-30.481887817382812 stress="9.77924355538562e-05 -1.4648727564292585e-08 1.4803369197124994e-08 -1.4648727564292585e-08 9.779352694749832e-05 2.6658752982910983e-09 1.4803369197124994e-08 2.6658752982910983e-09 9.790476906346157e-05" pbc="T T T"
In       1.66761145       1.17917871       2.88838798       0.00000029      -0.00000463       0.00000183
In       5.00283457       3.53753797       8.66516318       0.00000151       0.00000227      -0.00000242
Hg      -0.00000004      -0.00000004       0.00000001       0.00000057       0.00000240       0.00000265
F        1.75245472       1.23917241       5.77677539      -0.00126708      -0.00089598      -0.00000086
F        4.91799140       3.47754488       5.77677578       0.00126457       0.00089550       0.00000272
F        4.12660706       1.23917229       4.40605808       0.00063244      -0.00089765      -0.00109762
F        2.54383882       3.47754496       7.14749299      -0.00063094       0.00089526       0.00109410
F        2.54383887       3.47754493       4.40605815      -0.00063291       0.00089741      -0.00109595
F        4.12660724       1.23917212       7.14749315       0.00063190      -0.00089455       0.00109535
