9
Lattice="5.3877689871958925 2.1782640123220558e-08 3.1106299246619433 1.7959230320390747 5.079637203119895 3.1106298973471285 -4.0914546589041594e-08 -6.238467965712312e-08 6.221259920190024" Properties=species:S:1:pos:R:3:forces:R:3 energy=-52.017601013183594 free_energy=-52.017601013183594 stress="-0.0004251378122717142 3.971202477970337e-09 -8.711152688078982e-09 3.971202477970337e-09 -0.00042513711377978325 1.5263188046787945e-08 -8.711152688078982e-09 1.5263188046787945e-08 -0.00042511767242103815" pbc="T T T"
In       1.79592292       1.26990939       3.11062975      -0.00000001      -0.00000081       0.00000034
In       5.38776896       3.80972801       9.33189019       0.00000029       0.00000061       0.00000038
Hf       0.00000003      -0.00000001      -0.00000022       0.00000292       0.00000032       0.00000111
F        1.63775225       1.15806563       6.22125998      -0.00192976      -0.00136420      -0.00000004
F        5.54593988       3.92157147       6.22125959       0.00192782       0.00136243       0.00000016
F        4.56889300       1.15806552       4.52896488       0.00096481      -0.00136432      -0.00167127
F        2.61479885       3.92157160       7.91355479      -0.00096481       0.00136411       0.00167166
F        2.61479918       3.92157155       4.52896496      -0.00096498       0.00136425      -0.00167197
F        4.56889283       1.15806536       7.91355508       0.00096375      -0.00136234       0.00166951
