9
Lattice="6.907794633438297 -3.765617156060821e-08 3.988217113547949 2.302598230759759 6.512731150419406 3.988217018083809 4.715216215939442e-08 -8.357758157870925e-08 7.9764341454259915" Properties=species:S:1:pos:R:3:forces:R:3 energy=-16.885284423828125 free_energy=-16.885284423828125 stress="0.00010689738701330498 -9.119398014512115e-10 -1.7610829461389699e-09 -9.119398014512115e-10 0.00010690332419471815 2.2901212037851337e-09 -1.7610829461389699e-09 2.2901212037851337e-09 0.00010690597264328972" pbc="T T T"
In       2.30259829       1.62818270       3.98821708      -0.00000008       0.00000002       0.00000004
In       6.90779462       4.88454829      11.96465129      -0.00000013      -0.00000014      -0.00000020
Hg       0.00000008       0.00000001       0.00000012      -0.00000017       0.00000003       0.00000022
I        2.43452973       1.72147219       7.97643409      -0.00100577      -0.00071080       0.00000008
I        6.77586331       4.79125886       7.97643401       0.00100607       0.00071150       0.00000025
I        5.69052964       1.72147233       6.09658170       0.00050314      -0.00071107      -0.00087166
I        3.51986311       4.79125873       9.85628666      -0.00050293       0.00071035       0.00087053
I        3.51986301       4.79125884       6.09658156      -0.00050315       0.00071105      -0.00087094
I        5.69052985       1.72147217       9.85628660       0.00050306      -0.00071104       0.00087169
