9
Lattice="7.025091060788612 -6.016469066016693e-08 4.055938254027994 2.341696929192005 6.6233194309071655 4.055938313518772 -9.908263867102234e-09 6.585485354267651e-08 8.111876525217605" Properties=species:S:1:pos:R:3:forces:R:3 energy=-31.08984375 free_energy=-31.08984375 stress="0.0001248608314199373 -1.208139988051471e-08 -1.5325732904969414e-09 -1.208139988051471e-08 0.00012488028733059764 4.3381804815112446e-09 -1.5325732904969414e-09 4.3381804815112446e-09 0.0001248787739314139" pbc="T T T"
In       2.34169720       1.65582974       4.05593820      -0.00000010      -0.00000021       0.00000002
In       7.02509092       4.96748972      12.16781491       0.00000032       0.00000059       0.00000012
Hf      -0.00000030       0.00000005      -0.00000096       0.00000215      -0.00000146       0.00001249
I        2.31370503       1.63603669       8.11187647      -0.00264540      -0.00187055       0.00000029
I        7.05308311       4.98728283       8.11187653       0.00264460       0.00187009      -0.00000007
I        5.86823814       1.63603702       6.05966623       0.00132513      -0.00187413      -0.00229481
I        3.49854943       4.98728284      10.16408726      -0.00132158       0.00186913       0.00228943
I        3.49854987       4.98728244       6.05966619      -0.00132562       0.00187469      -0.00229542
I        5.86823853       1.63603643      10.16408755       0.00132057      -0.00186819       0.00228798
