9
Lattice="6.26737943552425 -1.0632907259704586e-07 3.6184733604316923 2.0891264007894557 5.908942206657348 3.6184733214097995 4.38776915769024e-08 -1.6765663764320386e-08 7.236946644864991" Properties=species:S:1:pos:R:3:forces:R:3 energy=-39.13241958618164 free_energy=-39.13241958618164 stress="0.00029693529359064996 -5.136159231255988e-08 3.487530042534104e-09 -5.136159231255988e-08 0.0002969844499602914 -1.823318207527791e-08 3.487530042534104e-09 -1.823318207527791e-08 0.00029699038714170456" pbc="T T T"
In       2.08912648       1.47723552       3.61847333       0.00000004       0.00000017       0.00000014
In       6.26737943       4.43170655      10.85541999      -0.00000006      -0.00000002      -0.00000001
Hf      -0.00000046       0.00000010      -0.00000062       0.00000863      -0.00000022       0.00001362
Cl       2.00456447       1.41744120       7.23694624      -0.00346836      -0.00245271       0.00000166
Cl       6.35194167       4.49150114       7.23694670       0.00346188       0.00244799       0.00000039
Cl       5.26509664       1.41744168       5.35447776       0.00173769      -0.00245629      -0.00300689
Cl       3.09140875       4.49150101       9.11941599      -0.00173275       0.00245026       0.00300120
Cl       3.09140917       4.49150008       5.35447797      -0.00173918       0.00246080      -0.00301119
Cl       5.26509737       1.41744112       9.11941600       0.00173218      -0.00245007       0.00300090
