9
Lattice="6.184647352491701 2.0277367333006208e-07 3.570707746432758 2.0615493398491043 5.830941060205347 3.570707692436066 1.0443872383219238e-08 -5.8747179235380335e-08 7.141415474776142" Properties=species:S:1:pos:R:3:forces:R:3 energy=-31.31020164489746 free_energy=-31.31020164489746 stress="-5.278845856082626e-05 8.184352395801398e-08 -1.2581452324411657e-08 8.184352395801398e-08 -5.284769940772094e-05 1.7134548002673e-08 -1.2581452324411657e-08 1.7134548002673e-08 -5.2904881158610806e-05" pbc="T T T"
In       2.06154968       1.45773573       3.57070787       0.00000018       0.00000030       0.00000001
In       6.18464702       4.37320497      10.71212327      -0.00000010      -0.00000060      -0.00000000
Ir      -0.00000034       0.00000018      -0.00000234       0.00000840      -0.00000180       0.00005216
Cl       1.92142920       1.35865624       7.14141540       0.00195865       0.00138409      -0.00000278
Cl       6.32476710       4.47228529       7.14141547      -0.00196117      -0.00138599      -0.00000238
Cl       5.22393320       1.35865566       5.23471426      -0.00097956       0.00138323       0.00169183
Cl       3.02226345       4.47228646       9.04811768       0.00098804      -0.00139739      -0.00171274
Cl       3.02226403       4.47228553       5.23471424       0.00097714      -0.00138251       0.00169070
Cl       5.22393360       1.35865468       9.04811779      -0.00099150       0.00140058      -0.00171663
