9
Lattice="6.7401095718403266 6.281982982114205e-08 3.891403994100663 2.2467032227822763 6.354636502366966 3.8914040409668593 -3.262445381748852e-08 3.433026999304195e-08 7.782808044708451" Properties=species:S:1:pos:R:3:forces:R:3 energy=-25.89575958251953 free_energy=-25.89575958251953 stress="-9.968271115212701e-06 8.266829887304539e-09 1.1033617575151311e-08 8.266829887304539e-09 -9.972005500458181e-06 -8.043477883745709e-09 1.1033617575151311e-08 -8.043477883745709e-09 -9.994801075663418e-06" pbc="T T T"
In       2.24670315       1.58865902       3.89140415       0.00000004      -0.00000007      -0.00000015
In       6.74010960       4.76597757      11.67421200       0.00000015       0.00000015       0.00000008
Ir      -0.00000005       0.00000003      -0.00000018      -0.00000008       0.00000010       0.00000278
I        2.19672943       1.55332222       7.78280797      -0.00005884      -0.00004205       0.00000007
I        6.79008352       4.80131442       7.78280807       0.00005900       0.00004237       0.00000010
I        5.64174495       1.55332217       5.79382709       0.00002862      -0.00004132      -0.00004980
I        3.34506764       4.80131453       9.77178912      -0.00002820       0.00004008       0.00004752
I        3.34506782       4.80131413       5.79382731      -0.00002921       0.00004191      -0.00005002
I        5.64174498       1.55332230       9.77178880       0.00002852      -0.00004118       0.00004943
