9
Lattice="5.244981923335881 -1.5250395776227456e-08 3.028191564605634 1.7483273143517415 4.945015997903824 3.0281915283168295 -2.6103738814076728e-08 -6.290264357247985e-08 6.056383174424241" Properties=species:S:1:pos:R:3:forces:R:3 energy=-40.05156707763672 free_energy=-40.05156707763672 stress="-3.783423380809836e-06 4.887165516720415e-08 5.546743064854809e-09 4.887165516720415e-08 -3.838200427708216e-06 -3.467421239022883e-09 5.546743064854809e-09 -3.467421239022883e-09 -3.8784401112934574e-06" pbc="T T T"
In       1.74832726       1.23625404       3.02819126       0.00000055       0.00000012      -0.00000009
In       5.24498224       3.70876205       9.08457466      -0.00000009       0.00000019      -0.00000012
Ir       0.00000001      -0.00000013      -0.00000010       0.00000082       0.00000272       0.00000326
F        1.63124308       1.15346299       6.05638304       0.00141389       0.00099967       0.00000036
F        5.36206579       3.79155284       6.05638299      -0.00141411      -0.00100040      -0.00000003
F        4.42936039       1.15346281       4.44088938      -0.00070893       0.00100203       0.00122762
F        2.56394890       3.79155307       7.67187737       0.00070928      -0.00100420      -0.00123013
F        2.56394884       3.79155314       4.44088931       0.00070835      -0.00100269       0.00122770
F        4.42936039       1.15346285       7.67187725      -0.00070974       0.00100254      -0.00122865
