9
Lattice="6.4425443762475725 5.124075395914165e-08 3.7196046173939217 2.147514752523525 6.074089258433765 3.719604769587778 -1.149680146270472e-07 1.0510402446594048e-07 7.43920943391821" Properties=species:S:1:pos:R:3:forces:R:3 energy=-28.468093872070312 free_energy=-28.468093872070312 stress="-0.00015489333600271493 1.2690036577112096e-08 -1.8258131007087286e-08 1.2690036577112096e-08 -0.0001548904983792454 2.4990296054738792e-08 -1.8258131007087286e-08 2.4990296054738792e-08 -0.00015491043450310826" pbc="T T T"
In       2.14751470       1.51852236       3.71960476      -0.00000005      -0.00000009      -0.00000015
In       6.44254427       4.55556696      11.15881400       0.00000010      -0.00000018       0.00000034
Ir      -0.00000026      -0.00000092       0.00000053       0.00000348       0.00001943      -0.00001407
Br       2.04343189       1.44492493       7.43920945       0.00509045       0.00359901       0.00000034
Br       6.54662758       4.62916485       7.43920946      -0.00509990      -0.00360641       0.00000009
Br       5.42082851       1.44492483       5.48926838      -0.00254760       0.00360167       0.00441295
Br       3.16923065       4.62916463       9.38915036       0.00254694      -0.00360290      -0.00441196
Br       3.16923019       4.62916528       5.48926773       0.00255217      -0.00360968       0.00442141
Br       5.42082850       1.44492475       9.38915062      -0.00254566       0.00359913      -0.00440885
