9
Lattice="4.621431452260866 -1.398981330426945e-08 2.668184683666327 1.5404771465539988 4.357127240258564 2.668184668095028 -1.51470533200375e-08 -2.9781452928823377e-08 5.336369393568113" Properties=species:S:1:pos:R:3:forces:R:3 energy=-39.149112701416016 free_energy=-39.149112701416016 stress="0.0001593306806171313 -5.5300777290767655e-09 4.566005884498736e-08 -5.5300777290767655e-09 0.00015928296488709748 -1.7324943257790437e-08 4.566005884498736e-08 -1.7324943257790437e-08 0.00015940422599669546" pbc="T T T"
In       1.54047738       1.08928190       2.66818468       0.00000179       0.00000098       0.00000141
In       4.62143152       3.26784532       8.00455393       0.00000192      -0.00000005      -0.00000221
Mg      -0.00000001      -0.00000005       0.00000006       0.00000158      -0.00000166      -0.00000937
F        1.54649811       1.09353946       5.33636925       0.00187072       0.00132371      -0.00000175
F        4.61541029       3.26358787       5.33636948      -0.00187135      -0.00132474       0.00000205
F        3.84818227       1.09353924       4.00749130      -0.00093789       0.00132512       0.00162376
F        2.31372628       3.26358771       6.66524742       0.00093422      -0.00132129      -0.00161603
F        2.31372622       3.26358796       4.00749142       0.00093401      -0.00132374       0.00161996
F        3.84818229       1.09353934       6.66524741      -0.00093483       0.00132153      -0.00161781
