9
Lattice="6.2113675772084695 1.8713971831277745e-07 3.5861346028472814 2.070455991065201 5.856133574525753 3.586134679821605 -5.425974699467149e-08 5.5906685977492566e-08 7.17226929967496" Properties=species:S:1:pos:R:3:forces:R:3 energy=-34.92652893066406 free_energy=-34.92652893066406 stress="0.00019192775653209537 8.824896724490827e-08 2.903874474213808e-09 8.824896724490827e-08 0.00019183622498530895 -1.5259550290025459e-09 2.903874474213808e-09 -1.5259550290025459e-09 0.000191768747754395" pbc="T T T"
In       2.07045597       1.46403359       3.58613463       0.00000016      -0.00000029      -0.00000009
In       6.21136772       4.39210014      10.75840414      -0.00000006       0.00000018       0.00000011
Mo       0.00000040       0.00000117      -0.00000092      -0.00000924      -0.00001653       0.00001786
Cl       1.95694353       1.38376788       7.17226924      -0.00180219      -0.00127394       0.00000050
Cl       6.32487936       4.47236564       7.17226924       0.00181615       0.00128259       0.00000013
Cl       5.23289595       1.38376751       5.28089663       0.00090116      -0.00127290      -0.00155890
Cl       3.04892739       4.47236628       9.06364204      -0.00089813       0.00126925       0.00155459
Cl       3.04892756       4.47236596       5.28089700      -0.00090362       0.00127725      -0.00156437
Cl       5.23289625       1.38376711       9.06364243       0.00089573      -0.00126551       0.00155005
