9
Lattice="6.78360220986793 -9.966578722296339e-08 3.9165145920646505 2.261200689208242 6.395641280220729 3.9165145114350732 -1.743113727020799e-08 -1.1107632106858356e-07 7.833029214320907" Properties=species:S:1:pos:R:3:forces:R:3 energy=-26.93923568725586 free_energy=-26.93923568725586 stress="-2.1300849766703323e-05 -2.1323895982305885e-09 -7.543169644463887e-09 -2.1323895982305885e-09 -2.1302266759448685e-05 -3.2275522532376755e-11 -7.543169644463887e-09 -3.2275522532376755e-11 -2.1303976609488018e-05" pbc="T T T"
In       2.26120054       1.59891044       3.91651475       0.00000014      -0.00000012       0.00000032
In       6.78360234       4.79673095      11.74954381       0.00000002      -0.00000003       0.00000020
Mn      -0.00000114      -0.00000224       0.00000295       0.00000985       0.00001868      -0.00002609
I        2.16155364       1.52844924       7.83302949       0.00070091       0.00049669      -0.00000075
I        6.88325084       4.86719325       7.83302906      -0.00071782      -0.00050761      -0.00000133
I        5.70282625       1.52844811       5.78847393      -0.00035717       0.00050670       0.00061856
I        3.34197763       4.86719173       9.87758314       0.00035173      -0.00049752      -0.00061037
I        3.34197654       4.86719352       5.78847328       0.00036107      -0.00050999       0.00062416
I        5.70282487       1.52844922       9.87758284      -0.00034869       0.00049318      -0.00060466
