9
Lattice="6.5198238022150585 -3.989546753303606e-08 3.764221834010009 2.173274556149608 6.146948729843927 3.7642218460908063 -1.4524555199468854e-07 -8.790816839226572e-08 7.528443919592737" Properties=species:S:1:pos:R:3:forces:R:3 energy=-30.51254653930664 free_energy=-30.51254653930664 stress="2.1337160433176905e-05 -7.552089620332936e-09 1.2703771368194339e-09 -7.552089620332936e-09 2.134119495167397e-05 3.479639021364278e-09 1.2703771368194339e-09 3.479639021364278e-09 2.1328620277927257e-05" pbc="T T T"
In       2.17327483       1.53673736       3.76422224       0.00000009       0.00000015       0.00000007
In       6.51982415       4.61021124      11.29266604      -0.00000002      -0.00000006      -0.00000004
Mn      -0.00000007      -0.00000003       0.00000022      -0.00000198       0.00000187      -0.00000317
Br       1.91862061       1.35666949       7.52844386      -0.00004280      -0.00002941      -0.00000025
Br       6.77447750       4.79027907       7.52844367       0.00004161       0.00002992       0.00000003
Br       5.56051325       1.35666965       5.42579612       0.00002201      -0.00003027      -0.00003695
Br       3.13258468       4.79027872       9.63109136      -0.00002130       0.00003048       0.00003631
Br       3.13258475       4.79027901       5.42579553      -0.00002044       0.00002870      -0.00003447
Br       5.56051315       1.35666995       9.63109129       0.00002274      -0.00003135       0.00003841
