9
Lattice="6.783003317843382 -1.9102407016769293e-07 3.9161688199717104 2.2610009971509197 6.395076623432492 3.916168696472285 7.734311249701065e-08 -9.656532582410251e-08 7.8323375059811955" Properties=species:S:1:pos:R:3:forces:R:3 energy=-26.939228057861328 free_energy=-26.939228057861328 stress="-7.085106335580349e-05 9.095727504515594e-10 -1.0247586113010243e-09 9.095727504515594e-10 -7.08399384166114e-05 4.906964834461292e-10 -1.0247586113010243e-09 4.906964834461292e-10 -7.084945536917076e-05" pbc="T T T"
In       2.26100104       1.59876924       3.91616912       0.00000024      -0.00000003       0.00000010
In       6.78300333       4.79630693      11.74850603      -0.00000003      -0.00000010       0.00000024
Mn       0.00000023       0.00000075       0.00000272      -0.00000011      -0.00000841      -0.00002543
I        2.16098912       1.52805028       7.83233747       0.00173976       0.00122996      -0.00000030
I        6.88301471       4.86702572       7.83233753      -0.00173461      -0.00122701      -0.00000046
I        5.70250884       1.52804916       5.78763967      -0.00087385       0.00123519       0.00151336
I        3.34149615       4.86702601       9.87703359       0.00086371      -0.00122145      -0.00149602
I        3.34149592       4.86702691       5.78763960       0.00087129      -0.00123245       0.00150914
I        5.70250829       1.52805033       9.87703426      -0.00086636       0.00122437      -0.00150056
