9
Lattice="5.0295191078138055 1.1969324398524484e-07 2.903794456844779 1.6765064676126442 4.7418767157999495 2.903794481970697 7.108600528743609e-08 8.103826176664128e-08 5.807588790564941" Properties=species:S:1:pos:R:3:forces:R:3 energy=-43.4526481628418 free_energy=-43.4526481628418 stress="0.0006058790604583919 -2.1518784976137795e-08 2.4136539877872565e-08 -2.1518784976137795e-08 0.0006058351136744022 7.154444148227412e-09 2.4136539877872565e-08 7.154444148227412e-09 0.0006058227154426277" pbc="T T T"
In       1.67650651       1.18546931       2.90379509       0.00000118      -0.00000055      -0.00000003
In       5.02951897       3.55640751       8.71138267      -0.00000034      -0.00000017       0.00000084
Mn       0.00000025      -0.00000002       0.00000025      -0.00000987      -0.00000016      -0.00000862
F        1.55183683       1.09731450       5.80758887      -0.00521490      -0.00368758      -0.00000031
F        5.15418866       3.64456266       5.80758867       0.00521979       0.00369027       0.00000129
F        4.25360046       1.09731465       4.24772449       0.00260851      -0.00368910      -0.00451761
F        2.45242526       3.64456216       7.36745323      -0.00260825       0.00369065       0.00451910
F        2.45242495       3.64456222       4.24772450      -0.00260776       0.00368726      -0.00451602
F        4.25360077       1.09731464       7.36745307       0.00261176      -0.00369073       0.00452098
