9
Lattice="6.5202004193143415 2.688127175940023e-07 3.764440593022249 2.173400453944383 6.1473047181209886 3.76444048782803 1.661706743476956e-07 -1.1335603680729581e-08 7.528880898228312" Properties=species:S:1:pos:R:3:forces:R:3 energy=-30.512529373168945 free_energy=-30.512529373168945 stress="-7.538097270298749e-05 -1.6677342173920806e-08 2.8009343733259584e-09 -1.6677342173920806e-08 -7.537668716395274e-05 -7.259230105916004e-09 2.8009343733259584e-09 -7.259230105916004e-09 -7.532221206929535e-05" pbc="T T T"
In       2.17340021       1.53682628       3.76444052      -0.00000002       0.00000002      -0.00000004
In       6.52020090       4.61047873      11.29332148      -0.00000004      -0.00000001       0.00000006
Mn       0.00000069      -0.00000024      -0.00000029      -0.00001028       0.00000358       0.00000392
Br       1.91792254       1.35617661       7.52888068       0.00513672       0.00363164       0.00000027
Br       6.77567756       4.79112821       7.52888096      -0.00512938      -0.00362827      -0.00000040
Br       5.56123880       1.35617659       5.42541102      -0.00256409       0.00362571       0.00444026
Br       3.13236239       4.79112878       9.63235120       0.00256677      -0.00363127      -0.00444471
Br       3.13236268       4.79112829       5.42541104       0.00256547      -0.00362841       0.00444190
Br       5.56123848       1.35617668       9.63235139      -0.00256525       0.00362704      -0.00444155
