9
Lattice="5.29818557861335 -8.307936624643382e-08 3.058908876586933 1.7660618562447385 4.995176739733761 3.0589087466226275 1.9158303024032334e-07 -2.37034760970339e-08 6.117817421342384" Properties=species:S:1:pos:R:3:forces:R:3 energy=-43.17725372314453 free_energy=-43.17725372314453 stress="0.00016934765153564513 -7.439162175160163e-09 -8.381505267607281e-09 -7.439162175160163e-09 0.00016936736938077956 1.330857113401862e-08 -8.381505267607281e-09 1.330857113401862e-08 0.00016939300985541195" pbc="T T T"
In       1.76606220       1.24879386       3.05890858      -0.00000011       0.00000017      -0.00000047
In       5.29818548       3.74638291       9.17672633       0.00000026      -0.00000010       0.00000007
Mo      -0.00000005      -0.00000009       0.00000003       0.00000286      -0.00000302      -0.00000145
F        1.65572620       1.17077489       6.11781741       0.00012666       0.00008874       0.00000014
F        5.40852141       3.82440197       6.11781747      -0.00012648      -0.00008911       0.00000004
F        4.47032257       1.17077472       4.49280975      -0.00006334       0.00008897       0.00010902
F        2.59392519       3.82440146       7.74282546       0.00006127      -0.00008643      -0.00010583
F        2.59392502       3.82440187       4.49280959       0.00006220      -0.00008802       0.00010784
F        4.47032257       1.17077485       7.74282560      -0.00006337       0.00008886      -0.00010934
