9
Lattice="6.4791630865562055 -6.198950320559993e-09 3.7407466302615524 2.1597210525004953 6.108613625420629 3.74074657917849 1.3415841361121917e-08 -5.307728503701271e-08 7.481493237286133" Properties=species:S:1:pos:R:3:forces:R:3 energy=-23.62506675720215 free_energy=-23.62506675720215 stress="9.53655853663804e-06 4.642121798070775e-09 -3.7004772579507517e-09 4.642121798070775e-09 9.52796563069569e-06 1.1735105109877964e-09 -3.7004772579507517e-09 1.1735105109877964e-09 9.523642802378163e-06" pbc="T T T"
In       2.15972154       1.52715336       3.74074640       0.00000045      -0.00000009      -0.00000008
In       6.47916314       4.58146060      11.22223954       0.00000023       0.00000019      -0.00000065
Mg      -0.00000002      -0.00000003       0.00000006      -0.00000004       0.00000007      -0.00000113
Br       2.17012704       1.53451155       7.48149332       0.00058974       0.00041644      -0.00000033
Br       6.46875709       4.57410201       7.48149352      -0.00058945      -0.00041640      -0.00000030
Br       5.39409954       1.53451141       5.62013176      -0.00029545       0.00041723       0.00051075
Br       3.24478449       4.57410191       9.34285463       0.00029438      -0.00041552      -0.00050908
Br       3.24478445       4.57410208       5.62013184       0.00029556      -0.00041749       0.00051098
Br       5.39409933       1.53451144       9.34285464      -0.00029532       0.00041568      -0.00050984
