9
Lattice="6.180398316325448 1.3254120457299097e-08 3.5682547108441014 2.060132755424353 5.826935824907956 3.568254761385674 -1.2304153475886963e-07 -2.510290380014528e-08 7.1365096348024" Properties=species:S:1:pos:R:3:forces:R:3 energy=-33.39239501953125 free_energy=-33.39239501953125 stress="5.366683399188332e-05 -3.2181877163139916e-09 -1.338063615463625e-08 -3.2181877163139916e-09 5.3664618462789804e-05 -2.58200572034184e-08 -1.338063615463625e-08 -2.58200572034184e-08 5.367645280784927e-05" pbc="T T T"
In       2.06013279       1.45673332       3.56825460       0.00000009      -0.00000036      -0.00000017
In       6.18039852       4.37020248      10.70476395       0.00000013       0.00000035       0.00000004
Mn      -0.00000001      -0.00000022       0.00000035       0.00000123       0.00000562      -0.00000285
Cl       1.86154128       1.31630833       7.13650947       0.00012101       0.00008689       0.00000094
Cl       6.37899027       4.51062758       7.13650978      -0.00012597      -0.00008994      -0.00000069
Cl       5.24962748       1.31630805       5.18039647      -0.00006049       0.00008881       0.00010870
Cl       2.99090327       4.51062801       9.09262276       0.00006209      -0.00008883      -0.00010921
Cl       2.99090284       4.51062756       5.18039641       0.00006300      -0.00008899       0.00010951
Cl       5.24962749       1.31630827       9.09262289      -0.00006105       0.00008689      -0.00010674
