9
Lattice="6.8704493126193436 -9.477933019140128e-08 3.966655951597495 2.2901496255509817 6.4775218312881755 3.96665604852883 1.622843260692687e-08 1.301915443560661e-07 7.933311875086635" Properties=species:S:1:pos:R:3:forces:R:3 energy=-28.102155685424805 free_energy=-28.102155685424805 stress="1.1721715964085888e-05 -5.1826546609845536e-08 7.509757260493188e-10 -5.1826546609845536e-08 1.1757606444007251e-05 2.8702209498021602e-09 7.509757260493188e-10 2.8702209498021602e-09 1.179527498607058e-05" pbc="T T T"
In       2.29014983       1.61938045       3.96665601      -0.00000002       0.00000015      -0.00000001
In       6.87044924       4.85814131      11.89996797      -0.00000001       0.00000003       0.00000004
Mo      -0.00000025      -0.00000002      -0.00000095       0.00000502       0.00000111       0.00001109
I        2.27081765       1.60571077       7.93331190      -0.00261915      -0.00185211      -0.00000000
I        6.88978173       4.87181172       7.93331191       0.00261319       0.00184779       0.00000044
I        5.73503993       1.60571126       5.93324253       0.00131358      -0.00185625      -0.00227328
I        3.42555863       4.87181100       9.93338166      -0.00130938       0.00185278       0.00226855
I        3.42555894       4.87181059       5.93324252      -0.00131291       0.00185744      -0.00227417
I        5.73504018       1.60571042       9.93338188       0.00130969      -0.00185090       0.00226741
