9
Lattice="5.027216464424399 -1.2485471261132412e-07 2.9024650182092944 1.6757387458013897 4.739705114004449 2.9024649453926314 8.326721291947964e-08 -3.030303599333987e-08 5.804929892195577" Properties=species:S:1:pos:R:3:forces:R:3 energy=-43.45271301269531 free_energy=-43.45271301269531 stress="0.00012190350389573723 2.257351106038641e-08 -2.6100476446799803e-08 2.257351106038641e-08 0.00012186765525257215 -6.4756866535731206e-09 -2.6100476446799803e-08 -6.4756866535731206e-09 0.0001218302350025624" pbc="T T T"
In       1.67573867       1.18492633       2.90246459       0.00000064      -0.00000048      -0.00000044
In       5.02721675       3.55477855       8.70739452       0.00000142      -0.00000060      -0.00000063
Mn       0.00000024      -0.00000020       0.00000014      -0.00000494      -0.00000010       0.00000213
F        1.55140818       1.09701181       5.80492996       0.00064328       0.00045387       0.00000031
F        5.15154699       3.64269375       5.80493036      -0.00064105      -0.00045455      -0.00000006
F        4.25151222       1.09701140       4.24602432      -0.00032052       0.00045493       0.00055800
F        2.45144303       3.64269319       7.36383498       0.00032161      -0.00045475      -0.00055519
F        2.45144318       3.64269335       4.24602502       0.00032137      -0.00045371       0.00055532
F        4.25151195       1.09701170       7.36383555      -0.00032178       0.00045541      -0.00055867
