9
Lattice="6.217994143413409 -6.802103404132857e-08 3.589960477469281 2.072664692799501 5.8623813801974185 3.589960403927788 -1.2076141377535537e-07 -1.7546068703602438e-07 7.179921164103477" Properties=species:S:1:pos:R:3:forces:R:3 energy=-26.438982009887695 free_energy=-26.438982009887695 stress="-1.5547511793556623e-05 7.601910212429175e-09 -4.775619899533012e-10 7.601910212429175e-09 -1.5542340406682342e-05 -3.558501049383267e-09 -4.775619899533012e-10 -3.558501049383267e-09 -1.5559528037556447e-05" pbc="T T T"
In       2.07266547       1.46559586       3.58996048       0.00000155       0.00000041       0.00000045
In       6.21799463       4.39678546      10.76988286       0.00000111      -0.00000122       0.00000242
Mg      -0.00000026      -0.00000003      -0.00000017      -0.00000032      -0.00000092      -0.00000148
Cl       2.02307373       1.43052925       7.17992094      -0.00065678      -0.00046466      -0.00000063
Cl       6.26758431       4.43185180       7.17991982       0.00065723       0.00046584       0.00000007
Cl       5.20645721       1.43052950       5.34199380       0.00032783      -0.00046472      -0.00057010
Cl       3.08420140       4.43185139       9.01784824      -0.00032941       0.00046547       0.00057004
Cl       3.08420133       4.43185166       5.34199407      -0.00033025       0.00046492      -0.00057019
Cl       5.20645710       1.43052965       9.01784798       0.00032906      -0.00046510       0.00056930
