9
Lattice="6.895205959131709 7.399800907204595e-09 3.9809489576164445 2.2984019836800935 6.500862485529152 3.980948974371813 -1.8253116790333844e-08 7.614120870493908e-09 7.96189794684819" Properties=species:S:1:pos:R:3:forces:R:3 energy=-20.712223052978516 free_energy=-20.712223052978516 stress="4.680361962527968e-05 -2.119592723559549e-09 -4.180988444346667e-09 -2.119592723559549e-09 4.682274447986856e-05 9.100467934786138e-09 -4.180988444346667e-09 9.100467934786138e-09 4.6810266212560236e-05" pbc="T T T"
In       2.29840192       1.62521565       3.98094893       0.00000006      -0.00000002      -0.00000012
In       6.89520592       4.87564689      11.94284687      -0.00000015       0.00000025       0.00000041
Mg      -0.00000008       0.00000015       0.00000019      -0.00000063      -0.00000094       0.00000125
I        2.35980092       1.66863142       7.96189797      -0.00026728      -0.00018997      -0.00000053
I        6.83380695       4.83223107       7.96189805       0.00026795       0.00018935       0.00000013
I        5.71530548       1.66863123       6.02459646       0.00013425      -0.00018987      -0.00023259
I        3.47830263       4.83223111       9.89919922      -0.00013399       0.00019033       0.00023302
I        3.47830253       4.83223126       6.02459661      -0.00013347       0.00018993      -0.00023240
I        5.71530541       1.66863123       9.89919921       0.00013331      -0.00018916       0.00023092
