9
Lattice="6.18218430364104 -3.7565086977734536e-07 3.5692857409080836 2.0607278416750687 5.828619049534876 3.5692855770069154 -2.275202979606936e-07 -3.6161843386309313e-07 7.13857187589303" Properties=species:S:1:pos:R:3:forces:R:3 energy=-33.39235305786133 free_energy=-33.39235305786133 stress="8.410636837652419e-06 -1.9303282527971533e-08 1.970391183547804e-09 -1.9303282527971533e-08 8.342931323568337e-06 -4.480474213863772e-09 1.970391183547804e-09 -4.480474213863772e-09 8.418037396040745e-06" pbc="T T T"
In       2.06072650       1.45715618       3.56928605      -0.00000079       0.00000070      -0.00000021
In       6.18218437       4.37146179      10.70785595      -0.00000019      -0.00000080      -0.00000066
Mn       0.00000014       0.00000021       0.00000095       0.00000076      -0.00000318      -0.00000813
Cl       1.86083566       1.31580845       7.13857163       0.00614169       0.00434402       0.00000017
Cl       6.38207644       4.51280997       7.13857162      -0.00613980      -0.00434431       0.00000119
Cl       5.25176668       1.31580927       5.18081697      -0.00307056       0.00434439       0.00532071
Cl       2.99114619       4.51280945       9.09632619       0.00306772      -0.00434074      -0.00531352
Cl       2.99114594       4.51280940       5.18081704       0.00306987      -0.00434299       0.00531746
Cl       5.25176578       1.31580846       9.09632652      -0.00306852       0.00434297      -0.00531715
