9
Lattice="6.523765915497889 1.6329015153776382e-07 3.766498048907644 2.1745887755105175 6.150665587334982 3.766498078248941 1.7372609149072992e-08 4.8219927805036615e-08 7.532996067725019" Properties=species:S:1:pos:R:3:forces:R:3 energy=-31.504268646240234 free_energy=-31.504268646240234 stress="0.0002717842871788889 2.140861532495819e-08 -5.387944312928994e-09 2.140861532495819e-08 0.0002717653405852616 -3.0891977864655473e-09 -5.387944312928994e-09 -3.0891977864655473e-09 0.00027174537535756826" pbc="T T T"
In       2.17458867       1.53766646       3.76649804       0.00000001      -0.00000006       0.00000004
In       6.52376609       4.61299937      11.29949416       0.00000000      -0.00000012      -0.00000021
Mo      -0.00000022      -0.00000022      -0.00000042       0.00000240       0.00000194       0.00000988
Br       2.08648375       1.47536696       7.53299596      -0.00302617      -0.00213972       0.00000072
Br       6.61187138       4.67529912       7.53299609       0.00302294       0.00213754      -0.00000012
Br       5.48052424       1.47536658       5.57344556       0.00151312      -0.00213893      -0.00261924
Br       3.21783020       4.67529945       9.49254696      -0.00150934       0.00213436       0.00261395
Br       3.21783023       4.67529910       5.57344557      -0.00151234       0.00213944      -0.00261927
Br       5.48052451       1.47536641       9.49254694       0.00150938      -0.00213455       0.00261422
