9
Lattice="5.3463646349447655 5.007645200517353e-08 3.086724961777207 1.7821215354940483 5.040601168538494 3.0867250599847034 -1.1892472100206666e-07 3.618668655350708e-08 6.1734501295379784" Properties=species:S:1:pos:R:3:forces:R:3 energy=-48.097137451171875 free_energy=-48.097137451171875 stress="-0.00010693065269151703 1.29058808084892e-08 -1.2998032872246768e-08 1.29058808084892e-08 -0.00010691744682844728 2.6094129079723416e-09 -1.2998032872246768e-08 2.6094129079723416e-09 -0.00010696279787225649" pbc="T T T"
In       1.78212127       1.26015069       3.08672481       0.00000077      -0.00000127       0.00000084
In       5.34636448       3.78045088       9.26017547       0.00000022       0.00000045      -0.00000151
Nb       0.00000011       0.00000011      -0.00000020       0.00000324      -0.00000580       0.00000702
F        1.62558791       1.14946446       6.17345014       0.00306460       0.00216663      -0.00000017
F        5.50289817       3.89113695       6.17345005      -0.00306407      -0.00216633       0.00000026
F        4.53357056       1.14946444       4.49452549      -0.00153269       0.00216728       0.00265443
F        2.59491545       3.89113666       7.85237473       0.00153305      -0.00216714      -0.00265473
F        2.59491578       3.89113677       4.49452566       0.00153054      -0.00216499       0.00265196
F        4.53357059       1.14946424       7.85237455      -0.00153548       0.00217113      -0.00265813
