9
Lattice="6.262447280452509 -1.3642825746304568e-09 3.6156255405987383 2.0874824420773694 5.904291963007302 3.6156255119399416 -2.9956623423676765e-08 -5.628223949446698e-08 7.231251133083828" Properties=species:S:1:pos:R:3:forces:R:3 energy=-36.27044677734375 free_energy=-36.27044677734375 stress="0.00015897715638857335 2.2582458569786468e-08 -3.1806379752197245e-10 2.2582458569786468e-08 0.00015894303214736283 -7.1507413323956825e-09 -3.1806379752197245e-10 -7.1507413323956825e-09 0.00015893115778453648" pbc="T T T"
In       2.08748229       1.47607302       3.61562566       0.00000014      -0.00000001       0.00000025
In       6.26244743       4.42821880      10.84687683      -0.00000007       0.00000012       0.00000008
Nb       0.00000017      -0.00000008      -0.00000183      -0.00000262       0.00000149       0.00003196
Cl       1.97007755       1.39305483       7.23125072      -0.00175214      -0.00123824       0.00000117
Cl       6.37985227       4.51123712       7.23125075       0.00175250       0.00123863       0.00000130
Cl       5.27740821       1.39305531       5.32176261       0.00088106      -0.00124513      -0.00152379
Cl       3.07252055       4.51123790       9.14074074      -0.00086813       0.00122753       0.00150499
Cl       3.07252144       4.51123652       5.32176272      -0.00088040       0.00124463      -0.00152296
Cl       5.27740888       1.39305416       9.14074053       0.00086976      -0.00122899       0.00150697
