9
Lattice="6.961406626290402 -3.22324400275466e-08 4.019170033245902 2.320468853849341 6.563277144482209 4.019170017989529 -1.9389656634094318e-09 -2.0056166416148512e-08 8.038340069850173" Properties=species:S:1:pos:R:3:forces:R:3 energy=-28.896209716796875 free_energy=-28.896209716796875 stress="8.907944720704108e-05 2.058433778984181e-08 3.3309444091855767e-09 2.058433778984181e-08 8.906942821340635e-05 -1.1409173161780473e-08 3.3309444091855767e-09 -1.1409173161780473e-08 8.904535206966102e-05" pbc="T T T"
In       2.32046887       1.64081929       4.01917000       0.00000012       0.00000007      -0.00000020
In       6.96140660       4.92245780      12.05751011      -0.00000014       0.00000009       0.00000020
Nb       0.00000027      -0.00000011       0.00000025      -0.00000443      -0.00000050       0.00000090
I        2.27641065       1.60966545       8.03834006      -0.00006003      -0.00004254       0.00000057
I        7.00546453       4.95361155       8.03834011       0.00006334       0.00004509      -0.00000054
I        5.82320130       1.60966543       5.99059966       0.00002979      -0.00004192      -0.00005171
I        3.45867423       4.95361165      10.08608039      -0.00002917       0.00004090       0.00004992
I        3.45867422       4.95361171       5.99059968      -0.00002906       0.00004175      -0.00005093
I        5.82320121       1.60966559      10.08608025       0.00002960      -0.00004290       0.00005184
