9
Lattice="6.097612674162842 -5.4125703644256706e-08 3.5204580346201895 2.032537556774488 5.748883923917046 3.5204579484500167 9.060868058644054e-08 -4.146650819134256e-08 7.040915912301664" Properties=species:S:1:pos:R:3:forces:R:3 energy=-27.390573501586914 free_energy=-27.390573501586914 stress="0.00035300495801493526 -6.202427016432921e-09 9.49188394550049e-10 -6.202427016432921e-09 0.0003530234971549362 9.093751529576366e-09 9.49188394550049e-10 9.093751529576366e-09 0.00035301659954711795" pbc="T T T"
In       2.03253751       1.43722239       3.52045763      -0.00000010       0.00000276      -0.00000021
In       6.09761251       4.31166288      10.56137592      -0.00000010      -0.00000022       0.00000267
Ni       0.00000043      -0.00000024      -0.00000006      -0.00000359       0.00000034      -0.00000023
Cl       1.90930420       1.35008235       7.04091580      -0.00260183      -0.00184026       0.00000026
Cl       6.22084644       4.39880058       7.04091548       0.00260252       0.00184000      -0.00000071
Cl       5.14295998       1.35008202       5.17396405       0.00130165      -0.00184157      -0.00225565
Cl       2.98718991       4.39880153       8.90786743      -0.00130038       0.00184047       0.00225341
Cl       2.98719008       4.39880153       5.17396388      -0.00129990       0.00184038      -0.00225413
Cl       5.14296028       1.35008186       8.90786737       0.00130187      -0.00184187       0.00225464
