9
Lattice="5.345507312261235 -2.0810752267107018e-07 3.0862301010439688 1.7818357283945438 5.039791928107135 3.0862298345740524 9.82581208913137e-08 -2.5687865918307883e-07 6.172460031899837" Properties=species:S:1:pos:R:3:forces:R:3 energy=-48.097137451171875 free_energy=-48.097137451171875 stress="-0.00012612702266778797 1.5649744833368118e-09 5.225555987919961e-09 1.5649744833368118e-09 -0.00012610512203536928 2.629625850403272e-09 5.225555987919961e-09 2.629625850403272e-09 -0.0001261131401406601" pbc="T T T"
In       1.78183586       1.25994795       3.08623014       0.00000028      -0.00000046       0.00000002
In       5.34550710       3.77984363       9.25869006       0.00000057      -0.00000026      -0.00000028
Nb       0.00000005       0.00000006       0.00000028       0.00000121      -0.00000532      -0.00001065
F        1.62565677       1.14951228       6.17246018       0.00279239       0.00197411      -0.00000010
F        5.50168627       3.89027908       6.17245982      -0.00278971      -0.00197297       0.00000010
F        4.53267889       1.14951261       4.49408981      -0.00139819       0.00197703       0.00242206
F        2.59466423       3.89027872       7.85082972       0.00139280      -0.00197047      -0.00241259
F        2.59466426       3.89027914       4.49408972       0.00139602      -0.00197482       0.00241834
F        4.53267900       1.14951223       7.85083016      -0.00139545       0.00197324      -0.00241664
