9
Lattice="4.687762289503218 -1.0569678497812555e-08 2.7064809076529937 1.5625874383557117 4.4196647091079235 2.706480875633431 1.428065000948704e-08 -2.9117822400310765e-08 5.412961790571161" Properties=species:S:1:pos:R:3:forces:R:3 energy=-37.23412322998047 free_energy=-37.23412322998047 stress="-1.886716745502781e-05 -3.2159338303472396e-08 -2.9889395847249034e-08 -3.2159338303472396e-08 -1.882701508293394e-05 6.777324923490369e-09 -2.9889395847249034e-08 6.777324923490369e-09 -1.8798004020936787e-05" pbc="T T T"
In       1.56258775       1.10491650       2.70648039       0.00000194       0.00000132      -0.00000264
In       4.68776235       3.31474822       8.11944150       0.00000057      -0.00000144      -0.00000887
Ni       0.00000000       0.00000017       0.00000015       0.00000427      -0.00000486       0.00000039
F        1.54388171       1.09168945       5.41296199      -0.00188358      -0.00133164       0.00000187
F        4.70646800       3.32797546       5.41296233       0.00188143       0.00133057       0.00000406
F        3.91582109       1.09168920       4.04352175       0.00094135      -0.00133378      -0.00162966
F        2.33452858       3.32797513       6.78240228      -0.00094227       0.00133465       0.00163665
F        2.33452807       3.32797516       4.04352165      -0.00094305       0.00133325      -0.00163089
F        3.91582144       1.09168936       6.78240231       0.00093967      -0.00132825       0.00162900
