9
Lattice="6.095063948205102 -6.719248960883394e-08 3.518986796040233 2.0316880265851394 5.746481124081236 3.5189866103649066 3.245988660782461e-08 -2.044523306732902e-07 7.0379735358583" Properties=species:S:1:pos:R:3:forces:R:3 energy=-27.39064598083496 free_energy=-27.39064598083496 stress="0.00012038448039675131 -7.240190669222102e-09 -6.17038781181023e-11 -7.240190669222102e-09 0.00012039959256071597 5.9621942938292705e-09 -6.17038781181023e-11 5.9621942938292705e-09 0.00012039219291182235" pbc="T T T"
In       2.03168861       1.43661996       3.51898672       0.00000075      -0.00000049      -0.00000009
In       6.09506369       4.30985953      10.55695984      -0.00000031      -0.00000132       0.00000040
Ni      -0.00000002       0.00000027       0.00000168       0.00000036      -0.00000106      -0.00001916
Cl       1.90857124       1.34956413       7.03797381       0.00108838       0.00077057      -0.00000035
Cl       6.21818059       4.39691735       7.03797361      -0.00108910      -0.00077009       0.00000066
Cl       5.14077794       1.34956419       5.17185780      -0.00054643       0.00077295       0.00094691
Cl       2.98597397       4.39691687       8.90408806       0.00054161      -0.00076479      -0.00093684
Cl       2.98597400       4.39691734       5.17185794       0.00054617      -0.00077268       0.00094640
Cl       5.14077799       1.34956384       8.90408832      -0.00054134       0.00076687      -0.00093788
