9
Lattice="6.336437512562201 -1.0656450216103291e-07 3.6583439610317985 2.112145782948024 5.974049949503514 3.65834388153538 1.966457561132771e-07 4.1686726835740046e-08 7.3166875814632" Properties=species:S:1:pos:R:3:forces:R:3 energy=-24.86595916748047 free_energy=-24.86595916748047 stress="0.00025402678875252604 1.9502670312032677e-11 -3.958764871470066e-09 1.9502670312032677e-11 0.00025401177117601037 -1.5042838086287702e-08 -3.958764871470066e-09 -1.5042838086287702e-08 0.00025399570586159825" pbc="T T T"
In       2.11214618       1.49351337       3.65834437       0.00000030       0.00000056       0.00000029
In       6.33643796       4.48053703      10.97503088       0.00000033      -0.00000025      -0.00000034
Ni      -0.00000032      -0.00000016       0.00000142       0.00000094       0.00000031      -0.00001477
Br       1.99687092       1.41200049       7.31668774      -0.00058183      -0.00041109      -0.00000034
Br       6.45171279       4.56204936       7.31668804       0.00058049       0.00041008      -0.00000024
Br       5.33800253       1.41200017       5.38768396       0.00028791      -0.00040627      -0.00049827
Br       3.11058139       4.56204883       9.24569059      -0.00029293       0.00041339       0.00050592
Br       3.11058073       4.56204944       5.38768383      -0.00028817       0.00040734      -0.00049901
Br       5.33800187       1.41200091       9.24569078       0.00029300      -0.00041404       0.00050691
