9
Lattice="6.570346244411729 -1.452369906616489e-07 3.793391257159871 2.190115276173533 6.194581713568764 3.7933912601037307 5.188022028034049e-08 4.029038652221716e-08 7.586782424460581" Properties=species:S:1:pos:R:3:forces:R:3 energy=-32.752113342285156 free_energy=-32.752113342285156 stress="7.165865099523216e-05 -3.059438569152917e-08 5.27448928977492e-09 -3.059438569152917e-08 7.166878640418872e-05 1.1935472610247189e-09 5.27448928977492e-09 1.1935472610247189e-09 7.169631135184318e-05" pbc="T T T"
In       2.19011536       1.54864544       3.79339121      -0.00000004      -0.00000019      -0.00000002
In       6.57034616       4.64593622      11.38017378      -0.00000001       0.00000009      -0.00000001
Nb      -0.00000002      -0.00000042       0.00000129      -0.00000302       0.00000610      -0.00001913
Br       2.09829262       1.48371685       7.58678272      -0.00018363      -0.00012919      -0.00000110
Br       6.66216894       4.71086466       7.58678255       0.00018266       0.00012910      -0.00000022
Br       5.52119976       1.48371712       5.61056632       0.00009055      -0.00012805      -0.00015783
Br       3.23926209       4.71086398       9.56299793      -0.00009511       0.00013486       0.00016450
Br       3.23926193       4.71086482       5.61056611      -0.00008944       0.00012524      -0.00015499
Br       5.52119938       1.48371776       9.56299786       0.00009799      -0.00013796       0.00016879
