9
Lattice="6.960836710502501 6.005196252055119e-08 4.018840868662705 2.3202789749551593 6.562739794011579 4.018840842964867 5.626387953837457e-08 8.31114814824285e-09 8.0376816398735" Properties=species:S:1:pos:R:3:forces:R:3 energy=-28.896215438842773 free_energy=-28.896215438842773 stress="0.00010642737470334396 -1.0147492846002137e-09 1.6173919981099516e-09 -1.0147492846002137e-09 0.00010642071720212698 -2.062106707612088e-09 1.6173919981099516e-09 -2.062106707612088e-09 0.00010641217522788793" pbc="T T T"
In       2.32027898       1.64068487       4.01884081       0.00000019       0.00000013      -0.00000004
In       6.96083677       4.92205497      12.05652271      -0.00000021      -0.00000015      -0.00000019
Nb      -0.00000018      -0.00000027      -0.00000086       0.00000193       0.00000443       0.00000925
I        2.27668724       1.60986081       8.03768169      -0.00271128      -0.00191704      -0.00000005
I        7.00442885       4.95287922       8.03768166       0.00270792       0.00191439       0.00000038
I        5.82249318       1.60986084       5.99050953       0.00135614      -0.00191767      -0.00234876
I        3.45862215       4.95287932      10.08485427      -0.00135258       0.00191297       0.00234294
I        3.45862248       4.95287920       5.99050931      -0.00135585       0.00191671      -0.00234768
I        5.82249354       1.60986049      10.08485430       0.00135372      -0.00191376       0.00234426
