9
Lattice="6.685487870450187 1.8554950199237055e-08 3.8598681265996295 2.228495948995344 6.303138318991585 3.859868170446689 2.6217076091250637e-10 5.388691046667126e-08 7.7197362527451485" Properties=species:S:1:pos:R:3:forces:R:3 energy=-22.353418350219727 free_energy=-22.353418350219727 stress="0.00014198519056662917 -2.457810843736752e-09 -1.625818479844554e-09 -2.457810843736752e-09 0.00014198008284438401 4.481819360080408e-09 -1.625818479844554e-09 4.481819360080408e-09 0.00014198236749507487" pbc="T T T"
In       2.22849587       1.57578459       3.85986815      -0.00000014      -0.00000019       0.00000016
In       6.68548797       4.72735377      11.57960442       0.00000006      -0.00000003      -0.00000013
Ni       0.00000009      -0.00000006      -0.00000007       0.00000008       0.00000011       0.00000026
I        2.21684913       1.56754900       7.71973623      -0.00209741      -0.00148292      -0.00000028
I        6.69713453       4.73558942       7.71973627       0.00209686       0.00148280      -0.00000022
I        5.57706321       1.56754925       5.77971586       0.00104856      -0.00148337      -0.00181589
I        3.33692074       4.73558921       9.65975665      -0.00104864       0.00148351       0.00181571
I        3.33692056       4.73558913       5.77971594      -0.00104877       0.00148338      -0.00181597
I        5.57706317       1.56754926       9.65975678       0.00104946      -0.00148328       0.00181615
