9
Lattice="6.571650771300936 -1.0876564382238216e-07 3.7941443859117716 2.190550148356737 6.195811818481196 3.794144396647589 6.662690894575713e-09 1.7859841020075327e-08 7.588288760283503" Properties=species:S:1:pos:R:3:forces:R:3 energy=-32.75209045410156 free_energy=-32.75209045410156 stress="3.3328669815091416e-05 -3.934174586106565e-08 3.114016156047228e-09 -3.934174586106565e-08 3.3346921554766595e-05 -3.3369846885733523e-09 3.114016156047228e-09 -3.3369846885733523e-09 3.336914596729912e-05" pbc="T T T"
In       2.19055024       1.54895301       3.79414436      -0.00000021      -0.00000008      -0.00000007
In       6.57165057       4.64685876      11.38243319       0.00000019       0.00000011       0.00000001
Nb       0.00000010      -0.00000017      -0.00000030      -0.00000305       0.00000367       0.00000331
Br       2.09787146       1.48341912       7.58828880       0.00443625       0.00313761       0.00000000
Br       6.66432974       4.71239260       7.58828872      -0.00443701      -0.00313792       0.00000007
Br       5.52271475       1.48341951       5.61095477      -0.00221505       0.00313346       0.00383726
Br       3.23948603       4.71239244       9.56562335       0.00221785      -0.00313665      -0.00384224
Br       3.23948619       4.71239219       5.61095463       0.00221636      -0.00313439       0.00383949
Br       5.52271465       1.48341951       9.56562264      -0.00221528       0.00313414      -0.00383788
