9
Lattice="6.684439552489876 -1.2145665217382383e-08 3.8592629265634595 2.2281465442414876 6.302149851426648 3.8592628604062202 9.899983780257288e-08 -1.1022300235971945e-08 7.718525681654097" Properties=species:S:1:pos:R:3:forces:R:3 energy=-22.353416442871094 free_energy=-22.353416442871094 stress="0.00011187763448106125 2.0589774329948796e-09 -5.600397035010474e-09 2.0589774329948796e-09 0.00011188544885953888 3.833947381792768e-09 -5.600397035010474e-09 3.833947381792768e-09 0.00011188769713044167" pbc="T T T"
In       2.22814648       1.57553737       3.85926278      -0.00000011      -0.00000011      -0.00000003
In       6.68443980       4.72661236      11.57778859       0.00000006      -0.00000012      -0.00000014
Ni       0.00000008       0.00000029      -0.00000025       0.00000008      -0.00000096       0.00000003
I        2.21719680       1.56779506       7.71852574      -0.00472938      -0.00334407      -0.00000004
I        6.69538932       4.73435472       7.71852575       0.00472963       0.00334418      -0.00000010
I        5.57584112       1.56779471       5.77941177       0.00236454      -0.00334409      -0.00409488
I        3.33674501       4.73435507       9.65763980      -0.00236476       0.00334463       0.00409599
I        3.33674487       4.73435509       5.77941172      -0.00236446       0.00334437      -0.00409622
I        5.57584129       1.56779463       9.65764001       0.00236433      -0.00334382       0.00409538
