9
Lattice="6.779676224860989 1.0564427662202309e-07 3.9142478263811498 2.2598921574437587 6.391940010361877 3.914247856020518 5.745126515113911e-09 4.0363102946074275e-08 7.8284956428114345" Properties=species:S:1:pos:R:3:forces:R:3 energy=-26.995452880859375 free_energy=-26.995452880859375 stress="-1.676265128480736e-05 1.5954931598116673e-08 6.316033251962949e-10 1.5954931598116673e-08 -1.677583895798307e-05 2.779060093160979e-09 6.316033251962949e-10 2.779060093160979e-09 -1.6792553651612252e-05" pbc="T T T"
In       2.25989213       1.59798512       3.91424790       0.00000006       0.00000022      -0.00000008
In       6.77967615       4.79395496      11.74274369       0.00000023      -0.00000000      -0.00000009
Os       0.00000021       0.00000009      -0.00000017      -0.00000338       0.00000021       0.00000180
I        2.21168558       1.56389802       7.82849564      -0.00079558      -0.00056244       0.00000029
I        6.82788258       4.82804212       7.82849563       0.00079717       0.00056378       0.00000025
I        5.67383360       1.56389780       5.82962347       0.00039805      -0.00056266      -0.00068924
I        3.36573488       4.82804242       9.82736779      -0.00039663       0.00056075       0.00068706
I        3.36573482       4.82804234       5.82962355      -0.00039731       0.00056185      -0.00068819
I        5.67383361       1.56389782       9.82736782       0.00039735      -0.00056168       0.00068824
