9
Lattice="6.170518589157692 5.847258455673389e-08 3.5625504007161584 2.05683962233128 5.817620540853381 3.562550335792975 -3.771450469622072e-09 -8.218130952402229e-08 7.125100807964642" Properties=species:S:1:pos:R:3:forces:R:3 energy=-33.24189376831055 free_energy=-33.24189376831055 stress="1.0047841897176113e-05 4.239864637156643e-08 8.200205847685993e-09 4.239864637156643e-08 1.002662793325726e-05 -1.3043258917377898e-08 8.200205847685993e-09 -1.3043258917377898e-08 9.939290976035409e-06" pbc="T T T"
In       2.05683941       1.45440511       3.56255026       0.00000014       0.00000022      -0.00000001
In       6.17051866       4.36321570      10.68765118      -0.00000006       0.00000005       0.00000029
Os       0.00000008      -0.00000018       0.00000021       0.00000329       0.00000236       0.00000501
Cl       1.92181755       1.35892997       7.12510053      -0.00270480      -0.00191298       0.00000022
Cl       6.30554087       4.45869047       7.12510065       0.00270087       0.00191090       0.00000021
Cl       5.20961016       1.35892959       5.22689200       0.00134946      -0.00190893      -0.00233567
Cl       3.01774792       4.45869110       9.02330982      -0.00134820       0.00190702       0.00233299
Cl       3.01774821       4.45869072       5.22689190      -0.00134981       0.00190929      -0.00233683
Cl       5.20961010       1.35892963       9.02330953       0.00134900      -0.00190786       0.00233382
