9
Lattice="5.3125993301704755 -5.869239863427731e-08 3.067230530536892 1.770866446813918 5.008766509286518 3.0672304287624486 2.24288646002575e-08 -1.087880878865636e-07 6.134461022225819" Properties=species:S:1:pos:R:3:forces:R:3 energy=-42.74563980102539 free_energy=-42.74563980102539 stress="7.30289684724994e-06 9.839768999597709e-09 -1.7476391889204024e-08 9.839768999597709e-09 7.3155115387635306e-06 1.5133878150663804e-08 -1.7476391889204024e-08 1.5133878150663804e-08 7.300500328710768e-06" pbc="T T T"
In       1.77086664       1.25219150       3.06723034       0.00000027      -0.00000017      -0.00000043
In       5.31259893       3.75657503       9.20169151       0.00000025      -0.00000052      -0.00000059
Os       0.00000002      -0.00000006      -0.00000006       0.00000389      -0.00000213      -0.00000383
F        1.62341655       1.14792852       6.13446102       0.00216700       0.00153229      -0.00000008
F        5.46004933       3.86083785       6.13446110      -0.00216852      -0.00153298       0.00000045
F        4.50089116       1.14792855       4.47315040      -0.00108455       0.00153352       0.00187845
F        2.58257475       3.86083745       7.79577165       0.00108165      -0.00152970      -0.00187370
F        2.58257486       3.86083787       4.47315023       0.00108404      -0.00153333       0.00187778
F        4.50089096       1.14792872       7.79577185      -0.00108404       0.00153301      -0.00187801
