9
Lattice="6.819933701553009 -1.1728816468803672e-07 3.9374906597158184 2.273311110427575 6.429895037146637 3.9374906819605395 -2.1438683732967705e-08 1.208470278261875e-08 7.874981356564453" Properties=species:S:1:pos:R:3:forces:R:3 energy=-21.605981826782227 free_energy=-21.605981826782227 stress="-4.740396252600476e-05 -1.49404275617826e-08 -1.2123938519792432e-09 -1.49404275617826e-08 -4.74115222459659e-05 1.8404512358571878e-09 -1.2123938519792432e-09 1.8404512358571878e-09 -4.7388373786816373e-05" pbc="T T T"
In       2.27331115       1.60747381       3.93749068       0.00000006       0.00000012      -0.00000005
In       6.81993357       4.82242119      11.81247211      -0.00000024       0.00000008       0.00000009
P       -0.00000022      -0.00000027       0.00000011      -0.00000030       0.00000075      -0.00000003
I        2.27599221       1.60936914       7.87498133       0.00244177       0.00172713       0.00000022
I        6.81725313       4.82052579       7.87498140      -0.00244227      -0.00172757       0.00000010
I        5.68193741       1.60936946       5.90855803      -0.00122013       0.00172653       0.00211397
I        3.41130731       4.82052556       9.84140484       0.00122068      -0.00172687      -0.00211435
I        3.41130715       4.82052562       5.90855766       0.00122122      -0.00172649       0.00211441
I        5.68193745       1.60936945       9.84140463      -0.00122087       0.00172640      -0.00211437
