9
Lattice="6.180476731028056 6.396004447083123e-08 3.568300129461629 2.0601589165354177 5.827009817552835 3.56830022318197 -1.345779646801432e-07 1.9622494057163796e-08 7.136600492019192" Properties=species:S:1:pos:R:3:forces:R:3 energy=-28.710697174072266 free_energy=-28.710697174072266 stress="7.42253105272539e-05 -5.7951940135581026e-08 4.920813090336651e-09 -5.7951940135581026e-08 7.426102820318192e-05 -3.873239062812672e-09 4.920813090336651e-09 -3.873239062812672e-09 7.430894766002893e-05" pbc="T T T"
In       2.06015890       1.45675265       3.56830007      -0.00000004       0.00000014       0.00000004
In       6.18047662       4.37025736      10.70490082      -0.00000002       0.00000010       0.00000001
Pt      -0.00000013      -0.00000013       0.00000022       0.00000248       0.00000512      -0.00000428
Cl       1.92433814       1.36071249       7.13660023       0.00205964       0.00145611       0.00000026
Cl       6.31629732       4.46629748       7.13660027      -0.00206287      -0.00145863       0.00000061
Cl       5.21830748       1.36071293       5.23482647      -0.00102797       0.00145381       0.00177898
Cl       3.02232795       4.46629633       9.03837444       0.00102726      -0.00145295      -0.00178000
Cl       3.02232815       4.46629732       5.23482642       0.00102806      -0.00145499       0.00178161
Cl       5.21830754       1.36071318       9.03837437      -0.00102653       0.00145128      -0.00177719
