9
Lattice="5.422134681835963 -5.093111705790037e-07 3.130471012487309 1.8073778432763017 5.112037294142363 3.1304708458971358 -2.885963345294713e-07 -4.0809881249561294e-07 6.2609425248380814" Properties=species:S:1:pos:R:3:forces:R:3 energy=-41.55744934082031 free_energy=-41.55744934082031 stress="-4.274015736882575e-06 -2.9220842634458677e-08 4.3146222594714345e-08 -2.9220842634458677e-08 -4.2661667976062745e-06 -1.8665090806280205e-08 4.3146222594714345e-08 -1.8665090806280205e-08 -4.355647888587555e-06" pbc="T T T"
In       1.80737773       1.27800943       3.13047114       0.00000035      -0.00000046      -0.00000041
In       5.42213446       3.83402762       9.39141316      -0.00000041      -0.00000021       0.00000013
P       -0.00000005      -0.00000017       0.00000006      -0.00000687       0.00000847       0.00001223
F        1.34049730       0.94787455       6.26094281       0.00040916       0.00028922      -0.00000233
F        5.88901515       4.16416158       6.26094173      -0.00041097      -0.00029006       0.00000175
F        4.75188595       0.94787443       4.29137613      -0.00020262       0.00028539       0.00035163
F        2.47762639       4.16416162       8.23050854       0.00020909      -0.00029171      -0.00036588
F        2.47762669       4.16416214       4.29137586       0.00020276      -0.00028738       0.00035633
F        4.75188535       0.94787409       8.23050849      -0.00020029       0.00028676      -0.00035340
