9
Lattice="4.981483830453879 4.721102082522882e-08 2.8760610803806204 1.6604946297856313 4.696588027945798 2.8760611234681326 -2.072900525545411e-08 3.811364930209261e-08 5.752122196664897" Properties=species:S:1:pos:R:3:forces:R:3 energy=-36.51622772216797 free_energy=-36.51622772216797 stress="0.0005960636772215366 2.745625948818997e-08 -2.8466300427965052e-09 2.745625948818997e-08 0.0005960207199677825 1.6141846970185725e-08 -2.8466300427965052e-09 1.6141846970185725e-08 0.0005960161797702312" pbc="T T T"
In       1.66049453       1.17414716       2.87606105       0.00000027      -0.00000037      -0.00000004
In       4.98148396       3.52244103       8.62818301       0.00000017      -0.00000021      -0.00000035
Pd      -0.00000015      -0.00000018       0.00000013      -0.00000150       0.00000362      -0.00000054
F        1.64560320       1.16361745       5.75212229      -0.00647062      -0.00457533       0.00000013
F        4.99637510       3.53297068       5.75212242       0.00647101       0.00457533      -0.00000024
F        4.15868227       1.16361709       4.30119516       0.00323393      -0.00457440      -0.00560207
F        2.48329629       3.53297110       7.20304911      -0.00323392       0.00457272       0.00560112
F        2.48329613       3.53297099       4.30119504      -0.00323286       0.00457231      -0.00559975
F        4.15868247       1.16361710       7.20304941       0.00323354      -0.00457369       0.00560167
