9
Lattice="5.234823465845693 1.4909037356817967e-07 3.022326681013263 1.7449412946725884 4.935438962760847 3.0223266830450877 3.845432710878156e-08 2.9679742655318705e-08 6.04465329542171" Properties=species:S:1:pos:R:3:forces:R:3 energy=-37.46110153198242 free_energy=-37.46110153198242 stress="-1.554579102958087e-05 1.3914497110079083e-08 -1.8465904361164576e-08 1.3914497110079083e-08 -1.556306415295694e-05 5.259148849745543e-08 -1.8465904361164576e-08 5.259148849745543e-08 -1.5569921743008308e-05" pbc="T T T"
In       1.74494075       1.23386030       3.02232696      -0.00000035      -0.00000029      -0.00000044
In       5.23482317       3.70157932       9.06697981       0.00000019       0.00000028       0.00000016
Pt      -0.00000005      -0.00000012      -0.00000003       0.00000439       0.00000061      -0.00001306
F        1.63064729       1.15304159       6.04465341       0.00028184       0.00019927      -0.00000019
F        5.34911793       3.78239726       6.04465350      -0.00028345      -0.00020091       0.00000080
F        4.41950014       1.15304188       4.43450837      -0.00014241       0.00020090       0.00024721
F        2.56026494       3.78239710       7.65479821       0.00013898      -0.00019668      -0.00023961
F        2.56026498       3.78239756       4.43450855       0.00014250      -0.00020313       0.00024915
F        4.41950016       1.15304165       7.65479780      -0.00014172       0.00020006      -0.00024402
