9
Lattice="6.727017015279156 1.637410841183553e-09 3.883845063031834 2.2423390124303437 6.342292448928626 3.8838450529971196 -1.0073020892263076e-08 -1.9412676706950188e-08 7.76769014351072" Properties=species:S:1:pos:R:3:forces:R:3 energy=-22.415264129638672 free_energy=-22.415264129638672 stress="9.852576476987451e-05 8.224604108875155e-09 2.439225044170712e-09 8.224604108875155e-09 9.852731454884633e-05 1.0889805723834911e-09 2.439225044170712e-09 1.0889805723834911e-09 9.85184742603451e-05" pbc="T T T"
In       2.24233894       1.58557302       3.88384504      -0.00000028      -0.00000020       0.00000018
In       6.72701709       4.75671940      11.65153517       0.00000020       0.00000017      -0.00000016
Pd      -0.00000017       0.00000008       0.00000036       0.00000325       0.00000000      -0.00000399
I        2.23462558       1.58011895       7.76769011      -0.00053844      -0.00038058       0.00000034
I        6.73473069       4.76217369       7.76769028       0.00053645       0.00037922       0.00000014
I        5.60970425       1.58011845       5.81908722       0.00026760      -0.00037924      -0.00046378
I        3.35965176       4.76217351       9.71629271      -0.00026924       0.00038100       0.00046644
I        3.35965161       4.76217377       5.81908734      -0.00026865       0.00037991      -0.00046501
I        5.60970432       1.58011888       9.71629280       0.00026906      -0.00038030       0.00046579
