9
Lattice="6.752182628461876 4.861057914125551e-08 3.8983745017379237 2.250727652079667 6.366018591534109 3.8983743918764384 7.924665139740941e-08 -7.85164261871706e-08 7.796748866216654" Properties=species:S:1:pos:R:3:forces:R:3 energy=-23.352304458618164 free_energy=-23.352304458618164 stress="-2.2158612864586757e-06 2.27307488387396e-08 1.237681068744223e-08 2.27307488387396e-08 -2.227054892500746e-06 -5.126088442608534e-09 1.237681068744223e-08 -5.126088442608534e-09 -2.2480051029560855e-06" pbc="T T T"
In       2.25072750       1.59150477       3.89837465      -0.00000027       0.00000047      -0.00000008
In       6.75218273       4.77451406      11.69512337       0.00000014      -0.00000031       0.00000023
Pt       0.00000021      -0.00000027       0.00000032      -0.00000167       0.00000281      -0.00000238
I        2.22021877       1.56993147       7.79674889      -0.00202645      -0.00143272      -0.00000003
I        6.78269152       4.79608702       7.79674874       0.00202679       0.00143328      -0.00000003
I        5.64207354       1.56993138       5.82114002       0.00101179      -0.00143138      -0.00175332
I        3.36083685       4.79608729       9.77235764      -0.00101180       0.00143074       0.00175278
I        3.36083689       4.79608713       5.82114004      -0.00101209       0.00143076      -0.00175260
I        5.64207342       1.56993142       9.77235745       0.00101350      -0.00143361       0.00175536
