9
Lattice="6.32113328207033 -9.509067327789933e-08 3.64950808226536 2.1070443614591357 5.959621627447407 3.649508041120899 2.6581828316183536e-08 -3.159522413873694e-08 7.299016118489629" Properties=species:S:1:pos:R:3:forces:R:3 energy=-26.864294052124023 free_energy=-26.864294052124023 stress="0.0002949440386146307 -1.5940649689127895e-08 5.347613019068831e-09 -1.5940649689127895e-08 0.0002949625195469707 -4.667751962728062e-09 5.347613019068831e-09 -4.667751962728062e-09 0.0002949880436062813" pbc="T T T"
In       2.10704431       1.48990560       3.64950802      -0.00000010      -0.00000023       0.00000022
In       6.32113320       4.46971600      10.94852410      -0.00000019       0.00000048       0.00000013
Pb       0.00000028       0.00000006       0.00000009      -0.00000646      -0.00000102       0.00000116
Cl       2.11559025       1.49594786       7.29901621       0.00414820       0.00293301       0.00000032
Cl       6.31258745       4.46367359       7.29901619      -0.00414525      -0.00293223      -0.00000003
Cl       5.26333801       1.49594809       5.48166304      -0.00207144       0.00293205       0.00358977
Cl       3.16483965       4.46367337       9.11636926       0.00207391      -0.00293323      -0.00359125
Cl       3.16483960       4.46367332       5.48166303       0.00207308      -0.00293093       0.00358945
Cl       5.26333791       1.49594811       9.11636910      -0.00207176       0.00293214      -0.00358981
