9
Lattice="6.140392770392972 1.783538388160961e-07 3.5451579893773046 2.046797757029558 5.789218287451031 3.545157991551159 1.2899427940410754e-07 9.387510293421749e-08 7.090315755329854" Properties=species:S:1:pos:R:3:forces:R:3 energy=-27.389894485473633 free_energy=-27.389894485473633 stress="-1.1600057405303232e-05 4.151264221263773e-08 -1.308056951643266e-08 4.151264221263773e-08 -1.1599591744015925e-05 2.7499662991203877e-08 -1.308056951643266e-08 2.7499662991203877e-08 -1.1649342013697606e-05" pbc="T T T"
In       2.04679766       1.44730441       3.54515792       0.00000001      -0.00000012      -0.00000013
In       6.14039314       4.34191324      10.63547386       0.00000018      -0.00000172       0.00000059
Pd      -0.00000009      -0.00000076       0.00000039      -0.00000256       0.00001700       0.00000067
Cl       1.93235992       1.36638516       7.09031578       0.00245084       0.00173058       0.00000015
Cl       6.25483093       4.42283336       7.09031583      -0.00245415      -0.00173432       0.00000033
Cl       5.17421321       1.36638607       5.21863037      -0.00122605       0.00173151       0.00212386
Cl       3.01297719       4.42283349       8.96200109       0.00122947      -0.00173801      -0.00212866
Cl       3.01297703       4.42283371       5.21863010       0.00123028      -0.00173929       0.00213063
Cl       5.17421368       1.36638554       8.96200179      -0.00122814       0.00173444      -0.00212754
