9
Lattice="6.415662883841901 -1.4759336484861493e-07 3.7040842003350885 2.138553902048392 6.048745689081481 3.7040846392594102 -6.751467234030994e-07 6.016968004654961e-08 7.4081695700585" Properties=species:S:1:pos:R:3:forces:R:3 energy=-27.217994689941406 free_energy=-27.217994689941406 stress="-4.4561311369761825e-05 -7.672147717130429e-08 -3.018345795524624e-09 -7.672147717130429e-08 -4.452225402928889e-05 1.3235133877742555e-08 -3.018345795524624e-09 1.3235133877742555e-08 -4.443504803930409e-05" pbc="T T T"
In       2.13855676       1.51218891       3.70408402      -0.00000033      -0.00000011       0.00000043
In       6.41566184       4.53655723      11.11225418      -0.00000006       0.00000012       0.00000017
P       -0.00000086      -0.00000008       0.00000161       0.00001151       0.00000131      -0.00003415
Cl       1.83371021       1.29662930       7.40816876       0.00455645       0.00322357       0.00000442
Cl       6.72050525       4.75211638       7.40816884      -0.00456072      -0.00322448       0.00000488
Cl       5.49880694       1.29662930       5.29212507      -0.00227727       0.00321922       0.00394418
Cl       3.05540904       4.75211532       9.52421303       0.00227084      -0.00321370      -0.00393181
Cl       3.05540967       4.75211645       5.29212506       0.00227457      -0.00322087       0.00394546
Cl       5.49880567       1.29662978       9.52421316      -0.00227484       0.00321502      -0.00393364
