9
Lattice="6.725344854493621 6.118743143709266e-08 3.8828795683038355 2.241781609760566 6.34071593544448 3.8828796827785745 -9.825089556611737e-08 7.072849445830471e-08 7.76575930678322" Properties=species:S:1:pos:R:3:forces:R:3 energy=-22.415239334106445 free_energy=-22.415239334106445 stress="0.0001008993131108582 -5.3254121112900066e-09 -8.55175485980908e-09 -5.3254121112900066e-09 0.00010090578143717721 1.1535594701683749e-08 -8.55175485980908e-09 1.1535594701683749e-08 0.00010091612057294697" pbc="T T T"
In       2.24178139       1.58517906       3.88287950      -0.00000034       0.00000001       0.00000039
In       6.72534478       4.75553707      11.64863859       0.00000012       0.00000021      -0.00000008
Pd      -0.00000027       0.00000070       0.00000186       0.00000342      -0.00000875      -0.00002125
I        2.23552296       1.58075353       7.76575941      -0.00685170      -0.00484537      -0.00000011
I        6.73160320       4.75996238       7.76575948       0.00685413       0.00484668      -0.00000021
I        5.60758388       1.58075323       5.81889877       0.00342284      -0.00484016      -0.00592833
I        3.35954355       4.75996162       9.71261834      -0.00343171       0.00485274       0.00594393
I        3.35954247       4.75996267       5.81889936      -0.00342464       0.00484282      -0.00593214
I        5.60758350       1.58075400       9.71261894       0.00342788      -0.00484821       0.00593780
