9
Lattice="6.420286247277402 -7.674347582003977e-08 3.70675403545798 2.140095315158919 6.053104114635753 3.7067540843810187 9.779477848177574e-09 6.683339758098052e-08 7.413508053977443" Properties=species:S:1:pos:R:3:forces:R:3 energy=-25.96832275390625 free_energy=-25.96832275390625 stress="0.0002102953294524923 -3.8064190022168987e-08 -5.7807243436514e-09 -3.8064190022168987e-08 0.00021031529468018562 1.1998689153358555e-08 -5.7807243436514e-09 1.1998689153358555e-08 0.00021035721874795854" pbc="T T T"
In       2.14009520       1.51327587       3.70675406       0.00000001      -0.00000005      -0.00000008
In       6.42028637       4.53982821      11.12026214       0.00000008      -0.00000003       0.00000004
Pt      -0.00000014      -0.00000014       0.00000014       0.00000538       0.00000509      -0.00000145
Br       2.04056121       1.44289470       7.41350818       0.00249033       0.00176177      -0.00000058
Br       6.51982071       4.61020958       7.41350813      -0.00249637      -0.00176546      -0.00000013
Br       5.40000541       1.44289465       5.47393207      -0.00124482       0.00176043       0.00215516
Br       3.16037615       4.61020927       9.35308400       0.00124452      -0.00176027      -0.00215503
Br       3.16037598       4.61020954       5.47393193       0.00124543      -0.00176231       0.00215738
Br       5.40000543       1.44289476       9.35308404      -0.00124454       0.00176073      -0.00215523
