9
Lattice="6.415903717557659 -1.1140038320326038e-07 3.704223811205166 2.1386344275785034 6.0489720121195925 3.704223880333595 -4.6798223483111126e-08 5.157337904951619e-08 7.408447703467159" Properties=species:S:1:pos:R:3:forces:R:3 energy=-25.96841049194336 free_energy=-25.96841049194336 stress="8.98121579666622e-05 -5.1291113578599834e-08 -9.431748715371668e-09 -5.1291113578599834e-08 8.985080785350874e-05 7.413209157647316e-09 -9.431748715371668e-09 7.413209157647316e-09 8.989770140033215e-05" pbc="T T T"
In       2.13863464       1.51224313       3.70422383       0.00000012       0.00000020       0.00000029
In       6.41590345       4.53672877      11.11267144       0.00000000      -0.00000009      -0.00000001
Pt      -0.00000037       0.00000055       0.00000290       0.00000822      -0.00000786      -0.00005216
Br       2.04097648       1.44318825       7.40844764      -0.00259766      -0.00183559       0.00000159
Br       6.51356196       4.60578383       7.40844768       0.00259477       0.00183512       0.00000107
Br       5.39541550       1.44318781       5.47176107       0.00129349      -0.00182841      -0.00223944
Br       3.15912343       4.60578280       9.34513277      -0.00130881       0.00185049       0.00226792
Br       3.15912245       4.60578394       5.47176104      -0.00129546       0.00183204      -0.00224248
Br       5.39541489       1.44318871       9.34513319       0.00130535      -0.00184592       0.00226327
