9
Lattice="7.078044976371714 -8.409236648198005e-08 4.086511259503658 2.3593482752856545 6.673244708958643 4.086511209081211 6.451192878559396e-08 -1.613785050559762e-08 8.173022407269409" Properties=species:S:1:pos:R:3:forces:R:3 energy=-21.228132247924805 free_energy=-21.228132247924805 stress="6.26813925919123e-05 -7.56673657065221e-09 5.848730944002511e-10 -7.56673657065221e-09 6.269347068155184e-05 2.697784440286455e-09 5.848730944002511e-10 2.697784440286455e-09 6.270190351642668e-05" pbc="T T T"
In       2.35934836       1.66831118       4.08651127       0.00000016       0.00000031      -0.00000055
In       7.07804500       5.00493355      12.25953344       0.00000015      -0.00000028      -0.00000043
Pb       0.00000043       0.00000013       0.00000154      -0.00000184       0.00000042      -0.00000665
I        2.54764546       1.80145718       8.17302240      -0.00224973      -0.00159217       0.00000015
I        6.88974760       4.87178708       8.17302250       0.00225076       0.00159322       0.00000044
I        5.80422214       1.80145722       6.29283686       0.00112329      -0.00159128      -0.00194895
I        3.63317148       4.87178694      10.05320736      -0.00112407       0.00159244       0.00195211
I        3.63317102       4.87178753       6.29283684      -0.00112332       0.00159016      -0.00194845
I        5.80422182       1.80145762      10.05320728       0.00112457      -0.00159281       0.00195231
