9
Lattice="6.140676746555206 -1.778473368563596e-08 3.5453212360306154 2.0468922445918682 5.789485316675094 3.545321214366555 3.433311176811826e-08 -2.2557785069737895e-09 7.090642412594542" Properties=species:S:1:pos:R:3:forces:R:3 energy=-27.389894485473633 free_energy=-27.389894485473633 stress="2.3869721189839765e-05 1.306776131748677e-09 1.1554284640169499e-08 1.306776131748677e-09 2.3846723706810735e-05 -1.2339604893440992e-08 1.1554284640169499e-08 -1.2339604893440992e-08 2.38234679272864e-05" pbc="T T T"
In       2.04689221       1.44737139       3.54532122       0.00000051       0.00000009      -0.00000005
In       6.14067659       4.34211457      10.63596357      -0.00000071       0.00000072      -0.00000045
Pd       0.00000020      -0.00000023      -0.00000005      -0.00000003       0.00000070       0.00000282
Cl       1.93245820       1.36645373       7.09064234       0.00150980       0.00106859      -0.00000021
Cl       6.25511083       4.42303160       7.09064239      -0.00151058      -0.00106867       0.00000010
Cl       5.17444787       1.36645361       5.21887862      -0.00075543       0.00106861       0.00130862
Cl       3.01312131       4.42303144       8.96240672       0.00075593      -0.00106990      -0.00131167
Cl       3.01312127       4.42303151       5.21887840       0.00075498      -0.00106834       0.00130928
Cl       5.17444757       1.36645358       8.96240623      -0.00075439       0.00106817      -0.00130844
