9
Lattice="6.177583563524414 1.2797522548984992e-08 3.566629557632471 2.059194535162935 5.824281601286683 3.566629554302556 -1.616827441093446e-08 -1.5510929749228024e-08 7.133259143269252" Properties=species:S:1:pos:R:3:forces:R:3 energy=-28.71071434020996 free_energy=-28.71071434020996 stress="-4.112377155252034e-06 1.9122330385812347e-09 2.0152512547610968e-08 1.9122330385812347e-09 -4.1178818719345145e-06 -5.738385766562715e-09 2.0152512547610968e-08 -5.738385766562715e-09 -4.093531515536597e-06" pbc="T T T"
In       2.05919467       1.45607001       3.56662970       0.00000006      -0.00000001      -0.00000039
In       6.17758397       4.36821187      10.69988881       0.00000032       0.00000042       0.00000029
Pt      -0.00000066       0.00000098      -0.00000101       0.00001155      -0.00002770       0.00001582
Cl       1.92453512       1.36085201       7.13326008      -0.00108419      -0.00076582      -0.00000315
Cl       6.31224273       4.46342929       7.13325993       0.00108754       0.00077060      -0.00000142
Cl       5.21531606       1.36085191       5.23332581       0.00053983      -0.00076431      -0.00093888
Cl       3.02146165       4.46342960       9.03319132      -0.00054430       0.00077109       0.00094409
Cl       3.02146236       4.46342918       5.23332644      -0.00054906       0.00077605      -0.00095094
Cl       5.21531640       1.36085146       9.03319183       0.00053826      -0.00076031       0.00093460
