9
Lattice="6.589428244113124 -9.934694217157761e-08 3.80440839809379 2.1964760027567936 6.2125726629366405 3.8044083720247244 1.7169626795867387e-08 -1.9787158963733684e-08 7.608816766448893" Properties=species:S:1:pos:R:3:forces:R:3 energy=-23.909643173217773 free_energy=-23.909643173217773 stress="0.00015903785242699087 -1.6033268934734224e-08 8.941097640047246e-09 -1.6033268934734224e-08 0.00015901356528047472 6.228196847146705e-10 8.941097640047246e-09 6.228196847146705e-10 0.00015905547479633242" pbc="T T T"
In       2.19647616       1.55314306       3.80440834       0.00000023      -0.00000027       0.00000021
In       6.58942825       4.65942948      11.41322499       0.00000017       0.00000056       0.00000005
Pb      -0.00000070      -0.00000091       0.00000041       0.00000507       0.00000770      -0.00000313
Br       2.30368845       1.62895370       7.60881670      -0.00079607      -0.00056297       0.00000099
Br       6.48221682       4.58361952       7.60881692       0.00078814       0.00055815       0.00000005
Br       5.43758380       1.62895372       5.79946133       0.00039779      -0.00056283      -0.00068744
Br       3.34832036       4.58361890       9.41817221      -0.00039684       0.00056157       0.00068807
Br       3.34832021       4.58361883       5.79946133      -0.00039690       0.00056203      -0.00068846
Br       5.43758372       1.62895390       9.41817193       0.00039840      -0.00056390       0.00068976
