9
Lattice="6.397730079309571 -3.5771985284599968e-09 3.6937313212740928 2.1325766660553183 6.031837963572409 3.693731362280882 -5.904834179468619e-08 8.469380513454644e-09 7.38746274482295" Properties=species:S:1:pos:R:3:forces:R:3 energy=-24.90523910522461 free_energy=-24.90523910522461 stress="2.6875646653934382e-05 1.7186605916208464e-08 2.5041646534162965e-09 1.7186605916208464e-08 2.6868574423133396e-05 -2.070015492350308e-09 2.5041646534162965e-09 -2.070015492350308e-09 2.686513471417129e-05" pbc="T T T"
In       2.13257662       1.50795967       3.69373127       0.00000024       0.00000013      -0.00000019
In       6.39773012       4.52387857      11.08119436       0.00000008       0.00000008      -0.00000001
Pd       0.00000004      -0.00000017      -0.00000081       0.00000086       0.00000095       0.00001738
Br       2.05673993       1.45433509       7.38746292       0.00147957       0.00104599      -0.00000082
Br       6.47356675       4.57750299       7.38746284      -0.00148102      -0.00104709      -0.00000051
Br       5.36936001       1.45433477       5.47492086      -0.00073928       0.00104539       0.00127925
Br       3.16094620       4.57750334       9.30000481       0.00074348      -0.00105080      -0.00128718
Br       3.16094667       4.57750313       5.47492083       0.00073926      -0.00104566       0.00127916
Br       5.36936035       1.45433456       9.30000454      -0.00074323       0.00105095      -0.00128702
