9
Lattice="5.234638424896232 -1.910617267345685e-07 3.022220010773872 1.7448793384734016 4.935264331629589 3.022219935182533 -9.370830307598064e-08 -1.5884191688035276e-07 6.04444018385528" Properties=species:S:1:pos:R:3:forces:R:3 energy=-37.46110153198242 free_energy=-37.46110153198242 stress="-5.947872705291957e-05 -3.608754539641268e-08 -1.4055420827219223e-08 -3.608754539641268e-08 -5.946392411715351e-05 2.0263238198481304e-08 -1.4055420827219223e-08 2.0263238198481304e-08 -5.943116411799565e-05" pbc="T T T"
In       1.74487963       1.23381619       3.02222005       0.00000009       0.00000003       0.00000006
In       5.23463817       3.70144792       9.06665996      -0.00000006       0.00000025       0.00000012
Pt      -0.00000024       0.00000038       0.00000012       0.00000909      -0.00001815       0.00000124
F        1.63059790       1.15300684       6.04443997       0.00117472       0.00083196       0.00000057
F        5.34891958       3.78225703       6.04443986      -0.00117400      -0.00082897       0.00000085
F        4.41933919       1.15300677       4.43435950      -0.00058824       0.00083189       0.00101694
F        2.56017848       3.78225714       7.65452075       0.00058383      -0.00082564      -0.00101194
F        2.56017862       3.78225716       4.43435949       0.00058408      -0.00082560       0.00101185
F        4.41933914       1.15300646       7.65452063      -0.00058953       0.00083424      -0.00101972
