9
Lattice="6.398240019044683 -3.6707883066936586e-08 3.6940254881290775 2.132746650632312 6.032318448876866 3.694025466953102 -7.160246460638062e-09 -3.0998201167719775e-08 7.388050988660061" Properties=species:S:1:pos:R:3:forces:R:3 energy=-24.90523338317871 free_energy=-24.90523338317871 stress="0.00012192599388072267 5.085056375975228e-09 -6.265325147580825e-09 5.085056375975228e-09 0.0001219170808326453 4.2476879791308875e-09 -6.265325147580825e-09 4.2476879791308875e-09 0.00012190706183901057" pbc="T T T"
In       2.13274672       1.50807960       3.69402546      -0.00000001       0.00000004      -0.00000016
In       6.39823987       4.52423889      11.08207635       0.00000014       0.00000006       0.00000004
Pd      -0.00000002      -0.00000006       0.00000033      -0.00000120      -0.00000101      -0.00001257
Br       2.05705101       1.45455455       7.38805086      -0.00174329      -0.00123250      -0.00000016
Br       6.47393574       4.57776380       7.38805093       0.00174449       0.00123306       0.00000030
Br       5.36971461       1.45455451       5.47548335       0.00086993      -0.00123004      -0.00150611
Br       3.16127220       4.57776379       9.30061853      -0.00087329       0.00123540       0.00151264
Br       3.16127205       4.57776387       5.47548343      -0.00087013       0.00122990      -0.00150608
Br       5.36971447       1.45455457       9.30061851       0.00087341      -0.00123496       0.00151224
