9
Lattice="5.279303833132472 5.805831852388022e-08 3.048007375003073 1.759767977871868 4.9773754372113395 3.0480074117978107 2.9844433948111965e-08 6.616737996542552e-08 6.096014698314051" Properties=species:S:1:pos:R:3:forces:R:3 energy=-37.650814056396484 free_energy=-37.650814056396484 stress="6.4593150455039e-05 2.5262455238816983e-08 -5.844704720203708e-09 2.5262455238816983e-08 6.45940235699527e-05 3.253885383358579e-09 -5.844704720203708e-09 3.253885383358579e-09 6.456821574829519e-05" pbc="T T T"
In       1.75976849       1.24434376       3.04800735       0.00000042       0.00000024      -0.00000057
In       5.27930351       3.73303179       9.14402244       0.00000021      -0.00000009       0.00000021
Pb      -0.00000001      -0.00000001       0.00000009      -0.00000138       0.00000513      -0.00000634
F        1.73278557       1.22526426       6.09601476       0.00274222       0.00193861      -0.00000037
F        5.30628671       3.75211152       6.09601482      -0.00274449      -0.00194026       0.00000025
F        4.41291123       1.22526406       4.54864321      -0.00137308       0.00194129       0.00237755
F        2.62616047       3.75211109       7.64338595       0.00137236      -0.00194014      -0.00237650
F        2.62616045       3.75211136       4.54864329       0.00137430      -0.00194347       0.00237995
F        4.41291091       1.22526428       7.64338606      -0.00137046       0.00193862      -0.00237401
