9
Lattice="5.33709324902669 -3.6046207033332534e-08 3.0813720587972617 1.7790310873215145 5.031859504900274 3.0813719924643888 2.0831898323726435e-08 -6.651049715069623e-08 6.162744081512598" Properties=species:S:1:pos:R:3:forces:R:3 energy=-46.013458251953125 free_energy=-46.013458251953125 stress="-9.584018698660657e-05 -3.788415359196051e-09 3.664934133951192e-09 -3.788415359196051e-09 -9.580922778695822e-05 -2.5089068600436804e-08 3.664934133951192e-09 -2.5089068600436804e-08 -9.583046630723402e-05" pbc="T T T"
In       1.77903145       1.25796507       3.08137184       0.00000059      -0.00000058       0.00000072
In       5.33709312       3.77389447       9.24411670      -0.00000025       0.00000022      -0.00000027
Re       0.00000012      -0.00000003      -0.00000008       0.00000078       0.00000448       0.00000250
F        1.60825053       1.13720489       6.16274410       0.00165445       0.00117008       0.00000007
F        5.50787390       3.89465453       6.16274401      -0.00165732      -0.00117192      -0.00000028
F        4.53296789       1.13720481       4.47415787      -0.00082698       0.00116975       0.00143246
F        2.58315626       3.89465464       7.85133016       0.00082838      -0.00117181      -0.00143550
F        2.58315646       3.89465450       4.47415778       0.00082731      -0.00116971       0.00143267
F        4.53296787       1.13720483       7.85133010      -0.00082704       0.00116953      -0.00143255
