9
Lattice="5.066932003381043 -3.368403835282543e-09 2.925394591618325 1.6889773098858498 4.777149628425288 2.925394628682032 -3.032400292422779e-08 2.395123274262951e-08 5.85078923575941" Properties=species:S:1:pos:R:3:forces:R:3 energy=-39.71260452270508 free_energy=-39.71260452270508 stress="0.00032641657162457705 -4.227705829862316e-08 -1.5065841907357935e-08 -4.227705829862316e-08 0.00032648330670781434 -5.952210280213421e-09 -1.5065841907357935e-08 -5.952210280213421e-09 0.0003264939587097615" pbc="T T T"
In       1.68897760       1.19428711       2.92539440       0.00000048       0.00000015       0.00000001
In       5.06693191       3.58286227       8.77618375       0.00000038      -0.00000023      -0.00000049
Rh       0.00000004       0.00000014       0.00000006       0.00000013      -0.00000244       0.00000003
F        1.62232824       1.14715949       5.85078929      -0.00099710      -0.00070572       0.00000031
F        5.13358135       3.62999054       5.85078945       0.00099580       0.00070548      -0.00000085
F        4.25576764       1.14715940       4.33037222       0.00050069      -0.00070714      -0.00086651
F        2.50014135       3.62999004       7.37120619      -0.00050075       0.00070852       0.00086745
F        2.50014145       3.62999005       4.33037236      -0.00049940       0.00070909      -0.00086697
F        4.25576761       1.14715956       7.37120605       0.00049974      -0.00070772       0.00086703
