9
Lattice="5.227990451279998 5.444222546850288e-08 3.0183816351599337 1.742663514977029 4.928996787890141 3.018381669994234 4.344875771405444e-08 7.33860378161615e-08 6.036763195064403" Properties=species:S:1:pos:R:3:forces:R:3 energy=-41.692413330078125 free_energy=-41.692413330078125 stress="-1.543071266496554e-05 -7.40715444536022e-09 -1.0269057604261889e-08 -7.40715444536022e-09 -1.5437619367730804e-05 9.761705221933425e-09 -1.0269057604261889e-08 9.761705221933425e-09 -1.5430381608894095e-05" pbc="T T T"
In       1.74266361       1.23224953       3.01838161       0.00000017      -0.00000031       0.00000014
In       5.22799057       3.69674737       9.05514491      -0.00000011       0.00000017       0.00000005
Ru      -0.00000010      -0.00000011       0.00000010       0.00000037       0.00000353      -0.00000369
F        1.61542479       1.14227796       6.03676304       0.00041147       0.00029119       0.00000044
F        5.35522919       3.78671893       6.03676308      -0.00041269      -0.00029219      -0.00000010
F        4.42027813       1.14227789       4.41738046      -0.00020549       0.00029063       0.00035691
F        2.55037589       3.78671897       7.65614621       0.00020532      -0.00029103      -0.00035546
F        2.55037587       3.78671903       4.41738022       0.00020661      -0.00029252       0.00035799
F        4.42027809       1.14227804       7.65614643      -0.00020565       0.00029053      -0.00035633
