9
Lattice="6.41334447289753 -3.6641117347506514e-08 3.7027460590320467 2.1377814803816815 6.046559052951595 3.702746017529562 -8.797588352135869e-09 -5.705072229931984e-08 7.405492133301869" Properties=species:S:1:pos:R:3:forces:R:3 energy=-27.495624542236328 free_energy=-27.495624542236328 stress="-1.2930196135130245e-05 -1.1760082685441375e-08 -2.0531183420047228e-09 -1.1760082685441375e-08 -1.2943806723342277e-05 -1.7778393202050324e-09 -2.0531183420047228e-09 -1.7778393202050324e-09 -1.2937915926158894e-05" pbc="T T T"
In       2.13778163       1.51163971       3.70274589      -0.00000003      -0.00000002       0.00000005
In       6.41334436       4.53491914      11.10823835       0.00000012      -0.00000007      -0.00000009
Rh       0.00000002      -0.00000033      -0.00000026       0.00000208       0.00000633       0.00000448
Br       2.04373986       1.44514221       7.40549210      -0.00096439      -0.00068220      -0.00000014
Br       6.50738636       4.60141686       7.40549210       0.00096034       0.00067815      -0.00000031
Br       5.39147444       1.44514244       5.47267646       0.00048319      -0.00068262      -0.00083471
Br       3.15965121       4.60141678       9.33830810      -0.00048091       0.00067991       0.00083174
Br       3.15965130       4.60141679       5.47267615      -0.00048205       0.00068137      -0.00083338
Br       5.39147456       1.44514223       9.33830794       0.00048165      -0.00068075       0.00083242
