9
Lattice="6.856882906733018 6.501823092454503e-08 3.958823117737855 2.285627650488923 6.464731214789522 3.9588231980852986 5.987923325129054e-09 1.0263918997295013e-07 7.917646225104275" Properties=species:S:1:pos:R:3:forces:R:3 energy=-28.686540603637695 free_energy=-28.686540603637695 stress="5.625791527563706e-05 -5.460952134939134e-09 7.400183243966296e-10 -5.460952134939134e-09 5.626199344987981e-05 2.9224618280920822e-09 7.400183243966296e-10 2.9224618280920822e-09 5.626518759527244e-05" pbc="T T T"
In       2.28562753       1.61618295       3.95882312       0.00000011      -0.00000016      -0.00000010
In       6.85688293       4.84854848      11.87646949       0.00000003      -0.00000007       0.00000014
Re      -0.00000023      -0.00000009      -0.00000008       0.00000150       0.00000151      -0.00000068
I        2.22692575       1.57467445       7.91764624      -0.00461442      -0.00326272      -0.00000054
I        6.91558484       4.89005694       7.91764619       0.00461236       0.00326148       0.00000004
I        5.74341995       1.57467468       5.88739752       0.00230718      -0.00326253      -0.00399575
I        3.39909061       4.89005692       9.94789517      -0.00230709       0.00326279       0.00399618
I        3.39909073       4.89005688       5.88739724      -0.00230696       0.00326244      -0.00399552
I        5.74342016       1.57467434       9.94789534       0.00230729      -0.00326278       0.00399619
