9
Lattice="6.429332501496985 2.005556528442752e-08 3.7119769752253524 2.143110808742104 6.061632904049758 3.7119770514334443 -3.353552744680321e-08 6.962228595778621e-08 7.423954008535921" Properties=species:S:1:pos:R:3:forces:R:3 energy=-29.037349700927734 free_energy=-29.037349700927734 stress="-1.5263700333889574e-05 -3.139851401101623e-08 -1.4054678310060353e-08 -3.139851401101623e-08 -1.5254020581778605e-05 1.9992546285152457e-08 -1.4054678310060353e-08 1.9992546285152457e-08 -1.5225726201606449e-05" pbc="T T T"
In       2.14311086       1.51540831       3.71197702      -0.00000025      -0.00000009       0.00000020
In       6.42933245       4.54622474      11.13593095       0.00000014      -0.00000004       0.00000017
Ru       0.00000009       0.00000039       0.00000087      -0.00000127      -0.00000634      -0.00001028
Br       2.04452138       1.44569527       7.42395401      -0.00174451      -0.00123406      -0.00000031
Br       6.52792132       4.61593750       7.42395384       0.00174974       0.00123681       0.00000003
Br       5.40707164       1.44569538       5.48258514       0.00087359      -0.00123592      -0.00151273
Br       3.16537188       4.61593727       9.36532240      -0.00087838       0.00124193       0.00152134
Br       3.16537178       4.61593766       5.48258519      -0.00087414       0.00123550      -0.00151369
Br       5.40707173       1.44569541       9.36532283       0.00087506      -0.00123777       0.00151519
