9
Lattice="6.152333639690173 -1.8343505970227957e-07 3.5520516818643313 2.050777757910994 5.800475432280996 3.552051593601561 6.458766285115649e-08 -6.24289776125121e-08 7.104103251859611" Properties=species:S:1:pos:R:3:forces:R:3 energy=-30.187379837036133 free_energy=-30.187379837036133 stress="2.4202410713769495e-05 -4.655201735204173e-08 8.797334416499325e-09 -4.655201735204173e-08 2.423092519165948e-05 -6.209898567588468e-11 8.797334416499325e-09 -6.209898567588468e-11 2.4283879611175507e-05" pbc="T T T"
In       2.05077789       1.45011892       3.55205158       0.00000002      -0.00000005      -0.00000032
In       6.15233364       4.35035677      10.65615487      -0.00000004       0.00000029       0.00000008
Rh      -0.00000064      -0.00000111       0.00000074       0.00000962       0.00001474      -0.00001652
Cl       1.92861186       1.36373414       7.10410334       0.00083719       0.00059232       0.00000014
Cl       6.27450027       4.43674155       7.10410322      -0.00084883      -0.00060098       0.00000056
Cl       5.18802769       1.36373384       5.22227887      -0.00042190       0.00059551       0.00072919
Cl       3.01508411       4.43674081       8.98592778       0.00041831      -0.00059226      -0.00072367
Cl       3.01508378       4.43674135       5.22227848       0.00042219      -0.00059865       0.00073117
Cl       5.18802732       1.36373446       8.98592715      -0.00041655       0.00058915      -0.00072099
