9
Lattice="6.175344507588115 2.3553953528058844e-08 3.5653367175869612 2.0584481935552637 5.82217078995535 3.565336713858852 5.4076890950302496e-08 3.3672188144744715e-08 7.130673341509963" Properties=species:S:1:pos:R:3:forces:R:3 energy=-31.874155044555664 free_energy=-31.874155044555664 stress="-8.531743515050039e-05 -2.5760620303572068e-08 1.018955586573611e-08 -2.5760620303572068e-08 -8.531278581358492e-05 -1.6527291535339828e-08 1.018955586573611e-08 -1.6527291535339828e-08 -8.530246850568801e-05" pbc="T T T"
In       2.05844847       1.45554281       3.56533669      -0.00000032      -0.00000005       0.00000004
In       6.17534472       4.36662811      10.69600985      -0.00000036       0.00000005      -0.00000020
Ru      -0.00000130      -0.00000043       0.00000004       0.00001963       0.00000569      -0.00000033
Cl       1.92429203       1.36067986       7.13067326       0.00542423       0.00383507       0.00000031
Cl       6.30950125       4.46149138       7.13067334      -0.00543875      -0.00384599       0.00000030
Cl       5.21319866       1.36067989       5.23182196      -0.00271526       0.00383992       0.00470442
Cl       3.02059408       4.46149111       9.02952469       0.00271389      -0.00383829      -0.00470075
Cl       3.02059440       4.46149084       5.23182261       0.00271234      -0.00383656       0.00469950
Cl       5.21319877       1.36067964       9.02952455      -0.00271532       0.00384024      -0.00470340
