9
Lattice="6.160269284731067 -6.47178468590949e-08 3.5566332474547635 2.0534230322157083 5.807957930354366 3.556633250361238 2.0595074662974985e-08 1.812256903162296e-08 7.113266459237856" Properties=species:S:1:pos:R:3:forces:R:3 energy=-35.42414474487305 free_energy=-35.42414474487305 stress="4.661794446292333e-05 -3.1561970814664164e-08 3.386412261718874e-09 -3.1561970814664164e-08 4.667477696784772e-05 -8.885787661228051e-10 3.386412261718874e-09 -8.885787661228051e-10 4.66683559352532e-05" pbc="T T T"
In       2.05342317       1.45198923       3.55663318       0.00000001       0.00000012      -0.00000015
In       6.16026922       4.35596859      10.66989963      -0.00000005      -0.00000005      -0.00000012
Re       0.00000061       0.00000034       0.00000015      -0.00001043      -0.00000508      -0.00000349
Cl       1.93560113       1.36867652       7.11326671       0.00206146       0.00145817      -0.00000057
Cl       6.27809076       4.43928070       7.11326679      -0.00205418      -0.00144994      -0.00000109
Cl       5.19246852       1.36867700       5.23291328      -0.00102715       0.00145248       0.00177777
Cl       3.02122385       4.43928064       8.99361969       0.00102668      -0.00145113      -0.00177932
Cl       3.02122360       4.43928087       5.23291312       0.00102878      -0.00145349       0.00178152
Cl       5.19246848       1.36867747       8.99361934      -0.00102526       0.00144878      -0.00177446
