9
Lattice="6.2230499962535655 -4.650467422705153e-08 3.592879805134688 2.074350027225872 5.867147530642633 3.592879679873293 3.8508887618439046e-07 1.188857256505724e-07 7.1857589432758004" Properties=species:S:1:pos:R:3:forces:R:3 energy=-24.306316375732422 free_energy=-24.306316375732422 stress="7.81679482315667e-05 2.52397196476295e-08 -5.418278714586222e-09 2.52397196476295e-08 7.817856385372579e-05 8.707899401549923e-10 -5.418278714586222e-09 8.707899401549923e-10 7.814342097844929e-05" pbc="T T T"
In       2.07435028       1.46678715       3.59287928       0.00000010       0.00000028       0.00000015
In       6.22305045       4.40036124      10.77863867       0.00000016      -0.00000018      -0.00000023
S       -0.00000065       0.00000008      -0.00000088       0.00000175      -0.00000217       0.00001063
Cl       1.94357403       1.37431486       7.18575894      -0.00395976      -0.00280099      -0.00000186
Cl       6.35382594       4.49283306       7.18575932       0.00396062       0.00280111      -0.00000183
Cl       5.25126361       1.37431413       5.27606415       0.00197738      -0.00279807      -0.00342903
Cl       3.04613738       4.49283257       9.09545526      -0.00197928       0.00279902       0.00342545
Cl       3.04613647       4.49283331       5.27606406      -0.00197873       0.00279868      -0.00342853
Cl       5.25126405       1.37431394       9.09545506       0.00197773      -0.00279766       0.00342511
