9
Lattice="6.456560014435471 4.3851450111349255e-08 3.7276967338819986 2.1521867175396836 6.0873031222711065 3.7276967257107825 3.371729023035626e-08 1.383405737448945e-08 7.455393409363941" Properties=species:S:1:pos:R:3:forces:R:3 energy=-21.45212745666504 free_energy=-21.45212745666504 stress="-0.00018537440337240696 -5.732888386233981e-09 2.038547997074147e-09 -5.732888386233981e-09 -0.0001853637513704598 -4.227606265061468e-09 2.038547997074147e-09 -4.227606265061468e-09 -0.00018537315190769732" pbc="T T T"
In       2.15218656       1.52182579       3.72769694       0.00000036      -0.00000013       0.00000008
In       6.45656012       4.56547750      11.18309041      -0.00000027       0.00000019       0.00000019
S       -0.00000014      -0.00000057      -0.00000002      -0.00000000       0.00000005      -0.00000023
Br       2.10257845       1.48674733       7.45539338       0.00223333       0.00157930       0.00000003
Br       6.50616867       4.60055604       7.45539341      -0.00223379      -0.00157944       0.00000022
Br       5.40527093       1.48674728       5.54858270      -0.00111632       0.00157906       0.00193491
Br       3.20347569       4.60055600       9.36220411       0.00111649      -0.00157899      -0.00193514
Br       3.20347568       4.60055594       5.54858252       0.00111634      -0.00157894       0.00193466
Br       5.40527109       1.48674738       9.36220409      -0.00111617       0.00157891      -0.00193467
