9
Lattice="6.529839923836292 -7.43867353170696e-08 3.77000501901922 2.176613271369518 6.156392160901922 3.7700049608975186 4.290669232220853e-08 -4.084465044079698e-08 7.540009963721885" Properties=species:S:1:pos:R:3:forces:R:3 energy=-25.29383087158203 free_energy=-25.29383087158203 stress="8.29964192234911e-05 -1.4796713854181576e-09 -4.70021888077099e-09 -1.4796713854181576e-09 8.300109038827941e-05 7.582366734482093e-09 -4.70021888077099e-09 7.582366734482093e-09 8.300538320327178e-05" pbc="T T T"
In       2.17661338       1.53909796       3.77000502       0.00000001      -0.00000016       0.00000015
In       6.52983992       4.61729407      11.31001491       0.00000002       0.00000001      -0.00000006
Sn      -0.00000044       0.00000031       0.00000045       0.00000796      -0.00000420      -0.00000195
Br       2.16401019       1.53018616       7.54001007       0.00005300       0.00003667      -0.00000007
Br       6.54244363       4.62620631       7.54001011      -0.00005729      -0.00004081       0.00000011
Br       5.44783473       1.53018605       5.64409251      -0.00002840       0.00004082       0.00005006
Br       3.25861846       4.62620552       9.43592669       0.00002600      -0.00003568      -0.00004376
Br       3.25861834       4.62620563       5.64409296       0.00002652      -0.00003668       0.00004476
Br       5.44783475       1.53018616       9.43592707      -0.00002780       0.00004010      -0.00004917
