9
Lattice="6.966390538297529 -4.978521905147079e-08 4.022047505023311 2.32213013103455 6.567975957926814 4.022047507552094 2.4373774847753916e-08 2.033202238592704e-08 8.044094967829983" Properties=species:S:1:pos:R:3:forces:R:3 energy=-21.882600784301758 free_energy=-21.882600784301758 stress="0.00016680132830515504 1.4169927453622222e-09 6.155785603478847e-11 1.4169927453622222e-09 0.0001668051554588601 1.2912638736040094e-09 6.155785603478847e-11 1.2912638736040094e-09 0.00016679640975780785" pbc="T T T"
In       2.32213020       1.64199401       4.02204751      -0.00000054      -0.00000003       0.00000002
In       6.96639054       4.92598188      12.06614254       0.00000063      -0.00000029      -0.00000000
Sn      -0.00000015      -0.00000004       0.00000034      -0.00000025      -0.00000000      -0.00000437
I        2.41105203       1.70487144       8.04409501      -0.00316635      -0.00223789      -0.00000073
I        6.87746877       4.86310451       8.04409503       0.00316642       0.00223846      -0.00000018
I        5.76086464       1.70487142       6.11007997       0.00158277      -0.00223712      -0.00274059
I        3.52765621       4.86310433       9.97810979      -0.00158462       0.00223984       0.00274280
I        3.52765609       4.86310465       6.11007996      -0.00158246       0.00223719      -0.00273988
I        5.76086443       1.70487153       9.97810979       0.00158434      -0.00224020       0.00274310
