9
Lattice="5.076148947094592 -9.055868988653444e-09 2.9307159523200816 1.6920496684707622 4.785839063089403 2.930715903862144 7.125399716445706e-08 -8.964393997357073e-09 5.861431781224604" Properties=species:S:1:pos:R:3:forces:R:3 energy=-35.14268493652344 free_energy=-35.14268493652344 stress="-0.00012341314868535846 2.8531157880706814e-08 4.949565202139183e-09 2.8531157880706814e-08 -0.0001233812072314322 -3.9227725068258223e-08 4.949565202139183e-09 -3.9227725068258223e-08 -0.00012336974032223225" pbc="T T T"
In       1.69204969       1.19645973       2.93071603      -0.00000002       0.00000035      -0.00000045
In       5.07614900       3.58937938       8.79214763       0.00000019       0.00000029      -0.00000008
S       -0.00000008      -0.00000006       0.00000043       0.00000156       0.00000355      -0.00001089
F        1.57941669       1.11681620       5.86143173       0.00133428       0.00094360       0.00000153
F        5.18878219       3.66902283       5.86143174      -0.00133644      -0.00094488       0.00000189
F        4.28644093       1.11681581       4.29853075      -0.00066926       0.00094608       0.00115980
F        2.48175799       3.66902279       7.42433291       0.00066840      -0.00094533      -0.00115675
F        2.48175766       3.66902321       4.29853064       0.00066853      -0.00094638       0.00115931
F        4.28644076       1.11681623       7.42433278      -0.00066724       0.00094271      -0.00115442
