9
Lattice="6.542609821605181 3.422574003737282e-08 3.7773776255793647 2.1808699877780477 6.168431813259714 3.777377599642476 2.0004439643050793e-08 -1.762079206791071e-08 7.554755216509988" Properties=species:S:1:pos:R:3:forces:R:3 energy=-31.64763069152832 free_energy=-31.64763069152832 stress="0.000179170529008843 2.356613570952959e-08 1.4516019497534671e-09 2.356613570952959e-08 0.00017916310753207654 -1.6956595016992537e-09 1.4516019497534671e-09 -1.6956595016992537e-09 0.00017915658827405423" pbc="T T T"
In       2.18087006       1.54210789       3.77737754      -0.00000023       0.00000014      -0.00000005
In       6.54260979       4.62632392      11.33213275      -0.00000006      -0.00000011      -0.00000031
Sc      -0.00000013       0.00000028       0.00000102      -0.00000036      -0.00000524      -0.00000916
Br       2.15352265       1.52277043       7.55475531      -0.00023296      -0.00016499       0.00000057
Br       6.56995685       4.64566098       7.55475526       0.00023595       0.00016676       0.00000095
Br       5.46584886       1.52277037       5.64238289       0.00011441      -0.00016242      -0.00019902
Br       3.25763147       4.64566107       9.46712704      -0.00011766       0.00016794       0.00020481
Br       3.25763123       4.64566155       5.64238287      -0.00011645       0.00016353      -0.00020106
Br       5.46584853       1.52277085       9.46712709       0.00011742      -0.00016570       0.00020339
