9
Lattice="6.298025595469473 -2.5642440092782024e-08 3.63616643046927 2.099341887162662 5.937835207351537 3.636166350479508 4.904117806119596e-08 -6.328969056052031e-08 7.272332775996746" Properties=species:S:1:pos:R:3:forces:R:3 energy=-30.221920013427734 free_energy=-30.221920013427734 stress="-3.565300357877277e-05 6.664102158993046e-08 2.5557811422771692e-09 6.664102158993046e-08 -3.5658598790178075e-05 -1.766516533052709e-08 2.5557811422771692e-09 -1.766516533052709e-08 -3.57337121386081e-05" pbc="T T T"
In       2.09934187       1.48445947       3.63616721      -0.00000009      -0.00000001      -0.00000008
In       6.29802554       4.45337630      10.90849981      -0.00000001       0.00000013      -0.00000015
Si      -0.00000041      -0.00000009      -0.00000075       0.00000791      -0.00000184       0.00002372
Cl       1.80488867       1.27624949       7.27233259       0.00274321       0.00193861       0.00000109
Cl       6.59247811       4.66158553       7.27233246      -0.00274277      -0.00193836       0.00000016
Cl       5.39558137       1.27624884       5.19924539      -0.00137315       0.00193937       0.00237790
Cl       3.00178608       4.66158660       9.34542014       0.00137828      -0.00195069      -0.00238746
Cl       3.00178669       4.66158597       5.19924546       0.00136852      -0.00193707       0.00237349
Cl       5.39558211       1.27624838       9.34542019      -0.00138219       0.00194998      -0.00238888
