9
Lattice="6.744071262207402 6.927179545987478e-08 3.89369135567359 2.248023794651098 6.358371376433663 3.8936913985039046 3.3815006838307506e-08 7.636703556421015e-08 7.787382652777815" Properties=species:S:1:pos:R:3:forces:R:3 energy=-19.023286819458008 free_energy=-19.023286819458008 stress="5.32000012753997e-05 4.319063329205619e-09 -2.123475839610478e-09 4.319063329205619e-09 5.320155105437152e-05 -2.9751021646262643e-09 -2.123475839610478e-09 -2.9751021646262643e-09 5.3200659749563783e-05" pbc="T T T"
In       2.24802380       1.58959289       3.89369136       0.00000004      -0.00000026      -0.00000011
In       6.74407136       4.76877863      11.68107407       0.00000001       0.00000008       0.00000004
S        0.00000013       0.00000008      -0.00000012       0.00000093      -0.00000031       0.00000070
I        2.35804519       1.66738981       7.78738278      -0.00022243      -0.00015761       0.00000016
I        6.63404949       4.69098146       7.78738289       0.00022206       0.00015707       0.00000016
I        5.56504875       1.66738983       5.93581834       0.00011098      -0.00015689      -0.00019221
I        3.42704653       4.69098171       9.63894693      -0.00011103       0.00015712       0.00019230
I        3.42704645       4.69098173       5.93581838      -0.00011146       0.00015748      -0.00019284
I        5.56504871       1.66739000       9.63894699       0.00011088      -0.00015670       0.00019175
