9
Lattice="6.840008121651344 5.677493644617214e-08 3.949080546839868 2.280002733847358 6.448821550382909 3.9490805934280973 -3.29238352160729e-08 3.377803906390992e-08 7.898161150705503" Properties=species:S:1:pos:R:3:forces:R:3 energy=-22.671838760375977 free_energy=-22.671838760375977 stress="-5.552807851927355e-05 6.412684161460902e-09 -1.6751713349805186e-09 6.412684161460902e-09 -5.553315713768825e-05 1.1843838798597517e-08 -1.6751713349805186e-09 1.1843838798597517e-08 -5.553797382162884e-05" pbc="T T T"
In       2.28000276       1.61220536       3.94908047      -0.00000003       0.00000019       0.00000014
In       6.84000816       4.83661634      11.84724192       0.00000016      -0.00000004       0.00000006
Si      -0.00000009      -0.00000035      -0.00000007      -0.00000057       0.00000123       0.00000009
I        2.21719434       1.56779335       7.89816121      -0.00457717      -0.00323678      -0.00000066
I        6.90281659       4.88102843       7.89816113       0.00457684       0.00323635       0.00000042
I        5.73141107       1.56779332       5.86922722       0.00228845      -0.00323740      -0.00396392
I        3.38859973       4.88102840       9.92709516      -0.00228847       0.00323686       0.00396352
I        3.38859983       4.88102849       5.86922708      -0.00228768       0.00323527      -0.00396238
I        5.73141090       1.56779326       9.92709505       0.00228848      -0.00323565       0.00396271
