9
Lattice="6.225381577025234 -6.27254328301057e-08 3.5942258795539894 2.075127134623004 5.869346298174083 3.5942258770955267 -7.837981443264643e-08 -5.843388800472296e-08 7.1884518948658345" Properties=species:S:1:pos:R:3:forces:R:3 energy=-25.052724838256836 free_energy=-25.052724838256836 stress="0.00011391393491066992 -4.01441830888416e-08 5.5298583490071e-09 -4.01441830888416e-08 0.00011395905312383547 -3.903119161208224e-09 5.5298583490071e-09 -3.903119161208224e-09 0.00011400704534025863" pbc="T T T"
In       2.07512704       1.46733672       3.59422577      -0.00000006      -0.00000023      -0.00000003
In       6.22538125       4.40200948      10.78267751       0.00000037       0.00000011       0.00000018
Se      -0.00000024      -0.00000017       0.00000082       0.00000705       0.00000165      -0.00001259
Cl       1.99016803       1.40726158       7.18845196      -0.00149520      -0.00105713       0.00000088
Cl       6.31034117       4.46208550       7.18845190       0.00148931       0.00105363       0.00000115
Cl       5.23029737       1.40726127       5.31776266       0.00074735      -0.00105732      -0.00129489
Cl       3.07021126       4.46208424       9.05914055      -0.00074987       0.00106072       0.00130076
Cl       3.07021132       4.46208432       5.31776280      -0.00074848       0.00105863      -0.00129618
Cl       5.23029728       1.40726172       9.05914065       0.00074955      -0.00106006       0.00130075
