9
Lattice="6.57324270132607 -2.2664284839479595e-08 3.7950634400736307 2.1910808558705495 6.197312686780401 3.7950634802630043 -3.1453097395012563e-09 4.699776339328478e-08 7.590126885594985" Properties=species:S:1:pos:R:3:forces:R:3 energy=-21.973201751708984 free_energy=-21.973201751708984 stress="6.831541395513341e-05 -6.6179759450335496e-09 -1.9807804008120655e-10 -6.6179759450335496e-09 6.832030339865014e-05 1.141962413520048e-09 -1.9807804008120655e-10 1.141962413520048e-09 6.832616054452956e-05" pbc="T T T"
In       2.19108097       1.54932828       3.79506350       0.00000032       0.00000004      -0.00000014
In       6.57324281       4.64798443      11.38519038       0.00000007      -0.00000022      -0.00000009
Se       0.00000036      -0.00000003      -0.00000089      -0.00000046      -0.00000042       0.00000380
Br       2.13397037       1.50894510       7.59012706      -0.00128413      -0.00090795       0.00000004
Br       6.63035293       4.68836776       7.59012684       0.00128403       0.00090802      -0.00000021
Br       5.50625713       1.50894522       5.64313648       0.00064288      -0.00090861      -0.00111312
Br       3.25806613       4.68836758       9.53711751      -0.00064177       0.00090784       0.00111150
Br       3.25806621       4.68836751       5.64313658      -0.00064281       0.00090912      -0.00111317
Br       5.50625730       1.50894497       9.53711779       0.00064186      -0.00090782       0.00111138
