9
Lattice="5.339029182023724 5.2245799133091014e-08 3.082489782821089 1.7796764706062864 5.033684672685683 3.082489735465861 7.681480735609946e-08 -3.6818043776845514e-09 6.164979432595061" Properties=species:S:1:pos:R:3:forces:R:3 energy=-35.71373748779297 free_energy=-35.71373748779297 stress="-0.00039978467975743115 1.662487392195544e-08 -4.197682645923351e-09 1.662487392195544e-08 -0.00039983680471777916 -7.462729101348486e-09 -4.197682645923351e-09 -7.462729101348486e-09 -0.0003998318570666015" pbc="T T T"
In       1.77967664       1.25842129       3.08248966      -0.00000007      -0.00000019       0.00000012
In       5.33902988       3.77526326       9.24746940      -0.00000037       0.00000063       0.00000010
Se      -0.00000003      -0.00000004       0.00000014      -0.00000425       0.00000176       0.00000427
F        1.62108011       1.14627660       6.16497917       0.00608584       0.00430292       0.00000004
F        5.49762555       3.88740832       6.16497926      -0.00608355      -0.00430244       0.00000003
F        4.52848917       1.14627659       4.48638610      -0.00304250       0.00430304       0.00526947
F        2.59021638       3.88740822       7.84357290       0.00304382      -0.00430512      -0.00527313
F        2.59021612       3.88740807       4.48638625       0.00304393      -0.00430441       0.00527084
F        4.52848922       1.14627667       7.84357273      -0.00304282       0.00430393      -0.00527176
