9
Lattice="6.965269232671291 2.0084602101820414e-08 4.021400091219347 2.321756461642246 6.566918841333463 4.021400036112641 3.2847856193515825e-08 -4.426472743488999e-08 8.042800125544531" Properties=species:S:1:pos:R:3:forces:R:3 energy=-21.882631301879883 free_energy=-21.882631301879883 stress="7.172369078034535e-05 6.717933764832651e-09 -2.662165377032011e-09 6.717933764832651e-09 7.173775520641357e-05 7.14735715057202e-10 -2.662165377032011e-09 7.14735715057202e-10 7.173127960413694e-05" pbc="T T T"
In       2.32175641       1.64172970       4.02140010      -0.00000027       0.00000034       0.00000009
In       6.96526930       4.92518906      12.06420017      -0.00000027      -0.00000002       0.00000016
Sn       0.00000024       0.00000015       0.00000019      -0.00000095       0.00000013       0.00000087
I        2.40986004       1.70402840       8.04280013       0.00041793       0.00029583      -0.00000028
I        6.87716543       4.86289010       8.04280012      -0.00041731      -0.00029443       0.00000028
I        5.76033924       1.70402849       6.10840016      -0.00020845       0.00029492       0.00036062
I        3.52668655       4.86289033       9.97720006       0.00020916      -0.00029597      -0.00036266
I        3.52668651       4.86289032       6.10840006       0.00020912      -0.00029571       0.00036205
I        5.76033918       1.70402872       9.97720002      -0.00020890       0.00029494      -0.00036111
