9
Lattice="6.2264082724253145 -1.0054649748750888e-08 3.594818307295317 2.075469384153632 5.870313761562899 3.594818360137404 -1.0907730023370737e-07 -1.2411201829021739e-08 7.189636803518029" Properties=species:S:1:pos:R:3:forces:R:3 energy=-25.052688598632812 free_energy=-25.052688598632812 stress="0.00026718457229435444 1.0018420759649871e-08 -1.0392032789852124e-09 1.0018420759649871e-08 0.0002671738911885768 7.783551581042047e-09 -1.0392032789852124e-09 7.783551581042047e-09 0.00026718087610788643" pbc="T T T"
In       2.07546896       1.46757814       3.59481887      -0.00000007      -0.00000020      -0.00000005
In       6.22640846       4.40273483      10.78445447       0.00000014      -0.00000011      -0.00000038
Se       0.00000029       0.00000028      -0.00000089      -0.00000541      -0.00000275       0.00000869
Cl       1.99078412       1.40769701       7.18963667      -0.00733612      -0.00518725      -0.00000104
Cl       6.31109330       4.46261687       7.18963669       0.00733885       0.00518929      -0.00000035
Cl       5.23101619       1.40769702       5.31888836       0.00366950      -0.00518852      -0.00635575
Cl       3.07086109       4.46261697       9.06038591      -0.00366688       0.00518726       0.00635213
Cl       3.07086146       4.46261694       5.31888803      -0.00366808       0.00518814      -0.00635456
Cl       5.23101635       1.40769687       9.06038573       0.00366803      -0.00518584       0.00635130
