9
Lattice="5.230339184705856 1.4544959689322442e-07 3.0197376490060366 1.74344647994584 4.931211282274641 3.019737739223981 2.659065358456163e-08 1.2929635504954207e-07 6.039475251955771" Properties=species:S:1:pos:R:3:forces:R:3 energy=-44.9495849609375 free_energy=-44.9495849609375 stress="-7.3090350269922055e-06 -4.3093439927588406e-08 -1.1144209111080272e-08 -4.3093439927588406e-08 -7.108770205377368e-06 2.98405673504476e-08 -1.1144209111080272e-08 2.98405673504476e-08 -7.117069344531046e-06" pbc="T T T"
In       1.74344643       1.23280289       3.01973760      -0.00000036       0.00000016      -0.00000007
In       5.23033924       3.69840868       9.05921316       0.00000026       0.00000007       0.00000054
Si      -0.00000007       0.00000013      -0.00000004       0.00000505      -0.00000382      -0.00000589
F        1.40455720       0.99317210       6.03947529      -0.00004300      -0.00003287       0.00000035
F        5.56922850       3.93803934       6.03947522       0.00003830       0.00003245       0.00000102
F        4.52806045       0.99317246       4.23612022       0.00002247      -0.00003514      -0.00004146
F        2.44572520       3.93803926       7.84283059      -0.00002255       0.00003633       0.00004402
F        2.44572529       3.93803923       4.23612014      -0.00002217       0.00003576      -0.00004080
F        4.52806050       0.99317223       7.84283049       0.00002217      -0.00003287       0.00004226
