9
Lattice="6.860442216575563 1.3666909397570692e-07 3.9608779897445463 2.2868142143753913 6.468086855512496 3.960877966655072 -5.413374166321227e-09 -3.2106504874272413e-08 7.9217559888652485" Properties=species:S:1:pos:R:3:forces:R:3 energy=-19.350736618041992 free_energy=-19.350736618041992 stress="2.3921875254018232e-06 3.078639787545967e-09 -3.6281728732490137e-09 3.078639787545967e-09 2.387386757618515e-06 7.217904496314986e-09 -3.6281728732490137e-09 7.217904496314986e-09 2.3832324131944915e-06" pbc="T T T"
In       2.28681410       1.61702177       3.96087799       0.00000014      -0.00000003      -0.00000004
In       6.86044236       4.85106530      11.88263406       0.00000012       0.00000002       0.00000009
Se       0.00000029       0.00000013      -0.00000003      -0.00000064       0.00000002       0.00000037
I        2.37072797       1.67635758       7.92175594      -0.00306636      -0.00216810      -0.00000020
I        6.77652842       4.79172922       7.92175598       0.00306655       0.00216825       0.00000002
I        5.67507848       1.67635755       6.01398813       0.00153323      -0.00216815      -0.00265530
I        3.47217790       4.79172932       9.82952382      -0.00153309       0.00216792       0.00265508
I        3.47217778       4.79172946       6.01398812      -0.00153295       0.00216812      -0.00265507
I        5.67507841       1.67635753       9.82952378       0.00153301      -0.00216801       0.00265504
