9
Lattice="5.077513381157957 -3.0139807154250293e-07 2.9315037150353827 1.6925042443623985 4.787124574046867 2.9315035970182213 1.7898477850820765e-08 -1.3188477132848412e-07 5.863007399069651" Properties=species:S:1:pos:R:3:forces:R:3 energy=-35.14268112182617 free_energy=-35.14268112182617 stress="0.00018800186808221042 -2.9669900314388542e-08 2.860793912873305e-08 -2.9669900314388542e-08 0.00018798463861458004 -3.929752523390562e-08 2.860793912873305e-08 -3.929752523390562e-08 0.00018804657156579196" pbc="T T T"
In       1.69250440       1.19678028       2.93150373      -0.00000000       0.00000003      -0.00000051
In       5.07751323       3.59034248       8.79451079      -0.00000007       0.00000015       0.00000026
S       -0.00000001       0.00000021       0.00000007       0.00000287      -0.00000121      -0.00000081
F        1.57953357       1.11689876       5.86300734      -0.00204703      -0.00144739       0.00000023
F        5.19048396       3.67022576       5.86300734       0.00204584       0.00144656       0.00000012
F        4.28774678       1.11689860       4.29942010       0.00102288      -0.00144710      -0.00177269
F        2.48227125       3.67022586       7.42659466      -0.00102355       0.00144780       0.00177273
F        2.48227137       3.67022609       4.29941996      -0.00102604       0.00145063      -0.00177589
F        4.28774625       1.11689859       7.42659480       0.00102507      -0.00144953       0.00177665
