9
Lattice="4.975780207704534 6.035326703813705e-08 2.8727679451099863 1.6585934104985787 4.691210881520129 2.872768029930582 -1.0256782870036166e-07 3.1357210249633575e-08 5.745536067872637" Properties=species:S:1:pos:R:3:forces:R:3 energy=-47.162132263183594 free_energy=-47.162132263183594 stress="0.0005373116000555456 5.330010655058004e-09 -1.3318118163851977e-08 5.330010655058004e-09 0.0005372797604650259 -2.1851398912531295e-08 -1.3318118163851977e-08 -2.1851398912531295e-08 0.0005372455343604088" pbc="T T T"
In       1.65859324       1.17280292       2.87276776      -0.00000129      -0.00000007      -0.00000061
In       4.97577993       3.51840806       8.61830388      -0.00000024      -0.00000004       0.00000051
Sc       0.00000019      -0.00000001       0.00000000      -0.00000121      -0.00000006       0.00000583
F        1.62604647       1.14978874       5.74553604      -0.00628778      -0.00444680       0.00000073
F        5.00832706       3.54142226       5.74553601       0.00628922       0.00444736      -0.00000106
F        4.16275698       1.14978871       4.28096571       0.00314583      -0.00444785      -0.00544691
F        2.47161663       3.54142215       7.21010656      -0.00314324       0.00444499       0.00544447
F        2.47161665       3.54142227       4.28096572      -0.00314398       0.00444815      -0.00544671
F        4.16275693       1.14978871       7.21010645       0.00314269      -0.00444552       0.00544341
