9
Lattice="6.50337309232348 1.6322541127713304e-08 3.7547243139897457 2.1677910382344074 6.131438832080632 3.754724327723464 2.537508994345611e-08 3.4763073092994985e-08 7.509448584028557" Properties=species:S:1:pos:R:3:forces:R:3 energy=-26.151519775390625 free_energy=-26.151519775390625 stress="0.0002897530503105372 -1.5309388201600882e-09 -1.971335317207945e-09 -1.5309388201600882e-09 0.00028972141444683075 9.350418217479728e-09 -1.971335317207945e-09 9.350418217479728e-09 0.00028974461019970477" pbc="T T T"
In       2.16779114       1.53285973       3.75472433       0.00000012       0.00000003      -0.00000003
In       6.50337315       4.59857911      11.26417277      -0.00000006       0.00000008      -0.00000003
Si       0.00000001       0.00000054      -0.00000005      -0.00000045      -0.00000347       0.00000114
Br       1.99273047       1.40907305       7.50944861      -0.00667143      -0.00471712       0.00000064
Br       6.67843302       4.72236538       7.50944863       0.00667752       0.00471957       0.00000064
Br       5.50700773       1.40907365       5.48047973       0.00333695      -0.00471972      -0.00577851
Br       3.16415656       4.72236551       9.53841685      -0.00333847       0.00471826       0.00578203
Br       3.16415663       4.72236537       5.48048034      -0.00333939       0.00471947      -0.00578236
Br       5.50700793       1.40907324       9.53841778       0.00333513      -0.00471716       0.00577654
