9
Lattice="6.466174359586681 -1.8852431868741936e-08 3.733247506892076 2.1553914699237406 6.096367442853363 3.7332474471321375 -8.374411590366836e-09 -7.91123271944494e-08 7.4664950282890485" Properties=species:S:1:pos:R:3:forces:R:3 energy=-21.452056884765625 free_energy=-21.452056884765625 stress="0.00026499159866943955 5.644321898756743e-09 -1.1327323523602217e-09 5.644321898756743e-09 0.0002650007081683725 4.3135955918316427e-10 -1.1327323523602217e-09 4.3135955918316427e-10 0.0002649984380695969" pbc="T T T"
In       2.15539142       1.52409177       3.73324754      -0.00000010       0.00000013       0.00000020
In       6.46617437       4.57227559      11.19974235       0.00000038       0.00000010       0.00000018
S       -0.00000042      -0.00000014       0.00000004      -0.00000011      -0.00000020       0.00000022
Br       2.10322307       1.48720302       7.46649503      -0.00081557      -0.00057662      -0.00000009
Br       6.51834305       4.60916430       7.46649491       0.00081563       0.00057692      -0.00000031
Br       5.41456291       1.48720298       5.55469190       0.00040768      -0.00057660      -0.00070659
Br       3.20700299       4.60916435       9.37829811      -0.00040765       0.00057629       0.00070608
Br       3.20700291       4.60916433       5.55469187      -0.00040774       0.00057640      -0.00070597
Br       5.41456296       1.48720312       9.37829817       0.00040746      -0.00057642       0.00070627
