9
Lattice="6.530699265152748 1.3223178629457602e-08 3.7705009698801164 2.1768997608254272 6.157202303103473 3.770500981471675 -2.242749493882023e-08 -1.6619347564712241e-09 7.541001978605854" Properties=species:S:1:pos:R:3:forces:R:3 energy=-25.29381561279297 free_energy=-25.29381561279297 stress="0.0001405652001267299 9.328465777613815e-10 3.84712217638139e-09 9.328465777613815e-10 0.00014056860527489334 9.78678527108201e-11 3.84712217638139e-09 9.78678527108201e-11 0.00014057107910048217" pbc="T T T"
In       2.17689972       1.53930050       3.77050099      -0.00000015      -0.00000010      -0.00000009
In       6.53069931       4.61790185      11.31150293       0.00000002       0.00000011       0.00000002
Sn       0.00000014       0.00000046       0.00000001      -0.00000041      -0.00000395       0.00000103
Br       2.16413303       1.53027317       7.54100208      -0.00051987      -0.00036759      -0.00000045
Br       6.54346552       4.62692882       7.54100203       0.00052245       0.00036950      -0.00000015
Br       5.44863283       1.53027306       5.64469509       0.00025960      -0.00036773      -0.00045082
Br       3.25896640       4.62692905       9.43730857      -0.00026079       0.00036898       0.00045200
Br       3.25896640       4.62692918       5.64469527      -0.00026112       0.00036881      -0.00045256
Br       5.44863268       1.53027314       9.43730872       0.00026029      -0.00036806       0.00045104
