9
Lattice="6.576614712343576 5.2449176638927135e-08 3.797010272715101 2.192204918370016 6.2004918830481035 3.79701033367306 1.26858163493676e-08 8.362815268568239e-08 7.594020523457719" Properties=species:S:1:pos:R:3:forces:R:3 energy=-21.973140716552734 free_energy=-21.973140716552734 stress="0.0002505343873053789 -5.6175704088445855e-09 -2.5355486599210053e-09 -5.6175704088445855e-09 0.0002505391603335738 3.978638751789276e-09 -2.5355486599210053e-09 3.978638751789276e-09 0.0002505415177438408" pbc="T T T"
In       2.19220500       1.55012310       3.79701029      -0.00000001       0.00000007      -0.00000005
In       6.57661479       4.65036900      11.39103087      -0.00000005       0.00000004       0.00000022
Se      -0.00000029      -0.00000016      -0.00000020       0.00000275       0.00000089      -0.00000057
Br       2.13431818       1.50919102       7.59402043      -0.00304603      -0.00215382       0.00000014
Br       6.63450173       4.69130102       7.59402048       0.00304426       0.00215277      -0.00000005
Br       5.50945554       1.50919112       5.64538419       0.00152289      -0.00215404      -0.00263803
Br       3.25936395       4.69130102       9.54265723      -0.00152324       0.00215416       0.00263802
Br       3.25936404       4.69130087       5.64538407      -0.00152305       0.00215359      -0.00263731
Br       5.50945565       1.50919111       9.54265716       0.00152248      -0.00215366       0.00263760
