9
Lattice="5.318763000103573 5.6250204023943394e-08 3.0707893178711285 1.772921028948997 5.014578010596273 3.070789359646027 5.155525831927561e-08 8.761865972497594e-08 6.141578546445869" Properties=species:S:1:pos:R:3:forces:R:3 energy=-39.95564651489258 free_energy=-39.95564651489258 stress="3.5589437175076455e-05 -4.3774783797800865e-09 8.100863979620954e-09 -4.3774783797800865e-09 3.560230470611714e-05 8.476684354441488e-10 8.100863979620954e-09 8.476684354441488e-10 3.56420932803303e-05" pbc="T T T"
In       1.77292109       1.25364461       3.07078906      -0.00000050      -0.00000031      -0.00000051
In       5.31876295       3.76093357       9.21236797       0.00000049       0.00000003      -0.00000067
Sn       0.00000018       0.00000004      -0.00000024      -0.00000248      -0.00000082       0.00000800
F        1.63953977       1.15932968       6.14157878      -0.00154072      -0.00109014      -0.00000013
F        5.45214432       3.85524851       6.14157846       0.00154327       0.00109133      -0.00000030
F        4.49899325       1.15932942       4.49067242       0.00077218      -0.00109197      -0.00133823
F        2.59269094       3.85524822       7.79248498      -0.00077083       0.00109020       0.00133534
F        2.59269064       3.85524863       4.49067241      -0.00077219       0.00109205      -0.00133885
F        4.49899311       1.15932990       7.79248501       0.00077067      -0.00109053       0.00133534
