9
Lattice="6.7423566544067235 4.651515015546578e-08 3.8927013950464744 2.247452265894074 6.35675480938783 3.892701388285205 -1.8563474377878397e-09 -9.593468073855427e-09 7.78540279330823" Properties=species:S:1:pos:R:3:forces:R:3 energy=-19.023277282714844 free_energy=-19.023277282714844 stress="-6.106711953179911e-05 -5.058190755136138e-09 5.691999094281641e-10 -5.058190755136138e-09 -6.106010550865903e-05 -2.266781207183044e-09 5.691999094281641e-10 -2.266781207183044e-09 -6.106082582846284e-05" pbc="T T T"
In       2.24745218       1.58918867       3.89270138       0.00000024      -0.00000033      -0.00000000
In       6.74235672       4.76756621      11.67810419      -0.00000024       0.00000030       0.00000009
S       -0.00000004      -0.00000015       0.00000016       0.00000015      -0.00000018       0.00000021
I        2.35823956       1.66752705       7.78540273      -0.00251803      -0.00178078       0.00000009
I        6.63156944       4.68922781       7.78540277       0.00251791       0.00178078      -0.00000014
I        5.56323702       1.66752711       5.93499653       0.00125906      -0.00178076      -0.00218089
I        3.42657192       4.68922770       9.63580901      -0.00125900       0.00178066       0.00218095
I        3.42657185       4.68922781       5.93499648      -0.00125913       0.00178094      -0.00218108
I        5.56323702       1.66752717       9.63580902       0.00125898      -0.00178063       0.00218074
