9
Lattice="6.3381368318729665 6.326321089455647e-08 3.6593250326216644 2.1127123542763155 5.975652829632445 3.659325002587538 3.945833270711693e-08 -8.882887453531304e-09 7.318649996899475" Properties=species:S:1:pos:R:3:forces:R:3 energy=-26.084104537963867 free_energy=-26.084104537963867 stress="0.00031362471054308116 2.3261309323174828e-08 1.0190468913151562e-08 2.3261309323174828e-08 0.00031361746368929744 4.571238054751348e-09 1.0190468913151562e-08 4.571238054751348e-09 0.0003135998558718711" pbc="T T T"
In       2.11271239       1.49391322       3.65932513      -0.00000004       0.00000005       0.00000009
In       6.33813685       4.48173962      10.97797495      -0.00000005      -0.00000000      -0.00000000
Te      -0.00000058       0.00000052      -0.00000041       0.00000590      -0.00000791       0.00000729
Cl       2.08034097       1.47102312       7.31865005      -0.00656494      -0.00464150      -0.00000051
Cl       6.37050859       4.50462977       7.31864997       0.00656431       0.00464262      -0.00000065
Cl       5.29796663       1.47102284       5.46095273       0.00328064      -0.00463985      -0.00568396
Cl       3.15288247       4.50463001       9.17634734      -0.00328200       0.00464163       0.00568338
Cl       3.15288283       4.50462967       5.46095304      -0.00328351       0.00464347      -0.00568677
Cl       5.29796677       1.47102275       9.17634734       0.00327970      -0.00463853       0.00568111
