9
Lattice="6.9321092135375935 5.972215048286765e-08 4.0022551281618615 2.310703123080446 6.535655356468987 4.002255135792134 -1.942224643734995e-09 7.971799081477622e-09 8.004510259687752" Properties=species:S:1:pos:R:3:forces:R:3 energy=-27.909339904785156 free_energy=-27.909339904785156 stress="1.937915658345446e-05 -1.938458993322456e-08 -1.3918766139653371e-09 -1.938458993322456e-08 1.939285903063137e-05 5.163553584708325e-09 -1.3918766139653371e-09 5.163553584708325e-09 1.9386823623790406e-05" pbc="T T T"
In       2.31070308       1.63391392       4.00225512      -0.00000002      -0.00000011       0.00000040
In       6.93210924       4.90174156      12.00676537      -0.00000009      -0.00000003      -0.00000031
Ti      -0.00000014      -0.00000007      -0.00000043       0.00000132      -0.00000000       0.00000292
I        2.23795846       1.58247570       8.00451011       0.00092546       0.00065415       0.00000031
I        7.00485406       4.95317969       8.00451022      -0.00092663      -0.00065479       0.00000015
I        5.81313008       1.58247580       5.94038394      -0.00046130       0.00065235       0.00079978
I        3.42968222       4.95317996      10.06863694       0.00046206      -0.00065325      -0.00080124
I        3.42968221       4.95317961       5.94038398       0.00046163      -0.00065246       0.00080030
I        5.81313013       1.58247553      10.06863686      -0.00046249       0.00065420      -0.00080229
