9
Lattice="5.443156417215645 -1.9644857210724977e-07 3.1426078323800035 1.8143853692607532 5.131856526852476 3.1426076902323294 8.930635533682506e-08 -1.1094548545555686e-07 6.285215510076931" Properties=species:S:1:pos:R:3:forces:R:3 energy=-36.923580169677734 free_energy=-36.923580169677734 stress="0.00011953001376241446 4.733522462885276e-09 1.4355976407642856e-09 4.733522462885276e-09 0.00011953085049754009 1.2346269784302422e-08 1.4355976407642856e-09 1.2346269784302422e-08 0.00011952997010666877" pbc="T T T"
In       1.81438555       1.28296391       3.14260802       0.00000039      -0.00000033      -0.00000084
In       5.44315640       3.84889217       9.42782251      -0.00000007       0.00000035       0.00000057
Te      -0.00000002      -0.00000007       0.00000005      -0.00000201       0.00000234      -0.00000241
F        1.71822571       1.21496851       6.28521585      -0.00448292      -0.00317007      -0.00000021
F        5.53931632       3.91688780       6.28521577       0.00448290       0.00316942       0.00000090
F        4.58404369       1.21496835       4.63063476       0.00224203      -0.00317070      -0.00388238
F        2.67349829       3.91688741       7.93979635      -0.00224113       0.00316995       0.00388268
F        2.67349789       3.91688796       4.63063454      -0.00224109       0.00316876      -0.00388089
F        4.58404369       1.21496888       7.93979622       0.00224185      -0.00316960       0.00388238
