9
Lattice="6.583868629348871 -1.8768588014411383e-07 3.801198534074293 2.1946227530333005 6.207331105821901 3.801198441347922 2.4588895121540757e-08 -9.617914971204437e-08 7.602397025559383" Properties=species:S:1:pos:R:3:forces:R:3 energy=-34.79756546020508 free_energy=-34.79756546020508 stress="0.00011630313383648172 -6.77416451821955e-08 1.2028452900381126e-08 -6.77416451821955e-08 0.00011638768046395853 -8.52009041096835e-09 1.2028452900381126e-08 -8.52009041096835e-09 0.00011640553566394374" pbc="T T T"
In       2.19462291       1.55183279       3.80119847       0.00000011      -0.00000007       0.00000008
In       6.58386846       4.65549802      11.40359558       0.00000009       0.00000013      -0.00000004
Ta      -0.00000047       0.00000021      -0.00000034       0.00000824      -0.00000196       0.00000638
Br       2.07961964       1.47051349       7.60239702      -0.00119010      -0.00084242      -0.00000014
Br       6.69887206       4.73681724       7.60239675       0.00118488       0.00083891       0.00000031
Br       5.54405847       1.47051394       5.60220261       0.00059752      -0.00084603      -0.00103462
Br       3.23443276       4.73681693       9.60259148      -0.00059685       0.00084579       0.00103441
Br       3.23443330       4.73681692       5.60220295      -0.00060011       0.00084957      -0.00103921
Br       5.54405854       1.47051376       9.60259145       0.00059617      -0.00084403       0.00103268
