9
Lattice="6.515024667378596 -2.0538858004140284e-08 3.7614511392051995 2.171674913812142 6.142424163681302 3.7614510629078457 2.2320617224723577e-08 -7.76616920898645e-08 7.522902239750037" Properties=species:S:1:pos:R:3:forces:R:3 energy=-31.600751876831055 free_energy=-31.600751876831055 stress="0.00015591288683936 1.3139668908479507e-08 1.3403879783879802e-08 1.3139668908479507e-08 0.00015590587281621993 -9.379145460286509e-09 1.3403879783879802e-08 -9.379145460286509e-09 0.00015590697876177728" pbc="T T T"
In       2.17167491       1.53560611       3.76145112       0.00000001       0.00000017       0.00000004
In       6.51502470       4.60681801      11.28435333       0.00000007       0.00000004      -0.00000013
Ti      -0.00000011      -0.00000006      -0.00000001      -0.00000068      -0.00000042      -0.00000005
Br       2.06705547       1.46162922       7.52290223       0.00054229       0.00038321      -0.00000020
Br       6.61964397       4.68079474       7.52290229      -0.00054224      -0.00038240      -0.00000006
Br       5.48149718       1.46162899       5.55157368      -0.00027240       0.00038452       0.00047071
Br       3.20520255       4.68079519       9.49423075       0.00027251      -0.00038461      -0.00047144
Br       3.20520262       4.68079503       5.55157379       0.00027166      -0.00038341       0.00046991
Br       5.48149704       1.46162908       9.49423064      -0.00027118       0.00038290      -0.00046875
