9
Lattice="5.263173110282741 -1.9117030079006086e-07 3.0386940510488407 1.7543909592143558 4.962166648380565 3.038693873183643 6.302976847815408e-08 -1.7327070062649324e-07 6.077387992926823" Properties=species:S:1:pos:R:3:forces:R:3 energy=-48.06343078613281 free_energy=-48.06343078613281 stress="-0.00022802207968197763 -1.3787288644095952e-08 5.554443305300083e-08 -1.3787288644095952e-08 -0.0002279422915307805 -5.1654559740654804e-08 5.554443305300083e-08 -5.1654559740654804e-08 -0.00022799879661761224" pbc="T T T"
In       1.75439064       1.24054125       3.03869380       0.00000023       0.00000058      -0.00000000
In       5.26317276       3.72162466       9.11608258       0.00000028      -0.00000015      -0.00000017
Ti      -0.00000011       0.00000002       0.00000019       0.00000230       0.00000075      -0.00000580
F        1.55157485       1.09712895       6.07738798      -0.00063041      -0.00044771      -0.00000095
F        5.46598959       3.86503748       6.07738769       0.00062861       0.00044519       0.00000051
F        4.48738601       1.09712908       4.38239683       0.00031231      -0.00044371      -0.00054169
F        2.53017840       3.86503725       7.77237865      -0.00031481       0.00044715       0.00054631
F        2.53017857       3.86503749       4.38239703      -0.00031662       0.00044824      -0.00054839
F        4.48738579       1.09712904       7.77237868       0.00031806      -0.00045038       0.00055021
