9
Lattice="5.267786680176343 -7.283651708310672e-08 3.0413580843477184 1.7559287810018502 4.966517114689213 3.041358160071904 -2.4010703328654795e-07 -7.703855407165168e-08 6.082716584573048" Properties=species:S:1:pos:R:3:forces:R:3 energy=-48.06348419189453 free_energy=-48.06348419189453 stress="-1.632291969144717e-05 -3.731434605747097e-10 -2.037369917218257e-08 -3.731434605747097e-10 -1.6321528164553456e-05 -1.172437791296943e-08 -2.037369917218257e-08 -1.172437791296943e-08 -1.627045094210189e-05" pbc="T T T"
In       1.75592856       1.24162944       3.04135824      -0.00000034      -0.00000035       0.00000000
In       5.26778672       3.72488762       9.12407482      -0.00000033      -0.00000009      -0.00000057
Ti      -0.00000006      -0.00000017      -0.00000034       0.00000551       0.00000696       0.00001009
F        1.55141578       1.09701671       6.08271647       0.00015561       0.00011017       0.00000048
F        5.47229945       3.86950019       6.08271600      -0.00016153      -0.00011375      -0.00000011
F        4.49207887       1.09701674       4.38492383      -0.00007742       0.00010931       0.00013293
F        2.53163633       3.86950042       7.78050923       0.00008136      -0.00011512      -0.00013917
F        2.53163668       3.86950021       4.38492372       0.00007811      -0.00011057       0.00013448
F        4.49207860       1.09701673       7.78050900      -0.00008101       0.00011339      -0.00013823
