9
Lattice="6.613020629903498 1.4170640623667326e-07 3.8180291283294565 2.204340352743632 6.234815505265474 3.818029112440351 9.241672056882257e-09 -1.2925301242894407e-08 7.636058240651935" Properties=species:S:1:pos:R:3:forces:R:3 energy=-23.032033920288086 free_energy=-23.032033920288086 stress="3.22590240102727e-05 3.971214468379003e-08 -3.736535969522947e-09 3.971214468379003e-08 3.223531530238688e-05 4.055578095574219e-09 -3.736535969522947e-09 4.055578095574219e-09 3.220664439140819e-05" pbc="T T T"
In       2.20434021       1.55870392       3.81802902      -0.00000010       0.00000008      -0.00000009
In       6.61302084       4.67611179      11.45408749       0.00000001      -0.00000011      -0.00000029
Te      -0.00000014       0.00000003      -0.00000187       0.00000194      -0.00000011       0.00001707
Br       2.22812274       1.57552061       7.63605840       0.00122792       0.00086786      -0.00000055
Br       6.58923833       4.65929494       7.63605840      -0.00122842      -0.00086875      -0.00000023
Br       5.49895949       1.57552057       5.74763979      -0.00061437       0.00086839       0.00106324
Br       3.31840105       4.65929581       9.52447745       0.00061787      -0.00087365      -0.00107031
Br       3.31840146       4.65929507       5.74763977       0.00061386      -0.00086857       0.00106297
Br       5.49895998       1.57551980       9.52447749      -0.00061873       0.00087485      -0.00107174
