9
Lattice="6.231972853836439 -6.746372174822517e-08 3.5980311560023233 2.077324213684095 5.875560261132338 3.598031168685382 -4.262100283987292e-08 -1.4604049172589468e-08 7.196062385826374" Properties=species:S:1:pos:R:3:forces:R:3 energy=-35.2181510925293 free_energy=-35.2181510925293 stress="6.313508492894471e-05 -1.5220059879084147e-08 -3.4924036995676033e-09 -1.5220059879084147e-08 6.31329749012366e-05 -7.916312050326724e-09 -3.4924036995676033e-09 -7.916312050326724e-09 6.318759551504627e-05" pbc="T T T"
In       2.07732427       1.46889003       3.59803113      -0.00000002      -0.00000007      -0.00000007
In       6.23197306       4.40667035      10.79409368       0.00000020       0.00000021      -0.00000007
Ti       0.00000010      -0.00000041      -0.00000000      -0.00000178       0.00000470      -0.00000290
Cl       1.93218890       1.36626363       7.19606256       0.00045209       0.00031994       0.00000000
Cl       6.37710823       4.50929624       7.19606235      -0.00045344      -0.00032032      -0.00000032
Cl       5.26587831       1.36626374       5.27135622      -0.00022507       0.00031853       0.00038844
Cl       3.04341845       4.50929665       9.12076857       0.00022536      -0.00031926      -0.00038949
Cl       3.04341854       4.50929652       5.27135602       0.00022691      -0.00032052       0.00039108
Cl       5.26587821       1.36626386       9.12076826      -0.00022426       0.00031694      -0.00038692
