9
Lattice="6.929968774789417 -3.570224277289549e-08 4.001019390040867 2.309989541405533 6.5336372292350315 4.001019418672719 -4.797062947460875e-08 1.146293911429041e-09 8.00203886316929" Properties=species:S:1:pos:R:3:forces:R:3 energy=-27.909330368041992 free_energy=-27.909330368041992 stress="-0.00011799925414379686 -1.668681193223165e-08 2.763226092383775e-09 -1.668681193223165e-08 -0.00011799207277363166 3.5833935818629925e-09 2.763226092383775e-09 3.5833935818629925e-09 -0.00011797201295848936" pbc="T T T"
In       2.30998959       1.63340935       4.00101948       0.00000004      -0.00000007       0.00000019
In       6.92996868       4.90022785      12.00305819       0.00000002       0.00000008       0.00000017
Ti       0.00000001       0.00000032       0.00000062      -0.00000075      -0.00000136      -0.00000496
I        2.23752140       1.58216669       8.00203870       0.00349104       0.00246926      -0.00000005
I        7.00243671       4.95147037       8.00203883      -0.00348976      -0.00246756      -0.00000010
I        5.81120794       1.58216685       5.93876974      -0.00174470       0.00246751       0.00302231
I        3.42875045       4.95147031      10.06530752       0.00174316      -0.00246570      -0.00301978
I        3.42875031       4.95147017       5.93876982       0.00174453      -0.00246792       0.00302207
I        5.81120799       1.58216688      10.06530783      -0.00174364       0.00246583      -0.00301982
