9
Lattice="5.132206766534002 8.891659626776795e-08 2.963080831449831 1.7107356265402982 4.838691280555902 2.9630809113592993 -2.6472161589674724e-08 7.915004957300991e-08 5.926161708750817" Properties=species:S:1:pos:R:3:forces:R:3 energy=-44.681732177734375 free_energy=-44.681732177734375 stress="-9.28695772017818e-06 -1.478668854026921e-09 -1.7755237280425717e-09 -1.478668854026921e-09 -9.299023986386601e-06 5.978365358316751e-09 -1.7755237280425717e-09 5.978365358316751e-09 -9.361334377899766e-06" pbc="T T T"
In       1.71073548       1.20967305       2.96308090      -0.00000095       0.00000006      -0.00000024
In       5.13220662       3.62901886       8.88924287      -0.00000054       0.00000035       0.00000038
V       -0.00000010      -0.00000007       0.00000007      -0.00000281       0.00000021       0.00000008
F        1.56797554       1.10872610       5.92616196       0.00021923       0.00015438      -0.00000078
F        5.27496676       3.72996494       5.92616174      -0.00021616      -0.00015337      -0.00000032
F        4.34821919       1.10872649       4.32098762      -0.00010894       0.00015405       0.00018829
F        2.49472360       3.72996504       7.53133555       0.00010868      -0.00015350      -0.00018786
F        2.49472351       3.72996518       4.32098748       0.00010981      -0.00015552       0.00018902
F        4.34821882       1.10872642       7.53133544      -0.00010843       0.00015334      -0.00018840
