9
Lattice="6.845196049330738 2.1340779674791098e-08 3.952075744410657 2.281732024907422 6.453712699044973 3.9520757646002207 1.109681785849287e-08 3.257369195329152e-08 7.904151469601041" Properties=species:S:1:pos:R:3:forces:R:3 energy=-27.520530700683594 free_energy=-27.520530700683594 stress="-0.000226149961235933 9.549258273011674e-09 -6.5118479497527915e-09 9.549258273011674e-09 -0.00022615183843299747 5.451163520575619e-09 -6.5118479497527915e-09 5.451163520575619e-09 -0.00022616876231040806" pbc="T T T"
In       2.28173197       1.61342814       3.95207573       0.00000013      -0.00000007       0.00000005
In       6.84519613       4.84028459      11.85622720       0.00000009      -0.00000009      -0.00000019
V        0.00000002       0.00000002       0.00000004      -0.00000095      -0.00000017       0.00000130
I        2.19233900       1.55021773       7.90415147      -0.00376655      -0.00266311       0.00000029
I        6.93458904       4.90349501       7.90415152       0.00376700       0.00266366       0.00000024
I        5.74902663       1.55021777       5.85069697       0.00188331      -0.00266363      -0.00326197
I        3.37790150       4.90349496       9.95760605      -0.00188276       0.00266261       0.00326121
I        3.37790142       4.90349502       5.85069701      -0.00188293       0.00266321      -0.00326152
I        5.74902663       1.55021778       9.95760593       0.00188258      -0.00266251       0.00326070
