9
Lattice="6.15029923653824 -2.885563208676826e-08 3.550876911170928 2.0500997148461373 5.7985578787942025 3.5508769171659607 -8.442037562521062e-08 -5.2351777376061436e-08 7.101753968562269" Properties=species:S:1:pos:R:3:forces:R:3 energy=-34.444297790527344 free_energy=-34.444297790527344 stress="0.00013123659300617874 2.8662390239020397e-09 -2.2857474135662414e-08 2.8662390239020397e-09 0.00013126352860126644 7.730359463664627e-09 -2.2857474135662414e-08 7.730359463664627e-09 0.00013125153782311827" pbc="T T T"
In       2.05009957       1.44964046       3.55087708       0.00000005       0.00000018       0.00000020
In       6.15029943       4.34891815      10.65262971       0.00000003       0.00000006      -0.00000051
V        0.00000021      -0.00000034      -0.00000018       0.00000140       0.00000151       0.00000579
Cl       1.89677722       1.34122375       7.10175377       0.00009894       0.00006980       0.00000138
Cl       6.30362119       4.45733354       7.10175412      -0.00009787      -0.00007018       0.00000045
Cl       5.20191035       1.34122422       5.19353441      -0.00004764       0.00006717       0.00008380
Cl       2.99848835       4.45733416       9.00997387       0.00004934      -0.00007197      -0.00008568
Cl       2.99848844       4.45733368       5.19353422       0.00004801      -0.00006884       0.00008374
Cl       5.20191079       1.34122367       9.00997405      -0.00005230       0.00007242      -0.00008902
