9
Lattice="6.452515952568169 3.1178657307144884e-08 3.7253618877159846 2.15083864753504 6.08349040148942 3.725361944382632 2.5062649157590246e-08 8.712418136056e-08 7.4507237320221815" Properties=species:S:1:pos:R:3:forces:R:3 energy=-30.89128303527832 free_energy=-30.89128303527832 stress="7.781293970765546e-05 -1.0044232112704776e-08 6.75256028870308e-09 -1.0044232112704776e-08 7.781786553096026e-05 3.902518752596507e-09 6.75256028870308e-09 3.902518752596507e-09 7.781882595736533e-05" pbc="T T T"
In       2.15083855       1.52087246       3.72536191      -0.00000004       0.00000001       0.00000008
In       6.45251604       4.56261796      11.17608565       0.00000011      -0.00000011       0.00000010
V       -0.00000020      -0.00000003       0.00000073       0.00000117       0.00000212      -0.00000792
Br       2.02598855       1.43259037       7.45072387      -0.00145149      -0.00102638       0.00000048
Br       6.57736654       4.65090052       7.45072375       0.00144929       0.00102472       0.00000053
Br       5.43952170       1.43259034       5.47991937       0.00072546      -0.00102609      -0.00125550
Br       3.16383286       4.65090017       9.42152783      -0.00072617       0.00102730       0.00125842
Br       3.16383286       4.65090011       5.47991936      -0.00072537       0.00102587      -0.00125545
Br       5.43952160       1.43259023       9.42152788       0.00072698      -0.00102749       0.00125900
