9
Lattice="6.851371525805301 -1.8340123675904483e-09 3.9556412009604114 2.2837904939755838 6.459535040717209 3.955641223298823 -1.5083766857676544e-08 1.6692939351913708e-08 7.911282428046727" Properties=species:S:1:pos:R:3:forces:R:3 energy=-27.52067756652832 free_energy=-27.52067756652832 stress="-2.2727188024873612e-06 3.3344005334612348e-09 -1.33841415728142e-09 3.3344005334612348e-09 -2.268598336740979e-06 -2.052305880795302e-09 -1.33841415728142e-09 -2.052305880795302e-09 -2.2667354642180726e-06" pbc="T T T"
In       2.28379054       1.61488372       3.95564121      -0.00000016       0.00000002      -0.00000001
In       6.85137143       4.84465138      11.86692361      -0.00000007       0.00000005       0.00000008
V       -0.00000009      -0.00000010       0.00000044      -0.00000023      -0.00000043      -0.00000384
I        2.19191005       1.54991441       7.91128239      -0.00003649      -0.00002578      -0.00000001
I        6.94325202       4.90962067       7.91128239       0.00003761       0.00002664      -0.00000009
I        5.75541669       1.54991429       5.85389085       0.00001767      -0.00002491      -0.00003114
I        3.37974540       4.90962058       9.96867386      -0.00001898       0.00002643       0.00003299
I        3.37974531       4.90962080       5.85389072      -0.00001805       0.00002497      -0.00003149
I        5.75541664       1.54991440       9.96867393       0.00001878      -0.00002696       0.00003350
