9
Lattice="6.45381485405709 7.291465441403659e-08 3.726111888530154 2.1512716752801273 6.084715155232411 3.7261119084201844 1.7075421697429315e-07 1.451016599163506e-07 7.452223481305381" Properties=species:S:1:pos:R:3:forces:R:3 energy=-30.89126968383789 free_energy=-30.89126968383789 stress="0.00014930416364222765 -1.4211581911283133e-09 6.2396257050068016e-09 -1.4211581911283133e-09 0.0001493314775871113 2.5305211259762928e-09 6.2396257050068016e-09 2.5305211259762928e-09 0.0001493170129833743" pbc="T T T"
In       2.15127130       1.52117835       3.72611181      -0.00000001      -0.00000015      -0.00000015
In       6.45381512       4.56353677      11.17833539      -0.00000018       0.00000005      -0.00000005
V        0.00000017       0.00000044      -0.00000025      -0.00000087      -0.00000495       0.00000359
Br       2.02604508       1.43263040       7.45222370      -0.00190164      -0.00134522      -0.00000055
Br       6.57904107       4.65208470       7.45222367       0.00190610       0.00134772      -0.00000040
Br       5.44079243       1.43263066       5.48071849       0.00095142      -0.00134656      -0.00164847
Br       3.16429460       4.65208485       9.42372886      -0.00095246       0.00134708       0.00164884
Br       3.16429448       4.65208481       5.48071845      -0.00095326       0.00134768      -0.00165011
Br       5.44079267       1.43263055       9.42372899       0.00095095      -0.00134572       0.00164701
