9
Lattice="6.14929020655135 3.86956571364862e-08 3.5502942765031738 2.0497634021544946 5.79760656752831 3.550294339743563 -3.296003418920786e-08 5.414713237011711e-08 7.100588610094812" Properties=species:S:1:pos:R:3:forces:R:3 energy=-34.44430923461914 free_energy=-34.44430923461914 stress="0.00012056441482855007 9.408359424867285e-09 6.776228467231249e-09 9.408359424867285e-09 0.00012058589345542714 -1.1144951628239141e-08 6.776228467231249e-09 -1.1144951628239141e-08 0.00012054030958097428" pbc="T T T"
In       2.04976353       1.44940177       3.55029478       0.00000005       0.00000016       0.00000041
In       6.14928975       4.34820487      10.65088334      -0.00000032      -0.00000014       0.00000049
V       -0.00000047      -0.00000016      -0.00000040       0.00000955       0.00000267       0.00000906
Cl       1.89690329       1.34131349       7.10058832      -0.00166097      -0.00117515       0.00000083
Cl       6.30215050       4.45629401       7.10058817       0.00165409       0.00116868       0.00000004
Cl       5.20083858       1.34131304       5.19305986       0.00082959      -0.00117192      -0.00143379
Cl       2.99821467       4.45629352       9.00811722      -0.00082710       0.00116959       0.00143126
Cl       2.99821543       4.45629288       5.19306030      -0.00083126       0.00117558      -0.00143877
Cl       5.20083891       1.34131336       9.00811725       0.00082633      -0.00116959       0.00143021
