9
Lattice="6.911116943076918 -1.5831126917778485e-07 3.990135363614595 2.3037054422537317 6.5158636008340665 3.9901354609233337 -5.531108153044444e-08 8.006751636933571e-08 7.980270823030838" Properties=species:S:1:pos:R:3:forces:R:3 energy=-29.47751808166504 free_energy=-29.47751808166504 stress="-4.399792669573799e-05 -3.891194211291804e-08 -2.3207979982231564e-09 -3.891194211291804e-08 -4.3975302105536684e-05 1.6232718502706689e-09 -2.3207979982231564e-09 1.6232718502706689e-09 -4.394969801069237e-05" pbc="T T T"
In       2.30370573       1.62896601       3.99013540       0.00000036      -0.00000009      -0.00000008
In       6.91111661       4.88689763      11.97040623      -0.00000021      -0.00000009       0.00000003
W        0.00000021       0.00000026       0.00000029      -0.00000498      -0.00000505      -0.00000382
I        2.24322484       1.58619953       7.98027079       0.00119351       0.00084421       0.00000022
I        6.97159732       4.92966384       7.98027072      -0.00118813      -0.00083993       0.00000020
I        5.78950398       1.58620020       5.93282607      -0.00059358       0.00083937       0.00102800
I        3.42531849       4.92966310      10.02771549       0.00059240      -0.00083771      -0.00102599
I        3.42531831       4.92966334       5.93282594       0.00059367      -0.00083923       0.00102830
I        5.78950387       1.58620013      10.02771570      -0.00059296       0.00083853      -0.00102691
