9
Lattice="5.358100462202484 -1.7922470548048416e-07 3.0935006518021377 1.7860334340887656 5.051664737335655 3.0935004514686226 1.5808678311718316e-07 -1.3357322884389038e-07 6.1870010297899425" Properties=species:S:1:pos:R:3:forces:R:3 energy=-44.007911682128906 free_energy=-44.007911682128906 stress="-1.663578223087825e-05 -4.0384907862289765e-08 2.8183793077118935e-08 -4.0384907862289765e-08 -1.6632173355901614e-05 -3.83621703292647e-08 2.8183793077118935e-08 -3.83621703292647e-08 -1.656965287111234e-05" pbc="T T T"
In       1.78603374       1.26291603       3.09350044       0.00000007      -0.00000043       0.00000002
In       5.35810024       3.78874846       9.28050173       0.00000051       0.00000015       0.00000015
W        0.00000029      -0.00000004       0.00000002      -0.00000744       0.00000012      -0.00000403
F        1.64142627       1.16066310       6.18700119       0.00265025       0.00187425      -0.00000013
F        5.50270792       3.89100120       6.18700124      -0.00264626      -0.00187165       0.00000011
F        4.53738728       1.16066330       4.51501685      -0.00132304       0.00187156       0.00229176
F        2.60674661       3.89100128       7.85898453       0.00132302      -0.00187138      -0.00229104
F        2.60674646       3.89100117       4.51501746       0.00132307      -0.00187036       0.00229050
F        4.53738745       1.16066319       7.85898515      -0.00132023       0.00186774      -0.00228734
