9
Lattice="6.585241572438266 5.3189759314334775e-08 3.8019909004891725 2.195080532390506 6.208625180517312 3.801990973067924 -3.593306942535385e-08 6.348188330075102e-08 7.6039818632162826" Properties=species:S:1:pos:R:3:forces:R:3 energy=-33.198646545410156 free_energy=-33.198646545410156 stress="0.0002510767080821097 7.296290238656411e-09 -2.2122309317751387e-08 7.296290238656411e-09 0.0002510708582121879 2.4674312371075757e-08 -2.2122309317751387e-08 2.4674312371075757e-08 0.0002510483027435839" pbc="T T T"
In       2.19508048       1.55215637       3.80199090       0.00000009       0.00000009       0.00000019
In       6.58524153       4.65646884      11.40597270       0.00000003       0.00000006      -0.00000001
W        0.00000050       0.00000083       0.00000128      -0.00000510      -0.00001210      -0.00002121
Br       2.07229394       1.46533328       7.60398167      -0.00359537      -0.00254277       0.00000024
Br       6.70802763       4.74329149       7.60398202       0.00360456       0.00254933      -0.00000043
Br       5.54909455       1.46533290       5.59664998       0.00179633      -0.00254050      -0.00311133
Br       3.23122783       4.74329154       9.61131321      -0.00180526       0.00255276       0.00312542
Br       3.23122726       4.74329228       5.59664973      -0.00179590       0.00254056      -0.00311115
Br       5.54909454       1.46533364       9.61131352       0.00180063      -0.00254747       0.00311840
