9
Lattice="6.644118832323499 1.8174669182901564e-08 3.8359837437241686 2.214706354723187 6.264135024149045 3.8359836395469165 2.5448251751646196e-08 -1.0959589978911911e-07 7.671967443370588" Properties=species:S:1:pos:R:3:forces:R:3 energy=-32.321048736572266 free_energy=-32.321048736572266 stress="0.00016384331684093922 1.3653461472529216e-08 1.2809325822260575e-09 1.3653461472529216e-08 0.0001638379762880504 -4.854292523504e-09 1.2809325822260575e-09 -4.854292523504e-09 0.00016382614558096975" pbc="T T T"
In       2.21470628       1.56603376       3.83598371      -0.00000008       0.00000073      -0.00000004
In       6.64411892       4.69810126      11.50795111      -0.00000007      -0.00000028      -0.00000071
Y        0.00000005      -0.00000016       0.00000021      -0.00000053       0.00000077      -0.00000287
Br       2.25989848       1.59798942       7.67196744      -0.00056938      -0.00040225      -0.00000004
Br       6.59892682       4.66614552       7.67196740       0.00056941       0.00040247       0.00000037
Br       5.51416992       1.59798908       5.79311281       0.00028341      -0.00040092      -0.00049016
Br       3.34465538       4.66614558       9.55082210      -0.00028368       0.00040112       0.00049150
Br       3.34465533       4.66614581       5.79311272      -0.00028332       0.00040038      -0.00049080
Br       5.51416966       1.59798946       9.55082187       0.00028421      -0.00040201       0.00049280
