9
Lattice="6.3336045186127095 7.03343289392783e-08 3.656708265800089 2.111201516740685 5.971379914227245 3.656708362405872 -2.1140683303365418e-08 1.0336874412194658e-07 7.313416568216947" Properties=species:S:1:pos:R:3:forces:R:3 energy=-35.63032913208008 free_energy=-35.63032913208008 stress="-3.4623471947270446e-06 4.763991867662298e-09 -6.249208706066156e-09 4.763991867662298e-09 -3.463905841272208e-06 1.6567497596042813e-08 -6.249208706066156e-09 1.6567497596042813e-08 -3.467260739853373e-06" pbc="T T T"
In       2.11120180       1.49284514       3.65670832      -0.00000000      -0.00000012       0.00000025
In       6.33360451       4.47853512      10.97012484       0.00000036       0.00000031       0.00000001
Y       -0.00000016       0.00000003      -0.00000023       0.00000166       0.00000353      -0.00000152
Cl       2.12640645       1.50359653       7.31341665       0.00028306       0.00020041       0.00000162
Cl       6.31839984       4.46778336       7.31341673      -0.00028789      -0.00020268      -0.00000016
Cl       5.27040113       1.50359645       5.49823040      -0.00014143       0.00020168       0.00024606
Cl       3.17440444       4.46778378       9.12860300       0.00014390      -0.00020246      -0.00024757
Cl       3.17440470       4.46778357       5.49823010       0.00014377      -0.00020283       0.00024842
Cl       5.27040130       1.50359643       9.12860297      -0.00014355       0.00020223      -0.00024697
