9
Lattice="6.8091309092390695 7.647393280995802e-08 3.9312534814311753 2.269710357275598 6.419710232346681 3.931253512442596 -1.5662361302914765e-08 2.690612224959807e-08 7.862506989990376" Properties=species:S:1:pos:R:3:forces:R:3 energy=-18.83392333984375 free_energy=-18.83392333984375 stress="8.055891521507874e-05 -7.290565484652234e-09 1.6432925853404612e-10 -7.290565484652234e-09 8.056408842094243e-05 -2.0072041806429297e-09 1.6432925853404612e-10 -2.0072041806429297e-09 8.056298247538507e-05" pbc="T T T"
In       2.26971026       1.60492756       3.93125342       0.00000056      -0.00000021      -0.00000014
In       6.80913099       4.81478281      11.79376064      -0.00000039      -0.00000028      -0.00000011
Zn       0.00000000      -0.00000001       0.00000064       0.00000005       0.00000011      -0.00000414
I        2.27451047       1.60832174       7.86250722      -0.00012581      -0.00008979      -0.00000033
I        6.80433102       4.81138872       7.86250722       0.00012524       0.00008952      -0.00000035
I        5.67187589       1.60832139       5.90103697       0.00006167      -0.00008756      -0.00010850
I        3.40696563       4.81138825       9.82397641      -0.00006379       0.00009144       0.00011106
I        3.40696524       4.81138897       5.90103694      -0.00006123       0.00008763      -0.00010893
I        5.67187551       1.60832193       9.82397644       0.00006367      -0.00009082       0.00011156
