9
Lattice="6.2714881923051395 1.5222973725877786e-07 3.6208453151246967 2.090496091940061 5.912815971721548 3.620845515497445 -1.2680427975165993e-07 1.5574136087216812e-07 7.241690849880829" Properties=species:S:1:pos:R:3:forces:R:3 energy=-37.3776969909668 free_energy=-37.3776969909668 stress="9.703976684249938e-05 3.9970750265183597e-08 -4.497537275938157e-08 3.9970750265183597e-08 9.702615352580324e-05 6.934223506505077e-08 -4.497537275938157e-08 6.934223506505077e-08 9.699522342998534e-05" pbc="T T T"
In       2.09049600       1.47820408       3.62084545       0.00000000      -0.00000016      -0.00000009
In       6.27148810       4.43461229      10.86253624       0.00000013      -0.00000018       0.00000018
Zr      -0.00000010       0.00000027       0.00000028       0.00000439      -0.00000961      -0.00000284
Cl       2.02668445       1.43308267       7.24169091       0.00009879       0.00006863      -0.00000064
Cl       6.33529934       4.47973343       7.24169075      -0.00009583      -0.00006760       0.00000001
Cl       5.25814614       1.43308247       5.37600549      -0.00005146       0.00007095       0.00008811
Cl       3.10383850       4.47973336       9.10737545       0.00004632      -0.00006489      -0.00007916
Cl       3.10383803       4.47973420       5.37600553       0.00005188      -0.00007373       0.00008927
Cl       5.25814624       1.43308232       9.10737662      -0.00005425       0.00007648      -0.00009490
