9
Lattice="6.200038486360393 7.399342127152876e-08 3.5795937161666425 2.0666794795177643 5.845452585012509 3.5795938645989107 -7.267759782755563e-08 1.3040085551591012e-07 7.159187558214542" Properties=species:S:1:pos:R:3:forces:R:3 energy=-23.85063362121582 free_energy=-23.85063362121582 stress="7.689648919040337e-05 5.489532384217455e-09 -5.403760550137804e-09 5.489532384217455e-09 7.690324855502695e-05 6.52633502795652e-09 -5.403760550137804e-09 6.52633502795652e-09 7.689408084843308e-05" pbc="T T T"
In       2.06667897       1.46136355       3.57959397      -0.00000060       0.00000079       0.00000000
In       6.20003826       4.38408984      10.73878082      -0.00000039       0.00000116      -0.00000073
Zn      -0.00000006      -0.00000029       0.00000104       0.00000293       0.00000077      -0.00000811
Cl       1.99621814       1.41153986       7.15918783      -0.00105563      -0.00074640      -0.00000219
Cl       6.27050000       4.43391338       7.15918783       0.00105262       0.00074399      -0.00000134
Cl       5.20192948       1.41153903       5.30836937       0.00052474      -0.00074255      -0.00091079
Cl       3.06478926       4.43391243       9.01000542      -0.00052951       0.00074896       0.00091755
Cl       3.06478851       4.43391369       5.30836881      -0.00052409       0.00074193      -0.00090957
Cl       5.20192920       1.41153972       9.01000540       0.00052989      -0.00074887       0.00091487
