9
Lattice="5.380058543901412 -4.9866810747509704e-08 3.1061780527915386 1.7933528145756163 5.072368047251063 3.1061780291951124 1.0129601316897089e-08 -2.1736849986038766e-08 6.212356088038088" Properties=species:S:1:pos:R:3:forces:R:3 energy=-49.95374298095703 free_energy=-49.95374298095703 stress="0.00018972087127622217 -4.45160353024221e-08 -9.96854421231319e-09 -4.45160353024221e-08 0.00018974683189298958 3.84381024787217e-08 -9.96854421231319e-09 3.84381024787217e-08 0.00018975629063788801" pbc="T T T"
In       1.79335285       1.26809203       3.10617816       0.00000017       0.00000040      -0.00000001
In       5.38005881       3.80427582       9.31853413      -0.00000050      -0.00000005       0.00000054
Zr      -0.00000010      -0.00000013       0.00000012      -0.00000168       0.00000221       0.00000747
F        1.66417825       1.17675185       6.21235605      -0.00603911      -0.00427022      -0.00000014
F        5.50923285       3.89561602       6.21235581       0.00603925       0.00427053       0.00000028
F        4.54796909       1.17675210       4.54739892       0.00302394      -0.00427613      -0.00523655
F        2.62544206       3.89561608       7.87731302      -0.00302029       0.00427186       0.00523129
F        2.62544222       3.89561610       4.54739910      -0.00302149       0.00427198      -0.00523256
F        4.54796940       1.17675195       7.87731346       0.00301971      -0.00427064       0.00522962
