9
Lattice="6.438314214035351 6.402861545811378e-08 3.717162566706341 2.1461047902711785 6.0701011755304926 3.7171625807487407 2.004521832975256e-08 3.137245621056203e-08 7.434325098693348" Properties=species:S:1:pos:R:3:forces:R:3 energy=-21.487197875976562 free_energy=-21.487197875976562 stress="8.201257878681645e-05 -3.343673338207509e-09 -3.68189723154444e-09 -3.343673338207509e-09 8.20162968011573e-05 -2.1574944053526224e-09 -3.68189723154444e-09 -2.1574944053526224e-09 8.201826858567074e-05" pbc="T T T"
In       2.14610506       1.51752487       3.71716273       0.00000066      -0.00000052       0.00000001
In       6.43831384       4.55257641      11.15148780      -0.00000053       0.00000038      -0.00000031
Zn       0.00000004       0.00000005       0.00000010       0.00000001      -0.00000004       0.00000070
Br       2.10799055       1.49057446       7.43432502       0.00088495       0.00062533       0.00000036
Br       6.47642855       4.57952675       7.43432522      -0.00088474      -0.00062500       0.00000050
Br       5.38431887       1.49057462       5.54273623      -0.00044194       0.00062445       0.00076613
Br       3.20009992       4.57952670       9.32591399       0.00044259      -0.00062568      -0.00076661
Br       3.20010032       4.57952660       5.54273604       0.00044160      -0.00062461       0.00076562
Br       5.38431888       1.49057456       9.32591392      -0.00044261       0.00062579      -0.00076613
