9
Lattice="4.699208183198484 -4.499389927404846e-08 2.713089072319361 1.5664027087465677 4.430455798747631 2.713089031729819 -9.418039847091316e-09 -5.637140821610975e-08 5.4261781609512445" Properties=species:S:1:pos:R:3:forces:R:3 energy=-35.161956787109375 free_energy=-35.161956787109375 stress="0.00047193473437801003 -4.666204844738786e-08 -2.14406394860589e-08 -4.666204844738786e-08 0.0004719007993116975 -1.652203707180888e-08 -2.14406394860589e-08 -1.652203707180888e-08 0.00047191529301926494" pbc="T T T"
In       1.56640269       1.10761391       2.71308891      -0.00000019       0.00000133      -0.00000140
In       4.69920813       3.32284192       8.13926696       0.00000001       0.00000184      -0.00000218
Zn       0.00000002      -0.00000001      -0.00000010       0.00000148       0.00000244       0.00000205
F        1.59609560       1.12861001       5.42617821      -0.00098336      -0.00069508      -0.00000020
F        4.66951542       3.30184564       5.42617833       0.00098121       0.00069138       0.00000192
F        3.90116023       1.12860994       4.09534860       0.00049287      -0.00069702      -0.00085118
F        2.36445050       3.30184566       6.75700777      -0.00049245       0.00069466       0.00085074
F        2.36445063       3.30184569       4.09534850      -0.00048923       0.00069496      -0.00085020
F        3.90116035       1.12861001       6.75700788       0.00049007      -0.00069448       0.00085092
