9
Lattice="7.019573387012154 -6.604721452504862e-08 4.052752606240158 2.339857766586384 6.618117189821669 4.0527525487610365 6.011707845450807e-08 -2.7888047612572394e-08 8.105505108354441" Properties=species:S:1:pos:R:3:forces:R:3 energy=-29.637914657592773 free_energy=-29.637914657592773 stress="0.0001512763265054673 6.9853678397180374e-09 4.737842118629487e-09 6.9853678397180374e-09 0.00015127804363146424 -6.237482530480065e-09 4.737842118629487e-09 -6.237482530480065e-09 0.0001512582239229232" pbc="T T T"
In       2.33985772       1.65452932       4.05275252      -0.00000017      -0.00000007       0.00000005
In       7.01957348       4.96358776      12.15825780       0.00000000       0.00000020      -0.00000015
Zr      -0.00000037      -0.00000008       0.00000008       0.00000385      -0.00000051       0.00000048
I        2.33243447       1.64928009       8.10550514      -0.00399910      -0.00282809      -0.00000001
I        7.02699699       4.96883722       8.10550506       0.00399609       0.00282593       0.00000002
I        5.85335629       1.64927980       6.07269976       0.00199810      -0.00282534      -0.00346018
I        3.50607497       4.96883708      10.13831033      -0.00199793       0.00282659       0.00346121
I        3.50607504       4.96883723       6.07269976      -0.00199893       0.00282718      -0.00346207
I        5.85335623       1.64927994      10.13831060       0.00199805      -0.00282590       0.00346059
