9
Lattice="4.404381055427228 6.787699515875706e-08 2.542870739447144 1.4681270543249467 4.15249060758006 2.5428707881971473 -3.068490711512428e-08 3.800882750755678e-08 5.085741532042097" Properties=species:S:1:pos:R:3:forces:R:3 energy=-46.38738250732422 free_energy=-46.38738250732422 stress="0.0007096537738107145 1.5151630350374035e-07 1.360919910098346e-08 1.5151630350374035e-07 0.000709724030457437 -1.2742154353873048e-07 1.360919910098346e-08 -1.2742154353873048e-07 0.000709966232534498" pbc="T T T"
Ir       1.46812504       1.03812647       2.54287009      -0.00004990       0.00007179      -0.00000089
Ir       4.40437497       3.11437201       7.62861439      -0.00010393       0.00007533       0.00003116
Co       0.00000004       0.00000021       0.00000007      -0.00000193      -0.00000855       0.00000604
O        1.45757764       1.03066024       5.08574498      -0.00029922      -0.00026566       0.00003973
O        4.41493433       3.12182448       5.08574227       0.00038087       0.00017822       0.00000949
O        3.67559163       1.03066141       3.80516880       0.00015867      -0.00025260      -0.00028533
O        2.19691599       3.12183049       6.36631307      -0.00014713       0.00024879       0.00027871
O        2.19691959       3.12182652       3.80516525      -0.00010708       0.00020868      -0.00034654
O        3.67559305       1.03066096       6.36631333       0.00016958      -0.00025576       0.00026751
