9
Lattice="4.242926523838447 -1.0588798038184177e-07 2.4496549008810153 1.4143087804355798 4.000269932103805 2.449654833351375 2.521821155784234e-07 9.561308818673854e-08 4.899309364969748" Properties=species:S:1:pos:R:3:forces:R:3 energy=-49.74126052856445 free_energy=-49.74126052856445 stress="-3.62830214726273e-05 6.371258791659784e-07 -5.268889253784437e-07 6.371258791659784e-07 -3.9351445593638346e-05 -3.660838672203681e-07 -5.268889253784437e-07 -3.660838672203681e-07 -3.455050682532601e-05" pbc="T T T"
Ir       1.41428815       1.00006292       2.44963321      -0.00052590       0.00002644      -0.00067197
Ir       4.24291785       3.00022277       7.34893537      -0.00033903       0.00041618      -0.00078310
C       -0.00000777       0.00000126      -0.00001106      -0.00024934       0.00008590      -0.00039069
O        1.25664525       0.88857136       4.89931978       0.00073284       0.00023687       0.00033457
O        4.40060409       3.11168844       4.89932169      -0.00036091      -0.00049227       0.00036437
O        3.61461383       0.88857039       3.53794722      -0.00006583       0.00020427       0.00081551
O        2.04263748       3.11169111       6.26069386       0.00051868      -0.00045818      -0.00016314
O        2.04263084       3.11169707       3.53794748       0.00039333      -0.00032741       0.00076878
O        3.61461300       0.88857427       6.26068937      -0.00010350       0.00030780      -0.00027496
