9
Lattice="4.971117378112775 -1.9737036907247843e-08 2.8700759839746564 1.6570391480015776 4.686814370341657 2.870075913701418 7.137090548400742e-08 -3.559990840549019e-08 5.740151844331223" Properties=species:S:1:pos:R:3:forces:R:3 energy=-44.844993591308594 free_energy=-44.844993591308594 stress="-0.0002580496948212385 -1.7293974252652333e-08 -4.000876074883308e-08 -1.7293974252652333e-08 -0.00025798773276619613 -4.7315982243389954e-08 -4.000876074883308e-08 -4.7315982243389954e-08 -0.00025815548724494874" pbc="T T T"
Ir       1.65703889       1.17170015       2.87007635      -0.00001177      -0.00010532       0.00000506
Ir       4.97112069       3.51511390       8.61023088       0.00009154       0.00009409       0.00007543
Cr      -0.00000005      -0.00000002      -0.00000024      -0.00000910       0.00000360      -0.00000555
S        1.77954154       1.25832513       5.74015215      -0.00452012      -0.00321165       0.00000171
S        4.84861447       3.42848941       5.74015022       0.00450408       0.00322804      -0.00003545
S        4.08134658       1.25832447       4.41120446       0.00225711      -0.00322855      -0.00390077
S        2.54680860       3.42849020       7.06909821      -0.00229463       0.00323665       0.00386447
S        2.54680960       3.42849011       4.41120452      -0.00226605       0.00323462      -0.00388730
S        4.08134608       1.25832397       7.06909840       0.00224876      -0.00325087       0.00388247
