9
Lattice="5.212951835412276 -2.152219918384511e-08 3.009699101689321 1.737650591014871 4.914818213295929 3.0096991025516693 -3.437351958408466e-08 -2.3249578124621957e-08 6.019398262915321" Properties=species:S:1:pos:R:3:forces:R:3 energy=-41.799922943115234 free_energy=-41.799922943115234 stress="2.678438977454789e-05 7.793555312218814e-08 -3.3556318612681935e-07 7.793555312218814e-08 2.6549936592346057e-05 -3.086719004841143e-07 -3.3556318612681935e-07 -3.086719004841143e-07 2.6966787117999047e-05" pbc="T T T"
Ir       1.73765630       1.22871226       3.00968885       0.00018030       0.00024747      -0.00036144
Ir       5.21295137       3.68611042       9.02911663      -0.00003029      -0.00011985       0.00061884
Cr      -0.00000013      -0.00000017      -0.00000109      -0.00001002      -0.00000920      -0.00001363
Se       1.90278630       1.34547473       6.01940418       0.00012302       0.00014511       0.00022103
Se       5.04781587       3.56934309       6.01938793      -0.00012028      -0.00015023      -0.00033858
Se       4.26156095       1.34547912       4.65755800       0.00001946       0.00029677       0.00002399
Se       2.68903773       3.56933821       7.38123685      -0.00012055      -0.00031424      -0.00008532
Se       2.68904875       3.56934377       4.65755791       0.00023052      -0.00012368       0.00001997
Se       4.26155243       1.34547128       7.38123663      -0.00027201       0.00002816      -0.00008500
