9
Lattice="4.613757282559896 -1.4266948933365773e-07 2.6637535714837157 1.5379189467574446 4.34989188947277 2.663753593860158 -1.2148512686800785e-07 -5.8497461023966396e-08 5.32750735338582" Properties=species:S:1:pos:R:3:forces:R:3 energy=-41.83789825439453 free_energy=-41.83789825439453 stress="-0.00012270630395505577 2.5893629640449944e-07 1.0693906915548723e-07 2.5893629640449944e-07 -0.0001220077247126028 2.0566719172165904e-07 1.0693906915548723e-07 2.0566719172165904e-07 -0.00012199286720715463" pbc="T T T"
Ir       1.53790581       1.08747351       2.66375649      -0.00000554      -0.00000411       0.00000510
Ir       4.61376248       3.26241706       7.99126949      -0.00000266      -0.00000171       0.00000810
C        0.00000009      -0.00000365       0.00000852      -0.00000794      -0.00002590       0.00007305
S        1.58523236       1.12093289       5.32750681       0.00110996       0.00080478       0.00000255
S        4.56644525       3.22895930       5.32750252      -0.00111580      -0.00079417      -0.00001191
S        3.82114738       1.12093177       4.03660709      -0.00053489       0.00080538       0.00096035
S        2.33053004       3.22896388       6.61840161       0.00052816      -0.00077605      -0.00099981
S        2.33053437       3.22896385       4.03660563       0.00055808      -0.00078928       0.00096107
S        3.82114672       1.12092809       6.61839987      -0.00052887       0.00077963      -0.00099719
