9
Lattice="4.386485205395667 1.3670535015790574e-07 2.5325385097014745 1.462161827636172 4.135618035609992 2.5325385727182264 1.7326190015525184e-08 8.943092116641014e-08 5.065076989393091" Properties=species:S:1:pos:R:3:forces:R:3 energy=-49.470394134521484 free_energy=-49.470394134521484 stress="0.0009244154789485037 -3.3678191346808717e-09 -2.664844203081884e-07 -3.3678191346808717e-09 0.0009240249637514353 -3.100074508211037e-08 -2.664844203081884e-07 -3.100074508211037e-08 0.0009242512169294059" pbc="T T T"
Ir       1.46215716       1.03390592       2.53254120      -0.00010897       0.00001288       0.00009332
Ir       4.38648215       3.10170856       7.59762556      -0.00007631      -0.00009743       0.00021623
Cr      -0.00000092       0.00000057       0.00000220      -0.00000227      -0.00000806      -0.00000190
O        1.47311041       1.04164818       5.06507347       0.00572056       0.00405765      -0.00007315
O        4.37553657       3.09397154       5.06507101      -0.00570065      -0.00403938      -0.00011043
O        3.64993114       1.04165004       3.80828692      -0.00283426       0.00411788       0.00489420
O        2.19871762       3.09396787       6.32186565       0.00286835      -0.00406414      -0.00492862
O        2.19871911       3.09397429       3.80828976       0.00291136      -0.00401509       0.00493923
O        3.64993489       1.04164600       6.32186062      -0.00277874       0.00403589      -0.00502872
