9
Lattice="4.967356567593797 2.7390887940248295e-08 2.8679046823064502 1.6557855568050832 4.683268610313994 2.867904667671593 2.058149714012336e-08 -3.3706397808521467e-09 5.735809328964715" Properties=species:S:1:pos:R:3:forces:R:3 energy=-42.384029388427734 free_energy=-42.384029388427734 stress="0.00013525433314498514 -9.626226216141731e-08 4.412693499489251e-08 -9.626226216141731e-08 0.0001351212995359674 7.264580403898435e-08 4.412693499489251e-08 7.264580403898435e-08 0.00013518113701138645" pbc="T T T"
Ir       1.65578390       1.17081852       2.86790736      -0.00005332       0.00003135       0.00007746
Ir       4.96736263       3.51245307       8.60370934       0.00015393       0.00004231      -0.00012968
Co      -0.00000029      -0.00000024       0.00000046      -0.00000864      -0.00000133      -0.00000178
S        1.74480711       1.23376663       5.73580803       0.00526541       0.00376076      -0.00004167
S        4.87833443       3.44950189       5.73581164      -0.00527680      -0.00376710       0.00006322
S        4.09495185       1.23376345       4.37895440      -0.00265929       0.00368348       0.00461760
S        2.52818897       3.44950345       7.09266457       0.00262035      -0.00371912      -0.00460255
S        2.52818616       3.44950217       4.37895416       0.00255696      -0.00376269       0.00462103
S        4.09495387       1.23376563       7.09266475      -0.00259903       0.00373232      -0.00460362
