9
Lattice="6.192294437487608 0.5147080300466623 3.530797230589786 1.7571691146728663 5.016002020096472 3.4680304922903353 0.13847338053253322 0.7709884372302784 6.1574296565028215" Properties=species:S:1:pos:R:3:forces:R:3 energy=-48.75470733642578 free_energy=-48.75470733642578 stress="-0.0019223452545702457 0.0001904073724290356 -8.049749453675759e-07 0.0001904073724290356 -0.002469542669132352 -3.5812034184345976e-05 -8.049749453675759e-07 -3.5812034184345976e-05 -0.002507721306756139" pbc="T T T"
Ir       2.28689013       2.61068832       2.70467234      -0.00545032       0.03298412       0.11403798
Ir       5.80561331       3.69411951      10.44121316      -0.01041821      -0.04616293      -0.05742469
Fe       0.00073190       0.00293191       0.00769098      -0.01038904      -0.01207031      -0.03627126
Se       1.91280374       2.22354194       6.67298272       0.01045710       0.02705302      -0.07050394
Se       6.17898918       4.08260713       6.48684162      -0.02372012      -0.04721282       0.03357174
Se       5.22594049       0.81562434       5.65959045      -0.02151886       0.02244959      -0.00751010
Se       2.84856969       5.47880847       7.50127030       0.04569885       0.01163839       0.00611871
Se       3.22835283       3.66975972       4.71892004      -0.01432104      -0.07125698       0.02499181
Se       4.86295584       2.62858770       8.43208715       0.02966142       0.08257825      -0.00701019
