9
Lattice="4.4369632942248955 -7.852860840410462e-08 2.561681746191528 1.478987749448829 4.183208608448771 2.561681644442757 1.4587653425168166e-07 -2.1466034296288167e-08 5.123363239717416" Properties=species:S:1:pos:R:3:forces:R:3 energy=-45.471107482910156 free_energy=-45.471107482910156 stress="-0.0004635849909391254 1.0495821101130787e-07 -3.7490991644517635e-08 1.0495821101130787e-07 -0.00046373510849662125 -2.331336901306713e-09 -3.7490991644517635e-08 -2.331336901306713e-09 -0.0004631694173440337" pbc="T T T"
Ir       1.47901332       1.04579902       2.56166725       0.00047884      -0.00007655      -0.00029235
Ir       4.43698303       3.13739531       7.68503316       0.00039914      -0.00020769      -0.00022202
Fe      -0.00000066      -0.00000020       0.00000026       0.00001495      -0.00000166      -0.00000870
O        1.47836782       1.04536932       5.12336576       0.00703779       0.00512913       0.00006654
O        4.43757615       3.13784122       5.12336857      -0.00722268      -0.00498879       0.00012743
O        3.69777177       1.04536384       3.84199385      -0.00369170       0.00499085       0.00623763
O        2.21815737       3.13784190       6.40473128       0.00332706      -0.00504243      -0.00623870
O        2.21817338       3.13784426       3.84199261       0.00347194      -0.00500548       0.00624755
O        3.69776272       1.04537955       6.40475370      -0.00381559       0.00520226      -0.00591764
