9
Lattice="4.945352295537346 2.5460151200972575e-08 2.8552004852948567 1.6484508088368697 4.662522744034484 2.8552004512536135 3.182721989797116e-08 -1.9186591495393255e-08 5.710400915463346" Properties=species:S:1:pos:R:3:forces:R:3 energy=-43.41986846923828 free_energy=-43.41986846923828 stress="9.593385766493157e-05 -2.981830249382256e-08 -7.828600701031974e-08 -2.981830249382256e-08 9.593225695425645e-05 -3.6831480088039825e-08 -7.828600701031974e-08 -3.6831480088039825e-08 9.59633689490147e-05" pbc="T T T"
Ir       1.64844903       1.16562744       2.85520046      -0.00005471      -0.00008828      -0.00000417
Ir       4.94535325       3.49688894       8.56560651       0.00002386      -0.00008261       0.00013420
Fe       0.00000013       0.00000043      -0.00000051       0.00000246       0.00001707      -0.00001323
S        1.74457998       1.23360561       5.71040093       0.00383061       0.00275069       0.00000255
S        4.84922243       3.42891874       5.71039855      -0.00385445      -0.00270683      -0.00006081
S        4.07306342       1.23360625       4.36605078      -0.00188690       0.00276610       0.00331771
S        2.52073993       3.42891910       7.05474896       0.00189698      -0.00269148      -0.00337043
S        2.52074198       3.42891979       4.36605154       0.00195178      -0.00268501       0.00334135
S        4.07306241       1.23360469       7.05475007      -0.00190946       0.00272018      -0.00334713
