9
Lattice="4.92992012452891 1.389023349369085e-07 2.8462908435052845 1.643306817326494 4.647974193185297 2.846290881278126 -2.0525740556758384e-07 -9.887680152770362e-08 5.692582042526806" Properties=species:S:1:pos:R:3:forces:R:3 energy=-37.564697265625 free_energy=-37.564697265625 stress="-0.00020088040037080646 -8.280129577542539e-07 8.282775638690509e-07 -8.280129577542539e-07 -0.00020453339675441384 5.18330750765017e-07 8.282775638690509e-07 5.18330750765017e-07 -0.0002031022304436192" pbc="T T T"
Ir       1.64328497       1.16202045       2.84629290      -0.00060514       0.00072899       0.00009868
Ir       4.92992759       3.48597666       8.53885405       0.00025470      -0.00017206      -0.00051539
Ge       0.00000070      -0.00000121       0.00000111       0.00001859      -0.00002956       0.00001791
S        1.78796935       1.26429429       5.69257947       0.00301037       0.00240375      -0.00009338
S        4.78526390       3.38367040       5.69259212      -0.00284513      -0.00263793       0.00027750
S        4.03594097       1.26428604       4.39472771      -0.00137281       0.00216264       0.00287664
S        2.53729200       3.38367957       6.99044570       0.00150733      -0.00236706      -0.00263987
S        2.53728214       3.38367703       4.39472211       0.00124574      -0.00245843       0.00274598
S        4.03594535       1.26429368       6.99043992      -0.00121337       0.00236968      -0.00276868
