9
Lattice="5.356109085952945 -2.9451910010553955e-07 3.0923506242150727 1.7853694458250293 5.049787442385785 3.092350575401313 -6.246905144153991e-07 -5.015073249734406e-07 6.184702330425865" Properties=species:S:1:pos:R:3:forces:R:3 energy=-35.78461456298828 free_energy=-35.78461456298828 stress="-4.434128641150892e-06 5.895210364315062e-08 1.6267977116513066e-06 5.895210364315062e-08 -2.488544396328507e-06 1.1448406667113886e-06 1.6267977116513066e-06 1.1448406667113886e-06 -4.370300302980468e-06" pbc="T T T"
Ir       1.78536035       1.26244330       3.09236208      -0.00022026      -0.00012861       0.00036445
Ir       5.35609811       3.78735944       9.27702280      -0.00025907       0.00053388      -0.00083525
Ge       0.00000057      -0.00000072       0.00000069       0.00002165      -0.00001261       0.00001489
Se       2.00358998       1.41673801       6.18469545       0.00087321       0.00024867      -0.00021396
Se       5.13789473       3.63303952       6.18471754      -0.00071035      -0.00049209       0.00044315
Se       4.35431294       1.41673519       4.82751227      -0.00048307       0.00016519       0.00080830
Se       2.78717305       3.63304478       7.54190130       0.00069346      -0.00033016      -0.00054556
Se       2.78715836       3.63303947       4.82750669       0.00025366      -0.00050477       0.00065999
Se       4.35432350       1.41674762       7.54189526      -0.00016917       0.00052051      -0.00069606
