9
Lattice="4.372504883169701 3.021900256723185e-08 2.5244669557699146 1.4575016809375687 4.122437059127792 2.524466912947414 1.3225585563473043e-07 4.107237881002678e-08 5.048933682465981" Properties=species:S:1:pos:R:3:forces:R:3 energy=-48.138240814208984 free_energy=-48.138240814208984 stress="0.00033290035207755864 4.1781060389212143e-08 -1.3904886486670875e-07 4.1781060389212143e-08 0.0003327106824144721 -1.3895838435473706e-07 -1.3904886486670875e-07 -1.3895838435473706e-07 0.00033310818253085017" pbc="T T T"
Ir       1.45749734       1.03060871       2.52447382      -0.00009670      -0.00002019       0.00016839
Ir       4.37250036       3.09182511       7.57341049      -0.00010236      -0.00005439       0.00020801
Ge      -0.00000005      -0.00000012       0.00000049      -0.00000958       0.00000596       0.00000505
O        1.46915679       1.03885077       5.04893117       0.00111353       0.00078404      -0.00006553
O        4.36085095       3.08358680       5.04892861      -0.00108469      -0.00078064      -0.00010568
O        3.63792796       1.03885268       3.79679124      -0.00052631       0.00082898       0.00090384
O        2.19208136       3.08358862       6.30107246       0.00058150      -0.00074071      -0.00100100
O        2.19208218       3.08358569       3.79679063       0.00060791      -0.00079703       0.00089848
O        3.63792987       1.03885037       6.30107131      -0.00048357       0.00077456      -0.00101209
