9
Lattice="5.292113818020831 1.2987776423797077e-07 3.0554036205286423 1.76403806775807 4.989453219928772 3.0554036101919726 2.217001431666542e-07 1.4410592666359666e-07 6.110806857061371" Properties=species:S:1:pos:R:3:forces:R:3 energy=-41.15630340576172 free_energy=-41.15630340576172 stress="0.00029183519654907286 -2.407203396614932e-07 -8.625466989542474e-07 -2.407203396614932e-07 0.0002903771819546819 -6.228751203707361e-07 -8.625466989542474e-07 -6.228751203707361e-07 0.00029113353230059147" pbc="T T T"
Ir       1.76402545       1.24738954       3.05539180      -0.00039986       0.00079361      -0.00042991
Ir       5.29212451       3.74208368       9.16625699       0.00033954      -0.00023877       0.00140828
Mn       0.00000001      -0.00000087      -0.00000154       0.00000352      -0.00002847      -0.00004932
Se       1.93611902       1.36905165       6.11081515      -0.00178933      -0.00097534       0.00028324
Se       5.12003758       3.62039512       6.11078245       0.00191426       0.00078535      -0.00073322
Se       4.32406553       1.36905742       4.73213298       0.00124437      -0.00081325      -0.00149232
Se       2.73208102       3.62039660       7.48947641      -0.00139990       0.00081775       0.00136143
Se       2.73210402       3.62040325       4.73212952      -0.00069326       0.00106096      -0.00160128
Se       4.32405133       1.36903764       7.48947258       0.00078040      -0.00140184       0.00125307
