9
Lattice="5.001654415776424 2.3546255865232174e-09 2.8877064550550737 1.6672181528709755 4.715604780979454 2.887706434168487 3.95094210357678e-08 2.3566529454737908e-09 5.77541284167782" Properties=species:S:1:pos:R:3:forces:R:3 energy=-43.4182014465332 free_energy=-43.4182014465332 stress="-1.3941262295702472e-05 4.227133842960029e-08 -1.0344390233285594e-07 4.227133842960029e-08 -1.3910201232647523e-05 -6.884811654117584e-08 -1.0344390233285594e-07 -6.884811654117584e-08 -1.3832119293510914e-05" pbc="T T T"
Ir       1.66722380       1.17890407       2.88769079       0.00018840       0.00008769      -0.00048670
Ir       5.00164848       3.53670322       8.66312565      -0.00019424      -0.00001718       0.00021608
Mn       0.00000015      -0.00000007       0.00000054       0.00000167      -0.00000531       0.00002222
S        1.78687518       1.26350956       5.77542039       0.00029898       0.00015068       0.00023642
S        4.88199794       3.45209436       5.77540856      -0.00028402      -0.00017607      -0.00013162
S        4.10821891       1.26351328       4.43518413      -0.00007850       0.00028080       0.00020736
S        2.56065434       3.45208910       7.11564464       0.00010023      -0.00033909      -0.00012374
S        2.56065989       3.45209565       4.43518387       0.00028783      -0.00014764       0.00019717
S        4.10821168       1.26351003       7.11564439      -0.00031999       0.00016677      -0.00013715
