9
Lattice="5.25488517578105 7.875942663013079e-07 3.0339110191578804 1.7516291200065448 4.954349864989391 3.033911044223408 3.6692565434922097e-07 2.901544377447701e-07 6.067821402781853" Properties=species:S:1:pos:R:3:forces:R:3 energy=-38.00852966308594 free_energy=-38.00852966308594 stress="-2.087191205646377e-05 -2.844456957973307e-06 -1.403848273184849e-06 -2.844456957973307e-06 -7.643400749657303e-06 -9.78844468590978e-07 -1.403848273184849e-06 -9.78844468590978e-07 -2.886465154006146e-05" pbc="T T T"
Ir       1.75153874       1.23841349       3.03390393      -0.00280387      -0.00545691      -0.00029716
Ir       5.25495802       3.71591584       9.10178253       0.00230846       0.00485695       0.00149946
Ni       0.00000069       0.00000078      -0.00000144       0.00001604       0.00001849      -0.00004051
Se       1.91116501       1.35133833       6.06782741       0.00098327      -0.00118306       0.00023625
Se       5.09534836       3.60301525       6.06779521      -0.00102016       0.00127041      -0.00080259
Se       4.29933688       1.35131836       4.68906444       0.00058998      -0.00183958       0.00198385
Se       2.70718154       3.60304973       7.44656673      -0.00048453       0.00230491      -0.00232834
Se       2.70720633       3.60305533       4.68906653       0.00027403       0.00251412       0.00203061
Se       4.29932309       1.35129664       7.44656854       0.00013666      -0.00248554      -0.00228161
