9
Lattice="4.937736669684925 1.5241436974519406e-07 2.8508037622708384 1.6459123388957737 4.655342844491257 2.8508038108204885 -2.915956949678854e-08 3.8842017163849266e-08 5.701607575047517" Properties=species:S:1:pos:R:3:forces:R:3 energy=-40.38505554199219 free_energy=-40.38505554199219 stress="-3.385425588930957e-05 -2.858131153971044e-07 1.008903538490813e-07 -2.858131153971044e-07 -3.3439362596254796e-05 1.1707899716384418e-07 1.008903538490813e-07 1.1707899716384418e-07 -3.4689099265960976e-05" pbc="T T T"
Ir       1.64590693       1.16382514       2.85080713      -0.00015881      -0.00028271       0.00009488
Ir       4.93775184       3.49151832       8.55240721       0.00039338       0.00029036      -0.00011276
Ni      -0.00000040      -0.00000005       0.00000008      -0.00001110      -0.00000481      -0.00000464
S        1.71956654       1.21591696       5.70160641       0.00031701       0.00020873      -0.00004526
S        4.86408047       3.43942733       5.70160955      -0.00036102      -0.00017515       0.00005691
S        4.07795235       1.21591108       4.33999705      -0.00017603       0.00005544       0.00041150
S        2.50569287       3.43943138       7.06321698       0.00008602      -0.00007371      -0.00042399
S        2.50569019       3.43942936       4.33999824       0.00001838      -0.00011915       0.00043278
S        4.07795510       1.21591262       7.06321790      -0.00010754       0.00010072      -0.00040914
