9
Lattice="4.386927260954908 8.635534088818685e-08 2.5327935366176098 1.462309154011376 4.136034925712866 2.532793561542122 -3.596493708667549e-08 5.095130456832809e-09 5.065587135528298" Properties=species:S:1:pos:R:3:forces:R:3 energy=-42.8616828918457 free_energy=-42.8616828918457 stress="-9.437919288757257e-06 4.169964640254875e-08 -2.2369512464592844e-08 4.169964640254875e-08 -9.436894288228359e-06 4.3091993973121134e-08 -2.2369512464592844e-08 4.3091993973121134e-08 -9.439559107704554e-06" pbc="T T T"
Ir       1.46231054       1.03400928       2.53279483       0.00001890       0.00001130       0.00001134
Ir       4.38692743       3.10202824       7.59838026       0.00000890       0.00002558      -0.00000288
Ni      -0.00000012      -0.00000012      -0.00000019      -0.00000112      -0.00000411       0.00000842
O        1.44965403       1.02505957       5.06559029      -0.00011691      -0.00009073       0.00003156
O        4.39958210       3.11097512       5.06559086       0.00011934       0.00008801       0.00003919
O        3.66209892       1.02506161       3.78822859       0.00004223      -0.00007202      -0.00012505
O        2.18713532       3.11097587       6.34294210      -0.00006915       0.00008976       0.00008635
O        2.18713651       3.11097279       3.78822891      -0.00006397       0.00006160      -0.00012265
O        3.66210074       1.02505768       6.34294145       0.00006185      -0.00010915       0.00007401
