9
Lattice="5.257152580182496 -8.107556306998779e-07 3.0352171879762766 1.7523834381972752 4.956494436673347 3.035217172057209 2.0326495375227598e-06 1.417803477817875e-06 6.070430855300322" Properties=species:S:1:pos:R:3:forces:R:3 energy=-38.04416275024414 free_energy=-38.04416275024414 stress="2.4493403543601744e-05 3.5333246160007548e-06 -4.232711489748908e-06 3.5333246160007548e-06 1.3650464097736403e-05 -2.999828438987606e-06 -4.232711489748908e-06 -2.999828438987606e-06 3.456388367339969e-05" pbc="T T T"
Ir       1.75245415       1.23919042       3.03517759       0.00166661       0.00165517      -0.00095695
Ir       5.25713472       3.71730649       9.10568465      -0.00052894      -0.00161238       0.00088467
P       -0.00000229      -0.00000007       0.00000046      -0.00004031      -0.00000154      -0.00000145
Se       1.96128543       1.38686299       6.07045049      -0.00170887      -0.00062743       0.00046121
Se       5.04824284       3.56964064       6.07041576       0.00149494       0.00081596      -0.00042567
Se       4.27649835       1.38687692       4.73372109       0.00057574      -0.00023368      -0.00189504
Se       2.73302059       3.56961248       7.40713985      -0.00100940       0.00010583       0.00179550
Se       2.73303935       3.56962652       4.73372648      -0.00050910       0.00047842      -0.00177476
Se       4.27647906       1.38686377       7.40714450       0.00005937      -0.00058040       0.00191244
