9
Lattice="5.094385431843242 1.9772589076893093e-07 2.9412452865418306 1.6981286502080237 4.8030330986363525 2.9412453099085587 3.0553616761952894e-07 2.446649792327979e-07 5.882490043879415" Properties=species:S:1:pos:R:3:forces:R:3 energy=-38.250370025634766 free_energy=-38.250370025634766 stress="-1.2832854736188892e-05 -4.3115579728691955e-07 -1.1132069630548358e-06 -4.3115579728691955e-07 -1.369029632769525e-05 -8.554948180972133e-07 -1.1132069630548358e-06 -8.554948180972133e-07 -1.3911367204855196e-05" pbc="T T T"
Ir       1.69811594       1.20075871       2.94123764      -0.00036218       0.00001729      -0.00025577
Ir       5.09438915       3.60227027       8.82375950       0.00011332      -0.00013426       0.00067628
Pd       0.00000075       0.00000011      -0.00000121       0.00001744       0.00001893      -0.00003290
S        1.84722947       1.30619282       5.88249591      -0.00008309       0.00007075       0.00019319
S        4.94528615       3.49684008       5.88247815       0.00011277      -0.00008500      -0.00036485
S        4.17077959       1.30619586       4.54099434       0.00031024       0.00014931      -0.00001222
S        2.62173587       3.49684256       7.22398189      -0.00025696      -0.00003541      -0.00009352
S        2.62174949       3.49684736       4.54099425       0.00011820       0.00013870      -0.00001788
S        4.17077101       1.30618635       7.22398217       0.00002998      -0.00013995      -0.00009221
