9
Lattice="5.136666810310425 0.8367537307196834 3.1826609552828953 2.1098364866457495 4.9122843877451015 3.821712640881465 -0.14229041841657547 0.6460415982553972 6.66356083585933" Properties=species:S:1:pos:R:3:forces:R:3 energy=-55.99130630493164 free_energy=-55.99130630493164 stress="-4.106393316760659e-05 -0.00026319336029700935 -0.00011003050167346373 -0.00026319336029700935 -1.9084989617113024e-05 4.6961300540715456e-05 -0.00011003050167346373 4.6961300540715456e-05 0.00015667725529056042" pbc="T T T"
Ir      -0.03450582       0.64480028       3.49866461      -0.00046545      -0.00096519       0.00003199
Ir       5.19007480       4.38464651       8.56633380      -0.00363767       0.00156677      -0.00170925
Pd       0.82388469      -0.07784216       0.27925963      -0.00110751      -0.00056539       0.00072828
O        0.99406210       2.53215384       6.72655325       0.00585765      -0.00585106       0.00173512
O        6.75883031       4.18330872       7.48039962       0.00035486       0.00371313      -0.00164397
O        3.66877334       1.10183209       5.54061251       0.00183833      -0.00175032       0.00312021
O        3.36316364       5.14620993       8.73587095      -0.00046158      -0.00081834       0.00006677
O        3.23216378       4.83132226       6.08693895      -0.00203915       0.00286229      -0.00078672
O        4.42040030       2.83388550       7.75712469      -0.00033930       0.00180829      -0.00154239
