9
Lattice="4.307374978564292 3.114299266503858e-07 2.486864277360091 1.4357919857637558 4.061033630603391 2.486864220854682 2.482077079940482e-07 1.0630459820013926e-07 4.97372812481186" Properties=species:S:1:pos:R:3:forces:R:3 energy=-54.03150177001953 free_energy=-54.03150177001953 stress="1.825212711992208e-05 -2.458165795360401e-07 -2.3881517208224068e-08 -2.458165795360401e-07 1.860668089648243e-05 2.991656913309271e-07 -2.3881517208224068e-08 2.991656913309271e-07 1.834638896980323e-05" pbc="T T T"
Ir       1.43582587       1.01526118       2.48684366       0.00065860       0.00010257      -0.00034785
Ir       4.30739420       3.04578419       7.46058873       0.00048643       0.00016375      -0.00016702
P        0.00000007       0.00000170       0.00000006      -0.00003656      -0.00002883       0.00002102
O        1.36420894       0.96465586       4.97373667      -0.00039816      -0.00005639       0.00015687
O        4.37894810       3.09638564       4.97372434       0.00015390       0.00014687       0.00003252
O        3.62524664       0.96464082       3.66830942      -0.00017315      -0.00030172      -0.00023961
O        2.11790174       3.09637734       6.27915587      -0.00020009       0.00005305       0.00032055
O        2.11789169       3.09639140       3.66832009      -0.00033337       0.00021279      -0.00004721
O        3.62524860       0.96463868       6.27914776      -0.00015515      -0.00029254       0.00027180
