9
Lattice="5.120242951016265 5.0788505780211004e-08 2.956173660979873 1.7067476878721795 4.8274114523131475 2.9561736789073323 4.654586285303167e-08 5.486946842277341e-08 5.912347241339921" Properties=species:S:1:pos:R:3:forces:R:3 energy=-42.340946197509766 free_energy=-42.340946197509766 stress="-3.6540397559292614e-05 5.998554541974954e-08 -1.5659543350921012e-07 5.998554541974954e-08 -3.680394365801476e-05 -8.979936438890945e-08 -1.5659543350921012e-07 -8.979936438890945e-08 -3.647715493571013e-05" pbc="T T T"
Ir       1.70673849       1.20685574       2.95617448      -0.00021197       0.00007953       0.00000499
Ir       5.12023168       3.62055455       8.86853009      -0.00027650      -0.00010990       0.00023005
Rh       0.00000054       0.00000013      -0.00000046       0.00001579      -0.00000234      -0.00000232
S        1.85036506       1.30840412       5.91234756      -0.00013125      -0.00012505       0.00000988
S        4.97662957       3.51900462       5.91234328       0.00022721       0.00005615      -0.00010760
S        4.19506608       1.30840891       4.55863395       0.00019902      -0.00000966      -0.00017995
S        2.63193132       3.51900635       7.26605979      -0.00003493       0.00009251       0.00015944
S        2.63193522       3.51900659       4.55863173       0.00005805       0.00010884      -0.00022745
S        4.19506474       1.30840531       7.26605783       0.00015426      -0.00009054       0.00011361
