9
Lattice="4.665330553706491 1.5434131046366806e-07 2.6935297988030493 1.5551102392315115 4.39851604150025 2.693529956162807 -6.92991251700827e-08 1.4372368406612833e-07 5.387059717635715" Properties=species:S:1:pos:R:3:forces:R:3 energy=-48.82875061035156 free_energy=-48.82875061035156 stress="0.00024744815891608596 7.473579444194911e-08 1.5251492513357334e-08 7.473579444194911e-08 0.00024725808179937303 -3.273134652204135e-08 1.5251492513357334e-08 -3.273134652204135e-08 0.00024753171601332724" pbc="T T T"
Ir       1.55510369       1.09963805       2.69353232      -0.00013979       0.00017738       0.00004575
Ir       4.66531996       3.29888920       8.08059155      -0.00021423       0.00004057       0.00003070
Ru      -0.00000115       0.00000010      -0.00000019      -0.00002706       0.00001206       0.00000487
O        1.54024149       1.08911732       5.38706153      -0.00222945      -0.00161314       0.00000567
O        4.68019738       3.30940235       5.38706281       0.00228715       0.00157893       0.00002515
O        3.89521256       1.08912052       4.02741520       0.00118157      -0.00154394      -0.00199300
O        2.32523864       3.30939387       6.74670883      -0.00102019       0.00150108       0.00206137
O        2.32523313       3.30939678       4.02741582      -0.00108054       0.00154191      -0.00200665
O        3.89521712       1.08910726       6.74668987       0.00124207      -0.00169510       0.00182635
