9
Lattice="5.344708747728713 -8.813268764002792e-08 3.0857688464984894 1.7815694829335709 5.039039908326103 3.0857688751645767 -1.729605540344971e-07 -8.719292505810454e-08 6.171537992573451" Properties=species:S:1:pos:R:3:forces:R:3 energy=-40.24431610107422 free_energy=-40.24431610107422 stress="0.00012084923218935728 1.0395554284059472e-07 4.262706454483123e-07 1.0395554284059472e-07 0.0001202777202706784 3.246763640163408e-07 4.262706454483123e-07 3.246763640163408e-07 0.00012112271360820159" pbc="T T T"
Ir       1.78157159       1.25976625       3.08577230       0.00005649       0.00016906       0.00010363
Ir       5.34470652       3.77927669       9.25729774      -0.00005623      -0.00009687      -0.00023722
Rh      -0.00000005       0.00000011      -0.00000005      -0.00000058      -0.00000429       0.00000169
Se       1.98588393       1.40423332       6.17153613      -0.00001174       0.00002497      -0.00006093
Se       5.14039461       3.63480539       6.17154280       0.00002831      -0.00004628       0.00012513
Se       4.35176410       1.40423210       4.80559463      -0.00005737      -0.00000358      -0.00002110
Se       2.77451411       3.63480513       7.53748299       0.00006464      -0.00004309       0.00007024
Se       2.77450952       3.63480402       4.80559412      -0.00006098      -0.00009680      -0.00003266
Se       4.35176793       1.40423589       7.53748217       0.00003737       0.00009671       0.00005135
