9
Lattice="5.33531777209996 5.24567998120259e-09 3.0803471503821314 1.7784392684486199 5.030185764507227 3.0803471397537723 8.117499922129925e-09 -7.277083717180153e-09 6.160694286704334" Properties=species:S:1:pos:R:3:forces:R:3 energy=-41.46489334106445 free_energy=-41.46489334106445 stress="4.082817667949712e-06 6.974661914682656e-08 -1.4762180455818452e-07 6.974661914682656e-08 4.136328243475873e-06 -8.255656780420395e-08 -1.4762180455818452e-07 -8.255656780420395e-08 4.042230102641042e-06" pbc="T T T"
Ir       1.77844041       1.25754754       3.08034503       0.00003598       0.00001814      -0.00007084
Ir       5.33531764       3.77264291       9.24104652      -0.00001202       0.00009617       0.00015350
Ru       0.00000006      -0.00000019      -0.00000019      -0.00000183      -0.00000260      -0.00000203
Se       1.96672984       1.39068582       6.16069564      -0.00067604      -0.00053331       0.00004471
Se       5.14702813       3.63949859       6.16069116       0.00069535       0.00050098      -0.00008564
Se       4.35195352       1.39068684       4.78358409       0.00035629      -0.00049278      -0.00060445
Se       2.76180225       3.63949787       7.53780481      -0.00038710       0.00046831       0.00059947
Se       2.76180478       3.63949872       4.78358313      -0.00030294       0.00050253      -0.00061983
Se       4.35195157       1.39068487       7.53780411       0.00029221      -0.00055757       0.00058529
