9
Lattice="4.350974610641487 -5.3702250818496864e-08 2.512036378999315 1.4503248094571444 4.102138157313334 2.51203639653758 6.541329574492422e-09 2.610531922008689e-08 5.024072746668719" Properties=species:S:1:pos:R:3:forces:R:3 energy=-45.67948913574219 free_energy=-45.67948913574219 stress="-0.000377395044779405 -4.1366014613686275e-08 -4.519051799434237e-09 -4.1366014613686275e-08 -0.00037727857124991715 -8.70724008450452e-08 -4.519051799434237e-09 -8.70724008450452e-08 -0.0003775040968321264" pbc="T T T"
Ir       1.45032498       1.02553528       2.51203867       0.00000437       0.00001782       0.00004855
Ir       4.35097433       3.07660481       7.53611230       0.00000050       0.00002039       0.00005499
Se       0.00000014       0.00000030       0.00000018      -0.00000197       0.00000061       0.00000462
O        1.42587866       1.00824831       5.02407217      -0.00133514      -0.00094616      -0.00001703
O        4.37542111       3.09388930       5.02407140       0.00133944       0.00093710      -0.00002708
O        3.63803466       1.00824831       3.74688266       0.00065720      -0.00094461      -0.00117075
O        2.16326432       3.09388999       6.30126124      -0.00066972       0.00094652       0.00114262
O        2.16326416       3.09388899       3.74688252      -0.00066423       0.00093067      -0.00117314
O        3.63803526       1.00824735       6.30126093       0.00066954      -0.00096035       0.00113606
