9
Lattice="4.2705751994891665 8.587086094891632e-08 2.4656177958286345 1.4235251583478368 4.026336798926139 2.4656177769637866 6.133340476059851e-08 2.0264608779477077e-08 4.931235485424747" Properties=species:S:1:pos:R:3:forces:R:3 energy=-49.83118438720703 free_energy=-49.83118438720703 stress="4.448952677194029e-05 -1.2222569978348474e-07 2.793049418414739e-07 -1.2222569978348474e-07 4.503329546423629e-05 2.428895697903499e-07 2.793049418414739e-07 2.428895697903499e-07 4.456038732314482e-05" pbc="T T T"
Ir       1.42353091       1.00657866       2.46562488       0.00012218      -0.00018446       0.00019667
Ir       4.27057844       3.01973901       7.39686437       0.00009332      -0.00028115       0.00024244
S       -0.00000026       0.00000048      -0.00000034      -0.00000171       0.00001225      -0.00001863
O        1.33215716       0.94198532       4.93123230      -0.00025022      -0.00002408      -0.00007970
O        4.36193883       3.08435904       4.93122974       0.00014222       0.00019503      -0.00010910
O        3.60449236       0.94198456       3.61929756       0.00003535      -0.00002599      -0.00026572
O        2.08960532       3.08435974       6.24316599      -0.00011766       0.00021446       0.00008690
O        2.08960513       3.08435917       3.61930176      -0.00010216       0.00017726      -0.00019073
O        3.60449416       0.94198203       6.24316738       0.00007927      -0.00008452       0.00013483
