9
Lattice="4.313050081622911 -2.084824799908286e-07 2.490140269202293 1.4376831888903256 4.066381223636203 2.4901402260594176 1.0400106566403012e-07 2.070074958582781e-08 4.980280358269537" Properties=species:S:1:pos:R:3:forces:R:3 energy=-53.878562927246094 free_energy=-53.878562927246094 stress="0.0002533708466216922 4.510919282552095e-08 6.04346794830235e-08 4.510919282552095e-08 0.0002536980900913477 -2.132088461337389e-08 6.04346794830235e-08 -2.132088461337389e-08 0.00025322262081317604" pbc="T T T"
Ir       1.43768916       1.01660767       2.49016806       0.00011576       0.00029837       0.00055068
Ir       4.31305344       3.04980699       7.47044702       0.00008108       0.00038417       0.00053871
Si       0.00000049      -0.00000002      -0.00000103      -0.00000568      -0.00000222       0.00000198
O        1.40036836       0.99020681       4.98027378       0.00604379       0.00420338      -0.00020689
O        4.35037021       3.07616347       4.98027086      -0.00597072      -0.00441271      -0.00023999
O        3.61285283       0.99020434       3.70288489      -0.00321567       0.00420052       0.00510490
O        2.13786394       3.07617383       6.25766001       0.00294584      -0.00427145      -0.00535905
O        2.13787046       3.07616526       3.70288421       0.00304556      -0.00443673       0.00504875
O        3.61286488       0.99019663       6.25765580      -0.00303942       0.00403607      -0.00543988
