9
Lattice="5.0912862816529545 1.562035584894032e-07 2.9394554396614763 1.6970955236499674 4.800110744208488 2.9394555277151966 -5.503259332384934e-09 1.0395194472383649e-07 5.878910888854843" Properties=species:S:1:pos:R:3:forces:R:3 energy=-35.63325500488281 free_energy=-35.63325500488281 stress="0.00016026274533942342 3.157427386213385e-08 -3.131303927261797e-08 3.157427386213385e-08 0.00016011808475013822 1.0462674282507578e-08 -3.131303927261797e-08 1.0462674282507578e-08 0.00016003775817807764" pbc="T T T"
Ir       1.69709486       1.20002919       2.93945655      -0.00001899       0.00003704       0.00002625
Ir       5.09128616       3.60008393       8.81836857      -0.00000478       0.00001679       0.00006317
Se      -0.00000001       0.00000007      -0.00000100      -0.00000524       0.00000895       0.00005690
S        1.75434497       1.24050872       5.87891050      -0.00173917      -0.00123936      -0.00000483
S        5.03403751       3.55960136       5.87890977       0.00175461       0.00121722      -0.00002913
S        4.21411400       1.24050945       4.45876204       0.00088638      -0.00123639      -0.00152799
S        2.57426646       3.55960257       7.29906025      -0.00087187       0.00120273       0.00147948
S        2.57426809       3.55960124       4.45876117      -0.00086543       0.00122251      -0.00153096
S        4.21411519       1.24050750       7.29905957       0.00086443      -0.00122951       0.00146711
