9
Lattice="5.0379522885923835 -2.4153955557332914e-08 2.908663163357844 1.6793174791046541 4.749826896144389 2.908663038050087 1.6908877518563668e-07 -3.3906175430973936e-08 5.81732603384531" Properties=species:S:1:pos:R:3:forces:R:3 energy=-43.61841583251953 free_energy=-43.61841583251953 stress="2.340037826797925e-05 3.3107159680412224e-08 -4.125744723637581e-08 3.3107159680412224e-08 2.3293587219086476e-05 -1.1077282380256293e-07 -4.125744723637581e-08 -1.1077282380256293e-07 2.3577553292852826e-05" pbc="T T T"
Ir       1.67932341       1.18746045       2.90866351       0.00016491       0.00009872       0.00001556
Ir       5.03796223       3.56238324       8.72598737       0.00027194       0.00037266      -0.00005220
Ti      -0.00000119      -0.00000112       0.00000026      -0.00004052      -0.00003504      -0.00000393
S        1.81650019       1.28445644       5.81732570      -0.00075269      -0.00061241      -0.00001064
S        4.90076911       3.46536666       5.81732713       0.00072521       0.00052527       0.00002245
S        4.12969884       1.28445413       4.48179984       0.00027758      -0.00068003      -0.00060254
S        2.58756437       3.46536665       7.15285351      -0.00046307       0.00050873       0.00062621
S        2.58756365       3.46536612       4.48179921      -0.00048310       0.00049657      -0.00061521
S        4.12969928       1.28445477       7.15285250       0.00029969      -0.00067422       0.00062028
