9
Lattice="5.338509631281301 5.2305110636624695e-08 3.082189967094555 1.7795032568071736 5.033195240407529 3.0821899721758177 -2.4852097910591875e-08 -1.1349850675425539e-08 6.164379977234216" Properties=species:S:1:pos:R:3:forces:R:3 energy=-40.462711334228516 free_energy=-40.462711334228516 stress="-0.0002451547479722649 -4.961765753819236e-08 -4.5702044815243426e-08 -4.961765753819236e-08 -0.00024515498080290854 -3.111651736276144e-08 -4.5702044815243426e-08 -3.111651736276144e-08 -0.00024518484133295715" pbc="T T T"
Ir       1.77952311       1.25830092       3.08218509       0.00062104       0.00005996      -0.00011724
Ir       5.33850593       3.77489827       9.24655242      -0.00015193       0.00005763      -0.00053377
Ti      -0.00000110       0.00000002       0.00000171      -0.00003489      -0.00001099       0.00003857
Se       1.96139371       1.38691244       6.16438209       0.00043041       0.00020635       0.00003491
Se       5.15661726       3.64628497       6.16438893      -0.00048575      -0.00014532       0.00026246
Se       4.35780505       1.38691065       4.78080410      -0.00045484       0.00018159       0.00027242
Se       2.76020385       3.64627769       7.54795915       0.00034028      -0.00037116      -0.00015214
Se       2.76019732       3.64627867       4.78080522       0.00013696      -0.00035745       0.00030908
Se       4.35780638       1.38691748       7.54796094      -0.00040126       0.00037920      -0.00011402
