9
Lattice="5.047467253697568 1.3776594250473179e-08 2.914156544809446 1.6824891113452325 4.758797750810315 2.914156520923278 -8.097308103406782e-09 -3.498012854627202e-08 5.828313103643843" Properties=species:S:1:pos:R:3:forces:R:3 energy=-44.429603576660156 free_energy=-44.429603576660156 stress="-2.6668471036828123e-05 2.8348697611590978e-08 2.5920837032344934e-08 2.8348697611590978e-08 -2.6648116545402445e-05 -3.210867305369902e-08 2.5920837032344934e-08 -3.210867305369902e-08 -2.664411294972524e-05" pbc="T T T"
Ir       1.68248292       1.18969790       2.91415757      -0.00019439      -0.00006177       0.00001999
Ir       5.04747313       3.56910718       8.74247650       0.00017936       0.00026363       0.00020201
V        0.00000018      -0.00000028      -0.00000073       0.00000115      -0.00001462      -0.00000992
S        1.80854535       1.27883232       5.82831315       0.00019068       0.00007164       0.00000477
S        4.92141243       3.47996251       5.82831008      -0.00015259      -0.00013882      -0.00008988
S        4.14319636       1.27883163       4.48040377      -0.00003123       0.00004381       0.00021249
S        2.58675838       3.47996533       7.17622088       0.00000182      -0.00007802      -0.00024855
S        2.58676078       3.47996508       4.48040329       0.00006691      -0.00006509       0.00018352
S        4.14319593       1.27882930       7.17622010      -0.00006157      -0.00002056      -0.00027484
