9
Lattice="5.3098853591008 -3.218273232943765e-08 3.065663763113704 1.7699617916288313 5.006207872589519 3.065663701445679 5.369840216227677e-08 -3.7557102040899346e-08 6.131327433219027" Properties=species:S:1:pos:R:3:forces:R:3 energy=-41.22400665283203 free_energy=-41.22400665283203 stress="6.544406005559722e-06 -2.4134289233757045e-08 2.98691738009893e-08 -2.4134289233757045e-08 6.650190243817633e-06 3.157963490707516e-08 2.98691738009893e-08 3.157963490707516e-08 6.52240805720794e-06" pbc="T T T"
Ir       1.76996033       1.25155230       3.06566549      -0.00005292       0.00000040       0.00005980
Ir       5.30988675       3.75466106       9.19699080       0.00004837       0.00016722      -0.00001908
V       -0.00000003      -0.00000009       0.00000021       0.00000167      -0.00000728      -0.00000078
Se       1.93558527       1.36866316       6.13132686      -0.00017959      -0.00019190      -0.00003034
Se       5.14426315       3.63754273       6.13132823       0.00021219       0.00013742       0.00001291
Se       4.34209257       1.36866253       4.74192982       0.00008717      -0.00021717      -0.00013685
Se       2.73775353       3.63754380       7.52072514      -0.00011176       0.00017288       0.00015545
Se       2.73775333       3.63754296       4.74192898      -0.00012857       0.00014678      -0.00016505
Se       4.34209389       1.36866277       7.52072403       0.00012326      -0.00020865       0.00012410
