9
Lattice="6.535653837389475 -6.15943585674254e-07 3.7733620937799106 2.178550804325359 6.161873257209807 3.773361910333702 -5.753792228668554e-08 -2.65360122285991e-07 7.546724287218385" Properties=species:S:1:pos:R:3:forces:R:3 energy=-24.050254821777344 free_energy=-24.050254821777344 stress="-8.487902960041538e-06 -5.9603248558914856e-08 7.446570471358882e-09 -5.9603248558914856e-08 -8.587913725932594e-06 -2.5579188545066245e-08 7.446570471358882e-09 -2.5579188545066245e-08 -8.629441254015546e-06" pbc="T T T"
K        2.17855138       1.54046837       3.77336194       0.00000043       0.00000006       0.00000013
K        6.53565364       4.62140439      11.32008623      -0.00000048       0.00000012      -0.00000016
C        0.00000316       0.00000114       0.00000039       0.00000048       0.00000060      -0.00000043
Br       1.93248402       1.36647208       7.54672406       0.00068244       0.00048602       0.00000147
Br       6.78171875       4.79540245       7.54672447      -0.00068453      -0.00049308       0.00000037
Br       5.56940938       1.36647212       5.44694142      -0.00033711       0.00048476       0.00059953
Br       3.14479400       4.79539962       9.64650640       0.00033922      -0.00048459      -0.00059620
Br       3.14479497       4.79539778       5.44694169       0.00033665      -0.00047877       0.00059262
Br       5.56940890       1.36647172       9.64650655      -0.00033706       0.00048500      -0.00059748
