9
Lattice="6.311518230402559 9.543307620475152e-06 3.6439493593920345 2.103847669689151 5.950564770551372 3.6439506375766806 -2.1163558994319508e-06 6.896072557748079e-08 7.287902384414046" Properties=species:S:1:pos:R:3:forces:R:3 energy=-26.438730239868164 free_energy=-26.438730239868164 stress="9.560772741679102e-05 1.0326903066015802e-06 6.024383196745475e-07 1.0326903066015802e-06 9.559257887303829e-05 -1.2617681477422593e-07 6.024383196745475e-07 -1.2617681477422593e-07 9.484990732744336e-05" pbc="T T T"
K        2.10384016       1.48763501       3.64395584      -0.00000143       0.00000105      -0.00000177
K        6.31151446       4.46292998      10.93184870       0.00000097       0.00000076       0.00000166
C        0.00007271       0.00003817       0.00000226       0.00017994       0.00002206       0.00002808
Cl       1.77233650       1.25322407       7.28791229      -0.00464794      -0.00327581      -0.00004351
Cl       6.64300057       4.69731960       7.28789479       0.00429803       0.00310650       0.00001365
Cl       5.42535476       1.25323771       5.17883772       0.00217432      -0.00304076      -0.00377252
Cl       2.98999021       4.69733606       9.39696981      -0.00209607       0.00312394       0.00374662
Cl       2.99000170       4.69733147       5.17882844      -0.00215253       0.00312958      -0.00379696
Cl       5.42533898       1.25324775       9.39695568       0.00224477      -0.00306717       0.00382461
