9
Lattice="4.7915853453478 4.0609499172474344e-08 2.766423592661099 1.5971952045901014 4.517549919162931 2.7664235040023715 4.4703576585699686e-07 2.0751770139802459e-07 5.532846411033515" Properties=species:S:1:pos:R:3:forces:R:3 energy=-39.113643646240234 free_energy=-39.113643646240234 stress="4.5908607717137784e-05 -7.08632796886377e-08 1.1840388935979718e-07 -7.08632796886377e-08 4.5814300392521545e-05 -1.0142873918539408e-07 1.1840388935979718e-07 -1.0142873918539408e-07 4.541714588413015e-05" pbc="T T T"
K        1.59719519       1.12938732       2.76642376      -0.00000028       0.00000097      -0.00000074
K        4.79158705       3.38816290       8.29926911      -0.00000184       0.00000074       0.00000580
C        0.00000023       0.00000173       0.00000044       0.00000301      -0.00001060       0.00000104
F        1.30902641       0.92562160       5.53284663      -0.00073433      -0.00051403       0.00000027
F        5.07975297       3.59192763       5.53284708       0.00073051       0.00052005       0.00000035
F        4.13707272       0.92562025       3.90007275       0.00036377      -0.00050980      -0.00062263
F        2.25170931       3.59192841       7.16562106      -0.00036788       0.00051945       0.00061214
F        2.25170842       3.59192873       3.90007411      -0.00036758       0.00051945      -0.00062549
F        4.13707168       0.92562216       7.16562087       0.00037420      -0.00052565       0.00063002
