9
Lattice="7.086471242264411 -2.6903167092928015e-07 4.091376415267179 2.362157177143131 6.681188924586246 4.091375808991666 5.258570853454949e-07 -3.706959920751416e-07 8.182751919723396" Properties=species:S:1:pos:R:3:forces:R:3 energy=-21.553014755249023 free_energy=-21.553014755249023 stress="-8.447012078249827e-06 1.6423662430042896e-08 8.258507655511949e-09 1.6423662430042896e-08 -8.474235983157996e-06 -6.612987490939304e-09 8.258507655511949e-09 -6.612987490939304e-09 -8.467046427540481e-06" pbc="T T T"
K        2.36215695       1.67029684       4.09137644      -0.00000051      -0.00000003      -0.00000028
K        7.08647214       5.01089170      12.27412761       0.00000012      -0.00000023       0.00000051
C       -0.00000090      -0.00000027       0.00000061       0.00000089       0.00000058      -0.00000075
I        2.17721689       1.53952111       8.18275267       0.00038689       0.00027606      -0.00000003
I        7.27141296       5.14166682       8.18275173      -0.00038761      -0.00027582       0.00000065
I        5.99786280       1.53952400       5.97689921      -0.00019330       0.00027505       0.00033385
I        3.45076619       5.14166456      10.38860478       0.00019374      -0.00027591      -0.00033474
I        3.45076439       5.14166597       5.97690098       0.00019291      -0.00027421       0.00033462
I        5.99786450       1.53952232      10.38860251      -0.00019336       0.00027454      -0.00033367
