9
Lattice="6.0027439333086 2.345813163638735e-08 3.465685850305139 2.0009146865592684 5.659441186453387 3.4656858156528125 4.940949373008382e-08 -7.502453862749791e-09 6.931371615030534" Properties=species:S:1:pos:R:3:forces:R:3 energy=-30.359455108642578 free_energy=-30.359455108642578 stress="-0.00033762885141186416 2.540152754804126e-09 -4.630923644555196e-09 2.540152754804126e-09 -0.00033762212842702866 -3.1975797565308994e-09 -4.630923644555196e-09 -3.1975797565308994e-09 -0.0003376267559360713" pbc="T T T"
K        2.00091470       1.41486022       3.46568572       0.00000001       0.00000013       0.00000066
K        6.00274396       4.24458101      10.39705737       0.00000012      -0.00000075       0.00000049
Co       0.00000008      -0.00000004       0.00000001       0.00000078       0.00000046       0.00000220
Cl       1.83844684       1.29997811       6.93137166      -0.00225016      -0.00159094       0.00000009
Cl       6.16521182       4.35946302       6.93137171       0.00224975       0.00159092       0.00000027
Cl       5.08352054       1.29997813       5.05782742       0.00112545      -0.00159138      -0.00194901
Cl       2.92013790       4.35946307       8.80491591      -0.00112459       0.00159019       0.00194722
Cl       2.92013811       4.35946310       5.05782742      -0.00112581       0.00159137      -0.00194922
Cl       5.08352078       1.29997816       8.80491597       0.00112434      -0.00158989       0.00194725
