9
Lattice="5.150204986336013 -3.086464260990062e-08 2.9734723427972725 1.716735071160475 4.855659755965917 2.973472161253119 2.784087565646657e-07 -2.5480551482354043e-08 5.946944203376496" Properties=species:S:1:pos:R:3:forces:R:3 energy=-38.72528839111328 free_energy=-38.72528839111328 stress="1.934597639774438e-05 -1.9928910077737783e-08 1.0188634824714882e-08 -1.9928910077737783e-08 1.9324232198414393e-05 -8.53604547046416e-08 1.0188634824714882e-08 -8.53604547046416e-08 1.9518955014063977e-05" pbc="T T T"
K        1.71673503       1.21391509       2.97347271      -0.00000000      -0.00000015       0.00000019
K        5.15020488       3.64174520       8.92041607      -0.00000052      -0.00000017       0.00000053
Co       0.00000018       0.00000004       0.00000022      -0.00000221      -0.00000207       0.00000383
F        1.49810464       1.05931996       5.94694390       0.00086792       0.00061317       0.00000079
F        5.36883590       3.79633991       5.94694467      -0.00086670      -0.00061256       0.00000089
F        4.40115246       1.05931981       4.27086877      -0.00043360       0.00061339       0.00075036
F        2.46578767       3.79634005       7.62302016       0.00043629      -0.00061569      -0.00075334
F        2.46578772       3.79633932       4.27086953       0.00043134      -0.00060803       0.00074515
F        4.40115301       1.05931948       7.62301924      -0.00043225       0.00061204      -0.00074901
