9
Lattice="6.314891542242463 3.630872171242454e-08 3.6459041591451973 2.104963798723913 5.9537374223047665 3.6459043027711138 -3.9612092488037164e-08 1.4789514351183488e-07 7.291808386900401" Properties=species:S:1:pos:R:3:forces:R:3 energy=-27.259700775146484 free_energy=-27.259700775146484 stress="-0.00010310413927072659 -3.3018858758282477e-09 1.0873866251870368e-08 -3.3018858758282477e-09 -0.00010311151709174737 -7.715979855049682e-09 1.0873866251870368e-08 -7.715979855049682e-09 -0.00010308754281140864" pbc="T T T"
K        2.10496378       1.48843432       3.64590426       0.00000017       0.00000047      -0.00000040
K        6.31489135       4.46530330      10.93771235       0.00000014      -0.00000040      -0.00000006
Co       0.00000071       0.00000044       0.00000063      -0.00000382      -0.00000274      -0.00000453
Br       2.02574150       1.43241528       7.29180819       0.00245635       0.00173762       0.00000126
Br       6.39411305       4.52132183       7.29180852      -0.00245172      -0.00173488      -0.00000043
Br       5.30202078       1.43241552       5.40024750      -0.00122693       0.00173658       0.00212635
Br       3.11783456       4.52132224       9.18336892       0.00122652      -0.00173639      -0.00212428
Br       3.11783476       4.52132179       5.40024781       0.00122704      -0.00173599       0.00212623
Br       5.30202081       1.43241561       9.18336903      -0.00122784       0.00173579      -0.00212446
