9
Lattice="6.886584110233374 -5.716294544999363e-07 3.975971384894387 2.2955274947449045 6.4927336805152445 3.975971390198046 -1.1641080764166144e-07 -7.581898350286201e-08 7.951942971418152" Properties=species:S:1:pos:R:3:forces:R:3 energy=-24.279870986938477 free_energy=-24.279870986938477 stress="-8.836061897454783e-05 3.4401093085278944e-09 5.0526662853656035e-09 3.4401093085278944e-09 -8.835830522002652e-05 -1.1851070347290715e-08 5.0526662853656035e-09 -1.1851070347290715e-08 -8.83687098394148e-05" pbc="T T T"
K        2.29552785       1.62318298       3.97597167      -0.00000016       0.00000018       0.00000007
K        6.88658402       4.86954985      11.92791405      -0.00000018      -0.00000001      -0.00000009
Co      -0.00000018       0.00000002       0.00000043      -0.00000005       0.00000015      -0.00000177
I        2.20064971       1.55609375       7.95194305       0.00553179       0.00391395      -0.00000001
I        6.98146148       4.93663962       7.95194294      -0.00553212      -0.00391427      -0.00000048
I        5.78626017       1.55609321       5.88178970      -0.00276866       0.00391345       0.00479211
I        3.39585186       4.93663941      10.02209568       0.00276816      -0.00391187      -0.00479072
I        3.39585091       4.93663901       5.88178964       0.00276686      -0.00391316       0.00479309
I        5.78626013       1.55609427      10.02209577      -0.00276571       0.00391155      -0.00479202
