9
Lattice="6.9689774141694425 -6.794618728334897e-08 4.023540966545675 2.3229924090640313 6.570414794383116 4.023540963541475 -2.538297651704058e-09 -5.474264694591349e-09 8.04708193748785" Properties=species:S:1:pos:R:3:forces:R:3 energy=-28.714244842529297 free_energy=-28.714244842529297 stress="-1.95250722754281e-05 -7.836141513450912e-09 -1.1437810698566864e-09 -7.836141513450912e-09 -1.9532359146978706e-05 8.443686860815092e-10 -1.1437810698566864e-09 8.443686860815092e-10 -1.951921331055928e-05" pbc="T T T"
K        2.32299235       1.64260360       4.02354065      -0.00000062      -0.00000031       0.00000038
K        6.96897750       4.92781113      12.07062319       0.00000054       0.00000060      -0.00000041
Cr       0.00000002      -0.00000000       0.00000015       0.00000118      -0.00000016      -0.00000045
I        2.21286077       1.56472868       8.04708189      -0.00226571      -0.00160310      -0.00000014
I        7.07910908       5.00568606       8.04708199       0.00226475       0.00160277       0.00000028
I        5.86254708       1.56472875       5.93993459       0.00113393      -0.00160323      -0.00196324
I        3.42942273       5.00568597      10.15422915      -0.00113382       0.00160295       0.00196369
I        3.42942272       5.00568588       5.93993464      -0.00113388       0.00160332      -0.00196361
I        5.86254701       1.56472885      10.15422923       0.00113357      -0.00160284       0.00196352
