9
Lattice="5.1795608071670785 -1.0711292371793932e-07 2.9904210682424024 1.726520200144084 4.883336420694322 2.9904210126860398 1.2866839500401547e-08 -5.894410585591286e-08 5.980842114198809" Properties=species:S:1:pos:R:3:forces:R:3 energy=-45.08999252319336 free_energy=-45.08999252319336 stress="-2.9331202313187532e-05 -5.652093904018329e-09 3.045029828285806e-08 -5.652093904018329e-09 -2.943536310340278e-05 1.3216888916645075e-08 3.045029828285806e-08 1.3216888916645075e-08 -2.9477669158950448e-05" pbc="T T T"
K        1.72652064       1.22083385       2.99042143      -0.00000055      -0.00000028      -0.00000104
K        5.17956074       3.66250220       8.97126245      -0.00000058       0.00000058       0.00000087
Cr      -0.00000033       0.00000027       0.00000015       0.00000318      -0.00000200      -0.00000146
F        1.52105837       1.07555004       5.98084213       0.00204590       0.00144908      -0.00000083
F        5.38502271       3.80778597       5.98084249      -0.00204730      -0.00144854      -0.00000042
F        4.41903122       1.07555024       4.30769600      -0.00102417       0.00144970       0.00177392
F        2.48704912       3.80778608       7.65398840       0.00102355      -0.00144793      -0.00177443
F        2.48704967       3.80778645       4.30769561       0.00102375      -0.00144966       0.00177616
F        4.41903137       1.07555007       7.65398788      -0.00102358       0.00144897      -0.00177315
