9
Lattice="6.09046368682524 5.790136664960374e-08 3.5163309321160754 2.030154573097114 5.742143778616051 3.5163310079243177 9.123658018072394e-08 1.5735968199432396e-07 7.032661706205892" Properties=species:S:1:pos:R:3:forces:R:3 energy=-35.869712829589844 free_energy=-35.869712829589844 stress="-8.341499778907746e-05 -2.0601062189484765e-08 -2.0060488381545838e-08 -2.0601062189484765e-08 -8.343537047039717e-05 2.5420128224595828e-08 -2.0060488381545838e-08 2.5420128224595828e-08 -8.338371844729409e-05" pbc="T T T"
K        2.03015408       1.43553656       3.51633108       0.00000155      -0.00000023      -0.00000082
K        6.09046392       4.30660730      10.54899267      -0.00000045      -0.00000035      -0.00000005
Cr       0.00000005       0.00000009       0.00000060       0.00000076       0.00000138      -0.00001410
Cl       1.90273843       1.34543895       7.03266209       0.00779635       0.00551529      -0.00000018
Cl       6.21787988       4.39670481       7.03266193      -0.00779593      -0.00551359      -0.00000045
Cl       5.13909471       1.34543873       5.16415067      -0.00389941       0.00551490       0.00675243
Cl       2.98152390       4.39670517       8.90117259       0.00389473      -0.00551128      -0.00674614
Cl       2.98152365       4.39670552       5.16415044       0.00389980      -0.00551778       0.00675605
Cl       5.13909477       1.34543897       8.90117265      -0.00389737       0.00551176      -0.00674675
