9
Lattice="5.184722800516675 9.21860047367798e-08 2.993401249628535 1.7282409893023538 4.888202819993771 2.993401303524745 -2.0251034842115256e-07 -7.71872663184347e-08 5.986802850015373" Properties=species:S:1:pos:R:3:forces:R:3 energy=-41.26705551147461 free_energy=-41.26705551147461 stress="-0.00018566370999906212 2.8246944339116453e-08 2.985779801178978e-08 2.8246944339116453e-08 -0.00018551311222836375 1.940455263138574e-07 2.985779801178978e-08 1.940455263138574e-07 -0.0001854097645264119" pbc="T T T"
K        1.72824079       1.22205119       2.99340154      -0.00000224      -0.00000101       0.00000038
K        5.18472174       3.66615195       8.98020291       0.00000186       0.00000077       0.00000167
Fe       0.00000016      -0.00000028       0.00000112      -0.00000927      -0.00000223      -0.00003869
F        1.53125137       1.08275851       5.98680286       0.00454158       0.00320742      -0.00000045
F        5.38171103       3.80544330       5.98680272      -0.00452888      -0.00320017      -0.00000006
F        4.41909831       1.08275811       4.31950537      -0.00227633       0.00321412       0.00393230
F        2.49386662       3.80544374       7.65409983       0.00226408      -0.00320134      -0.00391445
F        2.49386543       3.80544545       4.31950474       0.00227568      -0.00321901       0.00393617
F        4.41909796       1.08275892       7.65410070      -0.00226599       0.00320131      -0.00391677
