9
Lattice="6.027193182562349 -2.7062003349205018e-08 3.4798015402107194 2.009064333143314 5.6824922139134415 3.4798016017502142 -7.636819443072692e-08 2.1369698719261897e-08 6.959603212695048" Properties=species:S:1:pos:R:3:forces:R:3 energy=-32.44862365722656 free_energy=-32.44862365722656 stress="3.372062201378867e-05 2.3774861190872798e-08 -1.933092574901707e-09 2.3774861190872798e-08 3.3755266485968605e-05 2.1935904204184453e-09 -1.933092574901707e-09 2.1935904204184453e-09 3.375471351318993e-05" pbc="T T T"
K        2.00906439       1.42062310       3.47980155      -0.00000018      -0.00000017      -0.00000040
K        6.02719304       4.26186917      10.43940480       0.00000011       0.00000010       0.00000009
Fe       0.00000006       0.00000033       0.00000006      -0.00000131      -0.00000237      -0.00000067
Cl       1.86373648       1.31786074       6.95960315      -0.00085539      -0.00060499       0.00000010
Cl       6.17252070       4.36463127       6.95960308       0.00085980       0.00060865      -0.00000064
Cl       5.09532476       1.31786084       5.09384466       0.00042748      -0.00060534      -0.00074217
Cl       2.94093261       4.36463143       8.82536170      -0.00042933       0.00060567       0.00074360
Cl       2.94093278       4.36463121       5.09384473      -0.00042874       0.00060508      -0.00074306
Cl       5.09532490       1.31786083       8.82536162       0.00042781      -0.00060678       0.00074369
