9
Lattice="6.838859395694724 8.67353118545649e-08 3.9484152273208135 2.2796196892172143 6.447739494109366 3.948415558354386 -2.708754514714435e-07 2.1389409849224455e-07 7.896830923811646" Properties=species:S:1:pos:R:3:forces:R:3 energy=-26.104248046875 free_energy=-26.104248046875 stress="-2.7921023502130993e-05 1.5409577258651552e-07 -5.142940651126082e-08 1.5409577258651552e-07 -2.79460091405781e-05 6.508827965490127e-08 -5.142940651126082e-08 6.508827965490127e-08 -2.8425181881175376e-05" pbc="T T T"
K        2.27962016       1.61193421       3.94841567       0.00000005       0.00000035      -0.00000021
K        6.83885918       4.83580564      11.84524638      -0.00000009      -0.00000028      -0.00000020
Fe      -0.00000191       0.00000044       0.00000016       0.00001835      -0.00000784       0.00000794
I        2.03280512       1.43741368       7.89683051       0.00310059       0.00219271       0.00000280
I        7.08567334       5.01032361       7.89683025      -0.00310358      -0.00218768       0.00000229
I        5.82245401       1.43741385       5.70887111      -0.00155733       0.00219480       0.00271234
I        3.29602436       5.01032874      10.08479133       0.00155647      -0.00220345      -0.00271824
I        3.29602440       5.01032839       5.70886998       0.00155498      -0.00220034       0.00272103
I        5.82245633       1.43741042      10.08479159      -0.00156945       0.00221165      -0.00272778
