9
Lattice="6.360201199033152 -4.761302240705803e-07 3.672064249703315 2.120066693608766 5.99645586744071 3.672064117783096 -1.1346431058906817e-07 -2.4180011307137157e-07 7.344128695932848" Properties=species:S:1:pos:R:3:forces:R:3 energy=-29.81879234313965 free_energy=-29.81879234313965 stress="-3.886380000039935e-05 -8.426741260336712e-08 5.222176113761634e-08 -8.426741260336712e-08 -3.873284731525928e-05 -4.2277580547533944e-08 5.222176113761634e-08 -4.2277580547533944e-08 -3.873812602250837e-05" pbc="T T T"
K        2.12006676       1.49911386       3.67206420       0.00000045      -0.00000020       0.00000026
K        6.36020078       4.49734117      11.01619307       0.00000043       0.00000041      -0.00000011
Fe      -0.00000125       0.00000047      -0.00000007       0.00000561      -0.00002205      -0.00001863
Br       1.87711380       1.32732089       7.34412951       0.00298275       0.00210638      -0.00000495
Br       6.60315121       4.66913228       7.34412864      -0.00296099      -0.00208858      -0.00000181
Br       5.42164494       1.32732161       5.29769459      -0.00149681       0.00210192       0.00257812
Br       3.05862609       4.66913211       9.39056189       0.00147082      -0.00208274      -0.00255848
Br       3.05862561       4.66913440       5.29769471       0.00147721      -0.00209650       0.00256488
Br       5.42164298       1.32732386       9.39056185      -0.00147972       0.00208138      -0.00255917
