9
Lattice="6.1415278716562955 7.688042469736864e-08 3.5458125606099107 2.047175936019646 5.790288041877723 3.545812722873096 -1.601930099708424e-07 8.545747373096408e-08 7.091625398682247" Properties=species:S:1:pos:R:3:forces:R:3 energy=-30.219636917114258 free_energy=-30.219636917114258 stress="-5.954482185188681e-05 -6.0288027903254715e-09 5.342435827060399e-09 -6.0288027903254715e-09 -5.9586731367744505e-05 -3.620960198347234e-09 5.342435827060399e-09 -3.620960198347234e-09 -5.958808833383955e-05" pbc="T T T"
K        2.04717571       1.44757209       3.54581263       0.00000016       0.00000025      -0.00000025
K        6.14152782       4.34271607      10.63743797       0.00000011       0.00000062      -0.00000084
Ge      -0.00000021      -0.00000008       0.00000001       0.00000071      -0.00000109       0.00000294
Cl       1.89626252       1.34086012       7.09162552       0.00772360       0.00546218      -0.00000024
Cl       6.29244109       4.44942803       7.09162527      -0.00772354      -0.00546174       0.00000071
Cl       5.19339653       1.34086025       5.18802441      -0.00386190       0.00546120       0.00668879
Cl       2.99530728       4.44942815       8.99522645       0.00386254      -0.00546303      -0.00669071
Cl       2.99530709       4.44942827       5.18802394       0.00386100      -0.00546198       0.00669026
Cl       5.19339673       1.34086006       8.99522660      -0.00386301       0.00546385      -0.00669080
