9
Lattice="5.153788452267006 6.334059868192432e-08 2.9755411621997347 1.7179294898859525 4.859038641179114 2.9755412555940257 3.972961031759554e-08 1.4247711112109675e-07 5.951082255585877" Properties=species:S:1:pos:R:3:forces:R:3 energy=-42.83153533935547 free_energy=-42.83153533935547 stress="-9.962295735022053e-05 3.870712461662151e-08 2.4381336061196635e-08 3.870712461662151e-08 -9.957988368114457e-05 -6.158146881318771e-09 2.4381336061196635e-08 -6.158146881318771e-09 -9.979678725358099e-05" pbc="T T T"
K        1.71792937       1.21475952       2.97554139      -0.00000023       0.00000061      -0.00000005
K        5.15378871       3.64427893       8.92662310      -0.00000044      -0.00000061       0.00000038
Ge      -0.00000009       0.00000027       0.00000034      -0.00000851      -0.00000276      -0.00000868
F        1.49527352       1.05731840       5.95108216       0.00701398       0.00495854       0.00000053
F        5.37644387       3.80172016       5.95108177      -0.00700277      -0.00494850       0.00000349
F        4.40615231       1.05731881       4.27048636      -0.00350893       0.00495476       0.00607389
F        2.46556612       3.80172082       7.63167911       0.00350803      -0.00495940      -0.00607750
F        2.46556646       3.80172030       4.27048579       0.00350565      -0.00495893       0.00607866
F        4.40615159       1.05731864       7.63167854      -0.00350636       0.00495663      -0.00607115
