9
Lattice="7.036056657781616 1.1143197793017095e-07 4.062269102354382 2.3453523332594046 6.633657677798669 4.062269086870218 1.896347547760543e-08 -5.5549645344914085e-09 8.124538171863032" Properties=species:S:1:pos:R:3:forces:R:3 energy=-22.939176559448242 free_energy=-22.939176559448242 stress="6.446804763982072e-05 -1.2172625574180529e-08 2.508472762841052e-09 -1.2172625574180529e-08 6.450150249293074e-05 4.8295905052953e-09 2.508472762841052e-09 4.8295905052953e-09 6.451868830481544e-05" pbc="T T T"
K        2.34535234       1.65841458       4.06226946      -0.00000007      -0.00000013       0.00000066
K        7.03605665       4.97524320      12.18680695       0.00000003      -0.00000003      -0.00000070
Ge      -0.00000006      -0.00000002      -0.00000027       0.00000024       0.00000051       0.00000061
I        2.36870962       1.67493149       8.12453809       0.00141311       0.00100027      -0.00000004
I        7.01269946       4.95872640       8.12453809      -0.00141345      -0.00100081       0.00000024
I        5.85170179       1.67493095       6.11363209      -0.00070392       0.00099927       0.00122482
I        3.52970707       4.95872705      10.13544437       0.00070480      -0.00100024      -0.00122531
I        3.52970734       4.95872676       6.11363223       0.00070764      -0.00099665       0.00122453
I        5.85170181       1.67493070      10.13544441      -0.00070829       0.00099777      -0.00122491
