9
Lattice="7.195215617377769 -5.779910510617546e-09 4.1541597845646026 2.3984052452599776 6.783714166474267 4.154159706766426 1.7600488954250684e-08 -8.283749346180255e-08 8.308319538644286" Properties=species:S:1:pos:R:3:forces:R:3 energy=-31.95439910888672 free_energy=-31.95439910888672 stress="5.177518687560223e-05 -1.7530382478980755e-08 4.043207990633846e-09 -1.7530382478980755e-08 5.1783161325147375e-05 8.449299926382992e-09 4.043207990633846e-09 8.449299926382992e-09 5.178893115953542e-05" pbc="T T T"
K        2.39840512       1.69592793       4.15415926      -0.00000113      -0.00000090       0.00000121
K        7.19521553       5.08778572      12.46247954       0.00000066       0.00000051      -0.00000079
Hf       0.00000038      -0.00000016      -0.00000043      -0.00000333       0.00000024       0.00000421
I        2.33358518       1.65009391       8.30831937      -0.00081028      -0.00057365       0.00000086
I        7.26003545       5.13362037       8.30831946       0.00081204       0.00057490      -0.00000015
I        6.02842286       1.65009422       6.17510436       0.00040688      -0.00057419      -0.00070445
I        3.56519779       5.13362048      10.44153527      -0.00040386       0.00057121       0.00070091
I        3.56519822       5.13362005       6.17510423      -0.00040572       0.00057533      -0.00070371
I        6.02842302       1.65009383      10.44153510       0.00040469      -0.00057337       0.00070173
