9
Lattice="6.598982402559803 1.9073225526781322e-07 3.8099242925525485 2.1996609616592484 6.221580460888691 3.809924325492906 -3.908944674758751e-08 1.2703146531287584e-08 7.619848652809987" Properties=species:S:1:pos:R:3:forces:R:3 energy=-36.57441711425781 free_energy=-36.57441711425781 stress="5.34935352334287e-05 5.586908713439698e-08 -1.4602708375832663e-08 5.586908713439698e-08 5.34556747879833e-05 1.3798617359839227e-08 -1.4602708375832663e-08 1.3798617359839227e-08 5.340854113455862e-05" pbc="T T T"
K        2.19966099       1.55539503       3.80992438       0.00000021       0.00000002      -0.00000008
K        6.59898223       4.66618551      11.42977303      -0.00000005       0.00000019       0.00000037
Hf       0.00000039      -0.00000039      -0.00000183      -0.00000389       0.00000307       0.00002181
Br       2.14020279       1.51335221       7.61984838      -0.00072557      -0.00051349       0.00000096
Br       6.65843990       4.70822853       7.61984824       0.00072777       0.00051416       0.00000048
Br       5.52888093       1.51335202       5.66339443       0.00036480      -0.00051607      -0.00063139
Br       3.26976187       4.70822949       9.57630396      -0.00035669       0.00050396       0.00061756
Br       3.26976221       4.70822897       5.66339399      -0.00036263       0.00051269      -0.00062722
Br       5.52888203       1.51335119       9.57630451       0.00035599      -0.00050446       0.00061747
