9
Lattice="5.363299576726491 9.979156881998841e-08 3.096502564671392 1.7877666339630167 5.056567181094817 3.096502539897653 -1.527039031803265e-08 -4.113933965543262e-08 6.193005155791874" Properties=species:S:1:pos:R:3:forces:R:3 energy=-54.06903076171875 free_energy=-54.06903076171875 stress="-4.80053586215945e-06 2.362886553086696e-09 6.559643495052114e-09 2.362886553086696e-09 -4.7914322749420535e-06 -1.8327231288139956e-08 6.559643495052114e-09 -1.8327231288139956e-08 -4.771502972289454e-06" pbc="T T T"
K        1.78776679       1.26414194       3.09650257      -0.00000033      -0.00000021      -0.00000044
K        5.36329970       3.79242553       9.28950767      -0.00000046      -0.00000050      -0.00000001
Hf      -0.00000008       0.00000008      -0.00000013       0.00000652      -0.00000022      -0.00000362
F        1.63488927       1.15604118       6.19300509       0.00026929       0.00019095       0.00000030
F        5.51617682       3.90052596       6.19300508      -0.00027156      -0.00019203       0.00000018
F        4.54585499       1.15604121       4.51235825      -0.00013654       0.00019243       0.00023537
F        2.60521107       3.90052614       7.87365221       0.00013437      -0.00019084      -0.00023227
F        2.60521116       3.90052603       4.51235817       0.00013356      -0.00019003       0.00023226
F        4.54585514       1.15604113       7.87365215      -0.00013469       0.00019049      -0.00023177
