9
Lattice="6.234823981754463 -8.456530858647441e-08 3.5996773702836884 2.0782745952150314 5.878248193456332 3.599677345412911 5.250459677064117e-08 6.665842910027706e-09 7.199354649626866" Properties=species:S:1:pos:R:3:forces:R:3 energy=-40.84410858154297 free_energy=-40.84410858154297 stress="7.944476237753406e-05 -2.6539732189689857e-08 -5.959769344698884e-10 -2.6539732189689857e-08 7.944979734020308e-05 8.141136653705416e-09 -5.959769344698884e-10 8.141136653705416e-09 7.948136772029102e-05" pbc="T T T"
K        2.07827458       1.46956180       3.59967722      -0.00000014      -0.00000002       0.00000028
K        6.23482413       4.40868612      10.79903207       0.00000017       0.00000007      -0.00000026
Hf      -0.00000075      -0.00000020       0.00000109       0.00001532       0.00000159      -0.00001883
Cl       2.00450553       1.41739944       7.19935479      -0.00096895      -0.00068491      -0.00000013
Cl       6.30859368       4.46084943       7.19935472       0.00095718       0.00067607      -0.00000020
Cl       5.23257139       1.41739896       5.33562990       0.00047961      -0.00067731      -0.00083052
Cl       3.08052768       4.46084850       9.06307878      -0.00048734       0.00068922       0.00084363
Cl       3.08052733       4.46084901       5.33562994      -0.00048086       0.00068017      -0.00083336
Cl       5.23257096       1.41739936       9.06307897       0.00048510      -0.00068497       0.00083940
