9
Lattice="5.171126339397043 -1.5086291907409536e-07 2.985551345132845 1.7237086017761545 4.875384773754183 2.985551407119361 9.329351960827582e-09 8.251448858835801e-08 5.971102674106823" Properties=species:S:1:pos:R:3:forces:R:3 energy=-42.092376708984375 free_energy=-42.092376708984375 stress="0.0002823217073455453 -1.7803520790948824e-07 -2.9114129773688546e-08 -1.7803520790948824e-07 0.00028245459543541074 3.254681502085077e-08 -2.9114129773688546e-08 3.254681502085077e-08 0.0002825588744599372" pbc="T T T"
K        1.72370868       1.21884633       2.98555135       0.00000018      -0.00000011       0.00000026
K        5.17112624       3.65653810       8.95665467      -0.00000021       0.00000050      -0.00000025
Ir       0.00000004       0.00000003       0.00000025       0.00000777       0.00000543      -0.00002005
F        1.60528393       1.13510732       5.97110273      -0.00251099      -0.00177581       0.00000058
F        5.28955161       3.74027786       5.97110276       0.00250150       0.00176919       0.00000052
F        4.36848367       1.13510808       4.37576830       0.00125867      -0.00177936      -0.00217712
F        2.52635087       3.74027654       7.56643650      -0.00126223       0.00178629       0.00218739
F        2.52635105       3.74027674       4.37576842      -0.00125665       0.00177792      -0.00217589
F        4.36848375       1.13510783       7.56643682       0.00126196      -0.00178409       0.00218453
