9
Lattice="6.388200133413512 1.321633036309295e-07 3.6882290480081243 2.1294002314640355 6.022852622152335 3.6882289399489983 2.041878080565157e-08 -1.1790690953852362e-07 7.376458060649936" Properties=species:S:1:pos:R:3:forces:R:3 energy=-29.61728286743164 free_energy=-29.61728286743164 stress="-4.583344707498327e-05 6.281982223299565e-08 3.0913295034906696e-08 6.281982223299565e-08 -4.588422962115146e-05 -5.017025728193403e-08 3.0913295034906696e-08 -5.017025728193403e-08 -4.588049341691658e-05" pbc="T T T"
K        2.12939996       1.50571329       3.68822896       0.00000023       0.00000007      -0.00000009
K        6.38820037       4.51713950      11.06468693       0.00000002      -0.00000003       0.00000016
Ir       0.00000090      -0.00000048       0.00000049      -0.00002569       0.00000796      -0.00001026
Br       2.04642310       1.44703956       7.37645814       0.00125808       0.00088850       0.00000018
Br       6.47117611       4.57581246       7.37645820      -0.00124359      -0.00088018       0.00000031
Br       5.36498907       1.44703941       5.46048347      -0.00062878       0.00088905       0.00108754
Br       3.15261124       4.57581395       9.29243246       0.00063241      -0.00089443      -0.00109176
Br       3.15261153       4.57581350       5.46048343       0.00063141      -0.00089315       0.00109141
Br       5.36498922       1.44703936       9.29243209      -0.00062417       0.00088219      -0.00107744
