9
Lattice="6.1276645882948175 -4.914661522850546e-08 3.537809112409576 2.0425548821228823 5.777217467039975 3.5378089986246106 1.4220710405453982e-07 -3.8802105255989704e-08 7.075617978509302" Properties=species:S:1:pos:R:3:forces:R:3 energy=-32.9282341003418 free_energy=-32.9282341003418 stress="-2.8953134005860193e-06 -3.9780697846936164e-08 4.9477318242452384e-08 -3.9780697846936164e-08 -2.861805796783301e-06 -7.117692035762957e-08 4.9477318242452384e-08 -7.117692035762957e-08 -2.8158201530459337e-06" pbc="T T T"
K        2.04255494       1.44430437       3.53780906      -0.00000011       0.00000012       0.00000007
K        6.12766455       4.33291306      10.61342704       0.00000016      -0.00000019      -0.00000016
Ir      -0.00000047       0.00000017       0.00000084       0.00000505       0.00000483      -0.00002142
Cl       1.91492548       1.35405643       7.07561794       0.00257999       0.00182554       0.00000079
Cl       6.25529454       4.42316008       7.07561812      -0.00258440      -0.00182594       0.00000055
Cl       5.17020209       1.35405698       5.19618353      -0.00129348       0.00182818       0.00223827
Cl       3.00001774       4.42316072       8.95505233       0.00128883      -0.00182374      -0.00223124
Cl       3.00001784       4.42316032       5.19618381       0.00128959      -0.00182465       0.00223470
Cl       5.17020200       1.35405748       8.95505178      -0.00128558       0.00181592      -0.00222155
