9
Lattice="6.401658929492387 -4.054193614310792e-07 3.695998691286535 2.1338861946788583 6.035541207627954 3.6959982286883815 7.457191164568745e-08 -5.138344705988717e-07 7.391997253410818" Properties=species:S:1:pos:R:3:forces:R:3 energy=-31.66673469543457 free_energy=-31.66673469543457 stress="8.741898636799306e-05 -3.2693620255486167e-08 -5.803350688893261e-09 -3.2693620255486167e-08 8.740527118789032e-05 3.224258904310773e-08 -5.803350688893261e-09 3.224258904310773e-08 8.744736987864599e-05" pbc="T T T"
K        2.13388622       1.50888514       3.69599859      -0.00000005      -0.00000010       0.00000002
K        6.40165890       4.52665535      11.08799551      -0.00000029      -0.00000017      -0.00000005
Mn       0.00000223       0.00000150       0.00000022      -0.00003034      -0.00001625       0.00000028
Br       1.96130147       1.38684761       7.39199791      -0.00287471      -0.00203185      -0.00000066
Br       6.57424382       4.64869119       7.39199631       0.00289565       0.00204735       0.00000003
Br       5.42100829       1.38684861       5.39453606       0.00144462      -0.00203906      -0.00250289
Br       3.11453612       4.64869129       9.38945772      -0.00144040       0.00204122       0.00250275
Br       3.11453639       4.64869238       5.39453538      -0.00144080       0.00203716      -0.00250060
Br       5.42100754       1.38684807       9.38945912       0.00144646      -0.00203842       0.00250120
