9
Lattice="5.183206322611455 -1.061793945930072e-07 2.99252552853864 1.7277353901903367 4.886772867091214 2.9925254429289794 1.4308315417941464e-07 -3.674780438814902e-09 5.985050809249972" Properties=species:S:1:pos:R:3:forces:R:3 energy=-44.288604736328125 free_energy=-44.288604736328125 stress="-3.7628131394740194e-05 -3.475441445743854e-08 2.7382032641298792e-08 -3.475441445743854e-08 -3.782207932090387e-05 -2.6177410461514228e-08 2.7382032641298792e-08 -2.6177410461514228e-08 -3.7912395782768726e-05" pbc="T T T"
K        1.72773539       1.22169284       2.99252552       0.00000023      -0.00000023      -0.00000049
K        5.18320712       3.66508012       8.97757641      -0.00000106       0.00000006       0.00000047
Mn       0.00000018      -0.00000028      -0.00000002      -0.00001077       0.00001077       0.00000097
F        1.50659104       1.06531967       5.98505099       0.00263566       0.00186948      -0.00000045
F        5.40435099       3.82145316       5.98505091      -0.00263447      -0.00186938       0.00000069
F        4.42991039       1.06531991       4.29727138      -0.00131430       0.00186557       0.00228192
F        2.48103113       3.82145301       7.67283049       0.00131981      -0.00187127      -0.00228821
F        2.48103101       3.82145279       4.29727126       0.00131811      -0.00186953       0.00228618
F        4.42991036       1.06532001       7.67283042      -0.00131305       0.00186449      -0.00228137
