9
Lattice="6.98258139023469 1.2639859188342364e-07 4.031394812331475 2.3275273700105803 6.583240629525377 4.0313946031643955 3.5060466954695216e-08 -2.3138471031250813e-07 8.062789563936333" Properties=species:S:1:pos:R:3:forces:R:3 energy=-28.011507034301758 free_energy=-28.011507034301758 stress="0.00019444305507931858 -4.698867961394626e-09 -1.4705228146283389e-08 -4.698867961394626e-09 0.00019444921053946018 1.0275501338696813e-08 -1.4705228146283389e-08 1.0275501338696813e-08 0.00019445832003839314" pbc="T T T"
K        2.32752738       1.64581018       4.03139534       0.00000031      -0.00000011       0.00000064
K        6.98258134       4.93743031      12.09418352      -0.00000042      -0.00000001      -0.00000048
Mn       0.00000005      -0.00000006       0.00000005      -0.00000014       0.00000039      -0.00000179
I        2.29386657       1.62200859       8.06278919       0.00251693       0.00177801       0.00000086
I        7.01624210       4.96123202       8.06278990      -0.00251690      -0.00177777      -0.00000069
I        5.83564824       1.62200861       6.01794125      -0.00125772       0.00178107       0.00217837
I        3.47446083       4.96123175      10.10763763       0.00125715      -0.00178014      -0.00217785
I        3.47446047       4.96123160       6.01794163       0.00125855      -0.00177946       0.00217958
I        5.83564825       1.62200904      10.10763751      -0.00125777       0.00177813      -0.00217859
