9
Lattice="6.1877688068458045 2.428351920889864e-07 3.572509870142174 2.062589881532192 5.833884427248471 3.572509783014415 -1.178570236371825e-08 -1.1504298735034004e-07 7.145019760697584" Properties=species:S:1:pos:R:3:forces:R:3 energy=-36.62898635864258 free_energy=-36.62898635864258 stress="6.074263001210056e-05 5.982855100228335e-08 7.338466279094291e-09 5.982855100228335e-08 6.0722901253029704e-05 -1.7814594244214277e-08 7.338466279094291e-09 -1.7814594244214277e-08 6.067307913326658e-05" pbc="T T T"
K        2.06258995       1.45847114       3.57250987      -0.00000012       0.00000002      -0.00000001
K        6.18776872       4.37541345      10.71752933       0.00000004       0.00000001      -0.00000009
Mo      -0.00000057      -0.00000007      -0.00000121       0.00001209       0.00000320       0.00002662
Cl       1.96372699       1.38856519       7.14501994      -0.00103980      -0.00073598      -0.00000061
Cl       6.28663224       4.44531999       7.14501978       0.00102949       0.00072864      -0.00000067
Cl       5.20590605       1.38856419       5.27314655       0.00051618      -0.00073026      -0.00089471
Cl       3.04445243       4.44532023       9.01689299      -0.00051044       0.00072309       0.00088434
Cl       3.04445298       4.44531985       5.27314713      -0.00051869       0.00073436      -0.00089937
Cl       5.20590589       1.38856414       9.01689304       0.00051126      -0.00072294       0.00088437
