9
Lattice="6.999121326312632 5.165738353522362e-07 4.040943879941827 2.3330407999411897 6.598834565078161 4.040944103711515 -1.155158833987154e-07 1.9237871741781254e-07 8.081887959963105" Properties=species:S:1:pos:R:3:forces:R:3 energy=-29.007625579833984 free_energy=-29.007625579833984 stress="0.00011451546015450731 5.5733618609110636e-08 -4.6389607710750624e-09 5.5733618609110636e-08 0.00011447346332715824 1.9531240624814927e-08 -4.6389607710750624e-09 1.9531240624814927e-08 0.00011441834067227319" pbc="T T T"
K        2.33304097       1.64970871       4.04094271      -0.00000021       0.00000026      -0.00000041
K        6.99912109       4.94912663      12.12283320      -0.00000019      -0.00000030       0.00000045
Mo      -0.00000103      -0.00000134      -0.00000186       0.00001350       0.00001746       0.00001982
I        2.28626258       1.61663202       8.08188810      -0.00717723      -0.00507399      -0.00000030
I        7.04590157       4.98220457       8.08188756       0.00715721       0.00506127       0.00000061
I        5.85599076       1.61663126       6.02090382       0.00358467      -0.00506799      -0.00620770
I        3.47617035       4.98220455      10.14287349      -0.00357507       0.00505780       0.00619310
I        3.47617095       4.98220467       6.02090262      -0.00358029       0.00506426      -0.00620140
I        5.85599086       1.61663008      10.14287413       0.00357752      -0.00505866       0.00619595
