9
Lattice="5.227535157640151 -7.656952913921077e-08 3.0181190242919653 1.7425116260936027 4.928567566255598 3.018119060542595 6.761801899860595e-09 4.9179147176203047e-08 6.036238036872116" Properties=species:S:1:pos:R:3:forces:R:3 energy=-45.11855697631836 free_energy=-45.11855697631836 stress="0.00036756930057890713 -1.0682467177502986e-07 -3.2428515428506444e-09 -1.0682467177502986e-07 0.00036762779927812517 1.4217593324872269e-08 -3.2428515428506444e-09 1.4217593324872269e-08 0.00036779107176698744" pbc="T T T"
K        1.74251167       1.23214203       3.01811923      -0.00000011      -0.00000034      -0.00000049
K        5.22753501       3.69642545       9.05435647       0.00000076       0.00000050       0.00000039
Mo      -0.00000000       0.00000006       0.00000029      -0.00000277      -0.00000543      -0.00001875
F        1.63550779       1.15647890       6.03623807      -0.00572574      -0.00404885       0.00000050
F        5.33453863       3.77208880       6.03623817       0.00573069       0.00405127       0.00000063
F        4.40978098       1.15647916       4.43451149       0.00286569      -0.00405352      -0.00496528
F        2.56026610       3.77208818       7.63796446      -0.00287190       0.00406122       0.00497645
F        2.56026608       3.77208827       4.43451163      -0.00286661       0.00405338      -0.00496641
F        4.40978093       1.15647920       7.63796475       0.00286995      -0.00405827       0.00497293
