9
Lattice="6.487198044768981 -3.837701388006861e-07 3.745385762438 2.1623989005100386 6.116189691196228 3.7453859112631385 -2.1084299496153553e-07 3.318434210459754e-08 7.49077189006684" Properties=species:S:1:pos:R:3:forces:R:3 energy=-32.84293746948242 free_energy=-32.84293746948242 stress="-4.3635533074848354e-05 -1.6899959121019492e-07 -2.9165132531261406e-09 -1.6899959121019492e-07 -4.3506865040399134e-05 -1.0658350646508552e-08 -2.9165132531261406e-09 -1.0658350646508552e-08 -4.334431287134066e-05" pbc="T T T"
K        2.16239925       1.52904732       3.74538610      -0.00000017      -0.00000002       0.00000005
K        6.48719737       4.58714214      11.23615777       0.00000008       0.00000014      -0.00000009
Mo       0.00000041      -0.00000244       0.00000572      -0.00000433       0.00004289      -0.00008565
Br       2.10009214       1.48498954       7.49077190      -0.00054003      -0.00038065      -0.00000037
Br       6.54950623       4.63120073       7.49077198       0.00051957       0.00036821      -0.00000061
Br       5.43715159       1.48498972       5.56412076       0.00026736      -0.00037707      -0.00046669
Br       3.21244600       4.63119886       9.41742104      -0.00028078       0.00039738       0.00048839
Br       3.21244426       4.63120043       5.56411923      -0.00025558       0.00036263      -0.00044586
Br       5.43714971       1.48499122       9.41741979       0.00029401      -0.00041351       0.00051068
