9
Lattice="5.223521388803246 2.529105904708826e-07 3.015802298292398 1.7411740284028372 4.924783645368897 3.0158023092238597 -3.356770107021573e-08 -1.034772393256939e-08 6.031604654725763" Properties=species:S:1:pos:R:3:forces:R:3 energy=-49.66185760498047 free_energy=-49.66185760498047 stress="0.0002455237554386258 -2.9058753625577083e-07 3.564942119282932e-08 -2.9058753625577083e-07 0.00024572567781433463 -1.1734768712301502e-08 3.564942119282932e-08 -1.1734768712301502e-08 0.0002459510287735611" pbc="T T T"
K        1.74117377       1.23119577       3.01580254      -0.00000070       0.00000012      -0.00000095
K        5.22352146       3.69358822       9.04740659       0.00000136       0.00000011       0.00000053
Nb       0.00000019       0.00000006      -0.00000040      -0.00000305       0.00000421      -0.00001302
F        1.63950672       1.15930610       6.03160512      -0.00124627      -0.00088093      -0.00000085
F        5.32518899       3.76547772       6.03160495       0.00124526       0.00088078      -0.00000025
F        4.40376786       1.15930689       4.43565788       0.00063166      -0.00089380      -0.00109601
F        2.56092810       3.76547606       7.62755117      -0.00063506       0.00089917       0.00110042
F        2.56092748       3.76547693       4.43565805      -0.00063205       0.00089386      -0.00109565
F        4.40376704       1.15930796       7.62755076       0.00063875      -0.00090304       0.00110567
