9
Lattice="7.131828492670417 2.1362138872488763e-07 4.117562840688171 2.3772764595755285 6.723952399952583 4.117562677965183 8.763454865919432e-08 -1.3732716876297067e-07 8.23512552958878" Properties=species:S:1:pos:R:3:forces:R:3 energy=-29.681074142456055 free_energy=-29.681074142456055 stress="3.7120200431672856e-05 9.105234255457617e-08 8.527607064934273e-09 9.105234255457617e-08 3.707703581312671e-05 -1.3842263335561711e-08 8.527607064934273e-09 -1.3842263335561711e-08 3.699344233609736e-05" pbc="T T T"
K        2.37727589       1.68098765       4.11756440       0.00000032       0.00000024      -0.00000061
K        7.13182907       5.04296466      12.35268673      -0.00000025      -0.00000041       0.00000050
Nb       0.00000087       0.00000034      -0.00000398      -0.00000880      -0.00000456       0.00004183
I        2.30533401       1.63011784       8.23512538      -0.00055527      -0.00039284       0.00000104
I        7.20376988       5.09383415       8.23512508       0.00056512       0.00040004       0.00000172
I        5.97916180       1.63011778       6.11403991       0.00027976      -0.00039746      -0.00048436
I        3.52994212       5.09383696      10.35621349      -0.00026622       0.00037617       0.00046131
I        3.52994368       5.09383492       6.11404018      -0.00028175       0.00039817      -0.00048584
I        5.97916289       1.63011556      10.35621299       0.00026709      -0.00037935       0.00046440
