9
Lattice="6.181085625689011 -2.738405775175249e-08 3.5686516951460536 2.060361934659286 5.827583196509102 3.568651547493197 1.1882679957042451e-07 -9.681410846826029e-08 7.137303184478153" Properties=species:S:1:pos:R:3:forces:R:3 energy=-37.671295166015625 free_energy=-37.671295166015625 stress="-0.0001253238006029278 -3.3541063260145165e-08 1.8610242236150043e-08 -3.3541063260145165e-08 -0.0001252911752089858 -4.1408398487874365e-08 1.8610242236150043e-08 -4.1408398487874365e-08 -0.00012521476310212165" pbc="T T T"
K        2.06036199       1.45689568       3.56865157      -0.00000020      -0.00000001      -0.00000029
K        6.18108568       4.37068740      10.70595510      -0.00000003      -0.00000013      -0.00000056
Nb       0.00000213       0.00000034       0.00000309      -0.00002384      -0.00000434      -0.00004054
Cl       1.98372769       1.40270735       7.13730292       0.00264654       0.00187074       0.00000024
Cl       6.25771909       4.42487520       7.13730331      -0.00262836      -0.00185838      -0.00000120
Cl       5.18922153       1.40270695       5.28661062      -0.00132240       0.00187084       0.00228909
Cl       3.05222614       4.42487503       8.98799445       0.00131308      -0.00185724      -0.00227273
Cl       3.05222552       4.42487577       5.28661068       0.00132370      -0.00187059       0.00228912
Cl       5.18922097       1.40270857       8.98799407      -0.00130849       0.00184911      -0.00226340
