9
Lattice="6.556967753908637 -2.7533446178065055e-07 3.785667284552748 2.1856555696825293 6.181968667071803 3.785667438184446 2.976568044033262e-08 2.0920708892307666e-07 7.57133451754994" Properties=species:S:1:pos:R:3:forces:R:3 energy=-33.818336486816406 free_energy=-33.818336486816406 stress="8.019153756322339e-05 -1.5800871722149168e-07 -1.8952004410266454e-08 -1.5800871722149168e-07 8.031397010199726e-05 3.529866177132135e-08 -1.8952004410266454e-08 3.529866177132135e-08 8.041104592848569e-05" pbc="T T T"
K        2.18565568       1.54549203       3.78566714       0.00000009       0.00000042      -0.00000049
K        6.55696755       4.63647671      11.35700191       0.00000027      -0.00000005       0.00000023
Nb      -0.00000083      -0.00000151       0.00000055       0.00001384       0.00002179      -0.00001169
Br       2.12047324       1.49940134       7.57133512      -0.00188364      -0.00133212      -0.00000107
Br       6.62215180       4.68256861       7.57133463       0.00186127       0.00131673      -0.00000072
Br       5.49673043       1.49940184       5.62205254       0.00094645      -0.00133814      -0.00163986
Br       3.24589315       4.68256611       9.52061666      -0.00094735       0.00134163       0.00164103
Br       3.24589255       4.68256704       5.62205176      -0.00094000       0.00133093      -0.00162970
Br       5.49672984       1.49940226       9.52061664       0.00094910      -0.00134125       0.00164232
