9
Lattice="6.242720366836069 1.2647944370016032e-07 3.6042363720147508 2.080906875625123 5.885693786982801 3.6042364284208315 4.002324860948172e-08 9.738376194253631e-08 7.208472674707277" Properties=species:S:1:pos:R:3:forces:R:3 energy=-25.945085525512695 free_energy=-25.945085525512695 stress="-9.174543083645403e-05 -8.018148922595003e-10 9.833504677203564e-09 -8.018148922595003e-10 -9.174071601592004e-05 -6.989996581552305e-09 9.833504677203564e-09 -6.989996581552305e-09 -9.176782623399049e-05" pbc="T T T"
K        2.08090683       1.47142357       3.60423625      -0.00000039      -0.00000022       0.00000016
K        6.24272037       4.41427046      10.81270880      -0.00000002      -0.00000002       0.00000015
Ni       0.00000073       0.00000082      -0.00000106      -0.00000884      -0.00000963       0.00001431
Br       1.99913953       1.41360518       7.20847254       0.00235862       0.00166768      -0.00000029
Br       6.32448712       4.47208841       7.20847245      -0.00234872      -0.00166130       0.00000074
Br       5.24315050       1.41360575       5.33554189      -0.00117527       0.00166187       0.00203750
Br       3.08047648       4.47208848       9.08140449       0.00117882      -0.00166649      -0.00204355
Br       3.08047653       4.47208807       5.33554205       0.00117435      -0.00165993       0.00203559
Br       5.24315088       1.41360529       9.08140455      -0.00117849       0.00166813      -0.00204486
