9
Lattice="6.789766327373273 -2.6780550808184024e-07 3.9200736054223904 2.2632554265000535 6.401452947926091 3.920073195737351 1.070387361167848e-07 -4.260717240334284e-07 7.840147025448067" Properties=species:S:1:pos:R:3:forces:R:3 energy=-23.135921478271484 free_energy=-23.135921478271484 stress="-1.2386943126330152e-05 2.348966177123657e-08 -4.9530215484594464e-09 2.348966177123657e-08 -1.2403031178109813e-05 -5.557857285509726e-09 -4.9530215484594464e-09 -5.557857285509726e-09 -1.2403245818859432e-05" pbc="T T T"
K        2.26325556       1.60036298       3.92007377      -0.00000013       0.00000007       0.00000005
K        6.78976637       4.80108913      11.76022030      -0.00000003      -0.00000023       0.00000031
Ni       0.00000022       0.00000017       0.00000131       0.00000043       0.00000001      -0.00000551
I        2.22848859       1.57577846       7.84014691      -0.00009739      -0.00006866       0.00000023
I        6.82453347       4.82567441       7.84014772       0.00009653       0.00006804      -0.00000147
I        5.67552241       1.57577830       5.84999915       0.00004762      -0.00006677      -0.00008051
I        3.37750034       4.82567239       9.83029339      -0.00004940       0.00007018       0.00008391
I        3.37749849       4.82567481       5.85000115      -0.00004633       0.00006613      -0.00008211
I        5.67552212       1.57577826       9.83029152       0.00004877      -0.00006881       0.00008518
