9
Lattice="6.093631607101714 -1.9859007780601487e-07 3.5181598989596896 2.03121034839251 5.745131378079471 3.5181598990902736 -2.2654566967440683e-08 -1.5859280569984316e-08 7.036319837158234" Properties=species:S:1:pos:R:3:forces:R:3 energy=-34.890193939208984 free_energy=-34.890193939208984 stress="-6.860683060949668e-05 -3.8616402520119664e-08 -9.167744785543164e-09 -3.8616402520119664e-08 -6.854975799797103e-05 1.2260394477436876e-08 -9.167744785543164e-09 1.2260394477436876e-08 -6.852613296359777e-05" pbc="T T T"
K        2.03121056       1.43628290       3.51815985       0.00000003      -0.00000019      -0.00000003
K        6.09363148       4.30884817      10.55447972      -0.00000014       0.00000001      -0.00000008
Os       0.00000035      -0.00000043       0.00000131      -0.00000665       0.00001003      -0.00002227
Cl       1.92465109       1.36093425       7.03631988       0.00554246       0.00391835       0.00000074
Cl       6.20019111       4.38419724       7.03631954      -0.00554436      -0.00391978       0.00000076
Cl       5.13130583       1.36093418       5.18495749      -0.00277007       0.00391725       0.00479856
Cl       2.99353634       4.38419661       8.88768198       0.00276874      -0.00391418      -0.00479317
Cl       2.99353568       4.38419724       5.18495690       0.00277467      -0.00392190       0.00480404
Cl       5.13130530       1.36093433       8.88768189      -0.00276451       0.00391036      -0.00478852
