9
Lattice="6.934386059536363 1.318314400009758e-07 4.003569734789039 2.311462312059018 6.537801740629485 4.0035694439399485 2.62549311765237e-07 -1.7056544032365145e-07 8.007139014829212" Properties=species:S:1:pos:R:3:forces:R:3 energy=-27.736148834228516 free_energy=-27.736148834228516 stress="-0.00016869734099600464 -5.293997240585213e-09 4.313097434760493e-09 -5.293997240585213e-09 -0.0001686744944890961 9.503988707137978e-09 4.313097434760493e-09 9.503988707137978e-09 -0.0001686788018560037" pbc="T T T"
K        2.31146170       1.63445029       4.00357058       0.00000005       0.00000027       0.00000011
K        6.93438700       4.90335146      12.01070789      -0.00000052       0.00000017      -0.00000017
Os      -0.00000031       0.00000025       0.00000011       0.00000560      -0.00000495      -0.00000356
I        2.21966237       1.56953799       8.00713987       0.00714242       0.00504876      -0.00000079
I        7.02618644       4.96826418       8.00713829      -0.00714365      -0.00505067       0.00000049
I        5.82455560       1.56953856       5.92585229      -0.00357374       0.00505094       0.00618771
I        3.42129349       4.96826255      10.08842491       0.00357092      -0.00504642      -0.00618157
I        3.42129177       4.96826295       5.92585326       0.00357173      -0.00504902       0.00618494
I        5.82455642       1.56953844      10.08842547      -0.00357281       0.00505090      -0.00618723
