9
Lattice="6.434046933538137 1.1490814089512345e-07 3.714698699858175 2.1446824185588187 6.066077176093409 3.7146987015159243 -6.112628790412703e-08 -4.119266800872545e-08 7.429397505590375" Properties=species:S:1:pos:R:3:forces:R:3 energy=-31.250293731689453 free_energy=-31.250293731689453 stress="-0.00011132485815323889 6.464798474326017e-08 3.859481623180727e-09 6.464798474326017e-08 -0.00011137122783111408 1.2223447809489585e-09 3.859481623180727e-09 1.2223447809489585e-09 -0.0001114131446229294" pbc="T T T"
K        2.14468238       1.51651896       3.71469854       0.00000009      -0.00000035      -0.00000011
K        6.43404683       4.54955823      11.14409631      -0.00000001       0.00000037       0.00000010
Os       0.00000085       0.00000075      -0.00000069      -0.00001756      -0.00001491       0.00001026
Br       2.04801115       1.44816230       7.42939738       0.00567128       0.00400974       0.00000008
Br       6.53071684       4.61791401       7.42939744      -0.00565295      -0.00399670      -0.00000003
Br       5.41004165       1.44816248       5.48832817      -0.00283390       0.00400688       0.00490753
Br       3.16868762       4.61791520       9.37046720       0.00283599      -0.00401030      -0.00491220
Br       3.16868793       4.61791487       5.48832821       0.00283279      -0.00400554       0.00490659
Br       5.41004191       1.44816219       9.37046702      -0.00283564       0.00401053      -0.00491224
