9
Lattice="5.353859388265283 -2.2256586306195878e-07 3.0910524034633156 1.7846195873815491 5.047667127958995 3.091052401505785 5.927182394000233e-09 1.7936233947719666e-09 6.182104796660495" Properties=species:S:1:pos:R:3:forces:R:3 energy=-38.57625961303711 free_energy=-38.57625961303711 stress="-0.00012798442912753671 -1.365910407002957e-07 -3.5270895093475474e-09 -1.365910407002957e-07 -0.00012791427434422076 -5.42628164623693e-08 -3.5270895093475474e-09 -5.42628164623693e-08 -0.00012780212273355573" pbc="T T T"
K        1.78461960       1.26191683       3.09105248       0.00000064      -0.00000064      -0.00000089
K        5.35385941       3.78575034       9.27315794      -0.00000042      -0.00000037      -0.00000089
Pb       0.00000012       0.00000009       0.00000016      -0.00000583      -0.00000023       0.00000072
F        1.71206793       1.21061461       6.18210471       0.00200987       0.00142269       0.00000053
F        5.42641137       3.83705213       6.18210459      -0.00200722      -0.00141911      -0.00000026
F        4.49782480       1.21061502       4.57374756      -0.00099958       0.00141449       0.00173189
F        2.64065378       3.83705172       7.79046198       0.00100030      -0.00141528      -0.00173388
F        2.64065409       3.83705143       4.57374775       0.00099941      -0.00141273       0.00173092
F        4.49782476       1.21061551       7.79046159      -0.00099717       0.00141141      -0.00172812
