9
Lattice="7.3509268555714256 1.22264814994839e-06 4.244058691222094 2.4503094070032 6.93052067432043 4.244059899462186 -7.043584398657944e-07 9.817292918246701e-07 8.488118602428784" Properties=species:S:1:pos:R:3:forces:R:3 energy=-22.65308380126953 free_energy=-22.65308380126953 stress="0.00011222279135836288 2.9818103541856544e-08 -2.516558073040187e-09 2.9818103541856544e-08 0.00011220000305911526 6.104710070786723e-09 -2.516558073040187e-09 6.104710070786723e-09 0.00011217343853786588" pbc="T T T"
K        2.45030796       1.73262939       4.24405831      -0.00000032      -0.00000017      -0.00000058
K        7.35092746       5.19789337      12.73217908      -0.00000016       0.00000030       0.00000005
Pb       0.00000100       0.00000031      -0.00000240      -0.00000341      -0.00000133       0.00001206
I        2.58213268       1.82584353       8.48811855      -0.00349948      -0.00247438       0.00000009
I        7.21910267       5.10467921       8.48811832       0.00350113       0.00247574      -0.00000060
I        6.05986102       1.82584412       6.48025142       0.00175133      -0.00247499      -0.00303081
I        3.74137341       5.10468019      10.49598700      -0.00174719       0.00247027       0.00302470
I        3.74137551       5.10467687       6.48025043      -0.00174883       0.00247364      -0.00302984
I        6.05986066       1.82584452      10.49598799       0.00174689      -0.00246911       0.00302498
