9
Lattice="6.739822896296722 4.700389875488142e-08 3.891238668584149 2.2466076125098993 6.354366048549781 3.8912387792702066 6.876294534762018e-09 1.4042456756426673e-07 7.782477325258017" Properties=species:S:1:pos:R:3:forces:R:3 energy=-25.383642196655273 free_energy=-25.383642196655273 stress="0.00012561623589135706 -8.246429317182447e-09 5.9756466441740486e-09 -8.246429317182447e-09 0.0001256372925126925 -5.64738211750182e-09 5.9756466441740486e-09 -5.64738211750182e-09 0.0001256293326150626" pbc="T T T"
K        2.24660810       1.58859149       3.89123892      -0.00000036      -0.00000073       0.00000026
K        6.73982266       4.76577493      11.67371585       0.00000037       0.00000054       0.00000010
Pb       0.00000016       0.00000028       0.00000198      -0.00000177      -0.00000179      -0.00001698
Br       2.30474376       1.62970018       7.78247807      -0.00163517      -0.00115690      -0.00000190
Br       6.68168592       4.72466540       7.78247736       0.00163770       0.00115924       0.00000046
Br       5.58745177       1.62969947       5.88720484       0.00081430      -0.00115351      -0.00141160
Br       3.39898001       4.72466492       9.67774875      -0.00082045       0.00116196       0.00142066
Br       3.39897924       4.72466716       5.88720516      -0.00081610       0.00115295      -0.00141334
Br       5.58745039       1.62970109       9.67774814       0.00082148      -0.00116177       0.00142228
