9
Lattice="6.073620369230257 7.473082925165273e-08 3.5066067523213675 2.0245404377266607 5.7262642976642 3.506606329366581 9.26188822898737e-08 -4.5252025226763027e-07 7.01321334422208" Properties=species:S:1:pos:R:3:forces:R:3 energy=-28.5727596282959 free_energy=-28.5727596282959 stress="4.087452907697298e-06 9.260445921199789e-08 5.939769565088682e-08 9.260445921199789e-08 4.202175659884233e-06 -8.450913213664535e-08 5.939769565088682e-08 -8.450913213664535e-08 4.24822019340354e-06" pbc="T T T"
K        2.02453967       1.43156567       3.50660651       0.00000012       0.00000009      -0.00000029
K        6.07362052       4.29469786      10.51981989      -0.00000010       0.00000026      -0.00000023
P       -0.00000500      -0.00000176      -0.00000135       0.00003012       0.00000816       0.00000445
Cl       1.90935171       1.35011603       7.01321281      -0.00173736      -0.00123061      -0.00000121
Cl       6.18881521       4.37615191       7.01321327       0.00173310       0.00123170      -0.00000074
Cl       5.11894683       1.35011272       5.16015157       0.00085406      -0.00122245      -0.00149981
Cl       2.97921211       4.37615125       8.86627603      -0.00086638       0.00121855       0.00149579
Cl       2.97921476       4.37614966       5.16015262      -0.00087309       0.00122610      -0.00150776
Cl       5.11894769       1.35011209       8.86627426       0.00085943      -0.00123189       0.00150979
