9
Lattice="6.320896238020732 -2.3652286975017447e-07 3.6493712733441033 2.1069652105046055 5.9593982778855565 3.649371237270745 1.4562872098990988e-09 -4.3150892678167876e-08 7.298742544165772" Properties=species:S:1:pos:R:3:forces:R:3 energy=-25.845983505249023 free_energy=-25.845983505249023 stress="-2.7954893084825017e-05 -6.548818021201441e-08 7.272300095451101e-09 -6.548818021201441e-08 -2.789089376165066e-05 -1.7318779299557718e-08 7.272300095451101e-09 -1.7318779299557718e-08 -2.7844538635690697e-05" pbc="T T T"
K        2.10696538       1.48984971       3.64937132       0.00000005      -0.00000019       0.00000000
K        6.32089608       4.46954841      10.94811385       0.00000001       0.00000028       0.00000033
Pd       0.00000011      -0.00000002      -0.00000101       0.00000069      -0.00000286       0.00001253
Br       2.05215933       1.45109615       7.29874288       0.00062402       0.00044063      -0.00000079
Br       6.37570188       4.50830181       7.29874263      -0.00062266      -0.00043933      -0.00000092
Br       5.29481599       1.45109655       5.42659429      -0.00030771       0.00043418       0.00053205
Br       3.13304539       4.50830176       9.17089089       0.00030931      -0.00043726      -0.00053634
Br       3.13304571       4.50830126       5.42659426       0.00030607      -0.00043219       0.00052938
Br       5.29481599       1.45109641       9.17089108      -0.00030970       0.00043670      -0.00053620
