9
Lattice="6.048559082439613 -4.022375360391348e-08 3.49213723935282 2.01618632986187 5.702636207396294 3.492137227276993 7.386181760771994e-09 -9.566993520182286e-09 6.9842744659123985" Properties=species:S:1:pos:R:3:forces:R:3 energy=-28.610483169555664 free_energy=-28.610483169555664 stress="0.000354830757714808 -3.424372252425201e-08 1.3415621502588237e-08 -3.424372252425201e-08 0.0003547994128894061 -1.7482602032714567e-08 1.3415621502588237e-08 -1.7482602032714567e-08 0.00035484720137901604" pbc="T T T"
K        2.01618636       1.42565905       3.49213724      -0.00000076      -0.00000031       0.00000035
K        6.04855908       4.27697710      10.47641170      -0.00000090       0.00000051       0.00000060
Pd      -0.00000004       0.00000011       0.00000018       0.00000049       0.00000158       0.00000171
Cl       1.91807683       1.35628514       6.98427449      -0.00016963      -0.00011963      -0.00000018
Cl       6.14666861       4.34635099       6.98427447       0.00016922       0.00011933      -0.00000019
Cl       5.08952066       1.35628513       5.15324057       0.00008641      -0.00012101      -0.00014879
Cl       2.97522480       4.34635095       8.81530824      -0.00008486       0.00011994       0.00014685
Cl       2.97522478       4.34635095       5.15324057      -0.00008617       0.00012115      -0.00014879
Cl       5.08952059       1.35628520       8.81530825       0.00008619      -0.00012138       0.00014842
