9
Lattice="5.121371518679753 -1.7995113584242255e-08 2.9568252384665317 1.7071238733589555 4.828475507401979 2.956825150538998 -1.026965060741452e-08 -1.1495066662557866e-07 5.913650494720569" Properties=species:S:1:pos:R:3:forces:R:3 energy=-37.380401611328125 free_energy=-37.380401611328125 stress="-1.0201295481238049e-05 6.42243369597395e-09 1.0463613087097201e-08 6.42243369597395e-09 -1.0236577509203926e-05 -1.4204368348202934e-08 1.0463613087097201e-08 -1.4204368348202934e-08 -1.0235278750769794e-05" pbc="T T T"
K        1.70712380       1.20711874       2.95682520       0.00000003       0.00000035      -0.00000014
K        5.12137126       3.62135648       8.87047618       0.00000032      -0.00000001      -0.00000010
Pd      -0.00000012      -0.00000007      -0.00000005      -0.00000541       0.00000542       0.00000490
F        1.58945918       1.12391764       5.91365041       0.00618076       0.00436991       0.00000002
F        5.23903617       3.70455760       5.91365022      -0.00617924      -0.00436898       0.00000113
F        4.32664197       1.12391782       4.33333760      -0.00308893       0.00436690       0.00534876
F        2.50185344       3.70455817       7.49396351       0.00309305      -0.00437362      -0.00535672
F        2.50185363       3.70455774       4.33333739       0.00308979      -0.00436998       0.00535320
F        4.32664217       1.12391736       7.49396302      -0.00309043       0.00437012      -0.00535094
