9
Lattice="5.157407375265796 2.273073893031346e-07 2.9776298802294785 1.7191360627681174 4.862449685366105 2.977629782013066 -1.1688397829074926e-07 -2.02939460923941e-07 5.9552599629077925" Properties=species:S:1:pos:R:3:forces:R:3 energy=-42.952640533447266 free_energy=-42.952640533447266 stress="-5.20902494827169e-06 1.8024530845650588e-07 -3.851181062941578e-08 1.8024530845650588e-07 -5.496228368429001e-06 7.36925471755967e-08 -3.851181062941578e-08 7.36925471755967e-08 -5.659227554133395e-06" pbc="T T T"
K        1.71913541       1.21561235       2.97762930       0.00000076       0.00000057       0.00000028
K        5.15740800       3.64683750       8.93289099      -0.00000123      -0.00000073      -0.00000169
P       -0.00000016      -0.00000013      -0.00000083       0.00000597       0.00000499       0.00000775
F        1.36212955       0.96317045       5.95525991       0.00158662       0.00112355      -0.00000372
F        5.51441360       3.89927954       5.95525883      -0.00159258      -0.00113094       0.00000137
F        4.47634321       0.96316958       4.15726654      -0.00080281       0.00113904       0.00139272
F        2.40019989       3.89927861       7.75325250       0.00080177      -0.00113052      -0.00139469
F        2.40020008       3.89928047       4.15726634       0.00080326      -0.00114483       0.00139785
F        4.47634314       0.96317007       7.75325302      -0.00080177       0.00113851      -0.00140023
