9
Lattice="6.952592547698682 4.9156990996962396e-08 4.0140815230761335 2.3175311841129567 6.554966818379671 4.014081023320011 3.3204741474682795e-07 -3.772806170451972e-07 8.02816247102929" Properties=species:S:1:pos:R:3:forces:R:3 energy=-22.526073455810547 free_energy=-22.526073455810547 stress="9.705125557957217e-05 7.225162246271566e-09 -7.166880866549263e-09 7.225162246271566e-09 9.701614908408374e-05 5.511688883075294e-09 -7.166880866549263e-09 5.511688883075294e-09 9.700309601612389e-05" pbc="T T T"
K        2.31753084       1.63874185       4.01408155      -0.00000022       0.00000013      -0.00000006
K        6.95259342       4.91622483      12.04224339       0.00000012      -0.00000008      -0.00000001
P       -0.00000023       0.00000041      -0.00000062       0.00000101      -0.00000075       0.00000195
I        2.27923581       1.61166100       8.02816316      -0.00411309      -0.00290509      -0.00000070
I        6.99088839       4.94330559       8.02816168       0.00411229       0.00290412       0.00000063
I        5.81297389       1.61166143       5.98795495       0.00205793      -0.00290524      -0.00355665
I        3.45714989       4.94330519      10.06837025      -0.00205737       0.00290550       0.00355686
I        3.45714849       4.94330470       5.98795575      -0.00205680       0.00290608      -0.00355850
I        5.81297574       1.61166087      10.06836997       0.00205613      -0.00290470       0.00355643
