9
Lattice="6.8968127400741865 -4.1546518727298655e-07 3.9818772926288486 2.298937315889276 6.50237747419197 3.981877071672917 1.1692702346493336e-07 -1.879347156971212e-07 7.963754382734229" Properties=species:S:1:pos:R:3:forces:R:3 energy=-24.01460075378418 free_energy=-24.01460075378418 stress="-1.894085835374426e-05 -3.614545107666345e-08 9.938192491176778e-09 -3.614545107666345e-08 -1.8930379155790433e-05 -8.623812774999351e-10 9.938192491176778e-09 -8.623812774999351e-10 -1.889855229819659e-05" pbc="T T T"
K        2.29893767       1.62559411       3.98187673      -0.00000003      -0.00000009       0.00000095
K        6.89681290       4.87678260      11.94563186       0.00000014      -0.00000004      -0.00000022
Pt      -0.00000046       0.00000010       0.00000118       0.00000418      -0.00000140      -0.00000945
I        2.22041382       1.57006935       7.96375538       0.00030527       0.00021718      -0.00000284
I        6.97533619       4.93230780       7.96375458      -0.00030667      -0.00021867       0.00000081
I        5.78660543       1.57006946       5.90481238      -0.00015341       0.00021699       0.00026682
I        3.40914545       4.93230636      10.02269507       0.00014799      -0.00020996      -0.00025906
I        3.40914527       4.93230765       5.90481270       0.00015078      -0.00021560       0.00026445
I        5.78660446       1.57007001      10.02269509      -0.00014828       0.00021158      -0.00026155
