9
Lattice="5.2450260770840025 4.2129449808838174e-08 3.028217227471113 1.7483420413511006 4.9450580684802325 3.0282172691504874 -7.363204792117366e-09 4.58400521362082e-08 6.056434467695674" Properties=species:S:1:pos:R:3:forces:R:3 energy=-38.80239486694336 free_energy=-38.80239486694336 stress="0.00011673803237499669 -6.481975844963017e-08 3.178151430915932e-08 -6.481975844963017e-08 0.00011677656584652141 -3.6231561750810215e-08 3.178151430915932e-08 -3.6231561750810215e-08 0.0001168505841633305" pbc="T T T"
K        1.74834221       1.23626461       3.02821713      -0.00000016       0.00000076       0.00000019
K        5.24502562       3.70879382       9.08465158       0.00000137      -0.00000028      -0.00000026
Pt      -0.00000008       0.00000017      -0.00000029       0.00000716       0.00000250       0.00001435
F        1.61042452       1.13874205       6.05643473       0.00091905       0.00064995      -0.00000099
F        5.38294397       3.80631602       6.05643473      -0.00092568      -0.00065365      -0.00000141
F        4.43981409       1.13874197       4.42288605      -0.00045913       0.00064903       0.00079258
F        2.55355422       3.80631593       7.68998350       0.00046065      -0.00065152      -0.00079858
F        2.55355395       3.80631596       4.42288572       0.00045722      -0.00064635       0.00078996
F        4.43981388       1.13874225       7.68998287      -0.00046040       0.00064961      -0.00079581
