9
Lattice="6.329908535034487 -2.0418363990951506e-08 3.654574485735031 2.1099694800957036 5.967894783660166 3.654574507094603 2.8633171426428173e-09 2.8184675680250614e-08 7.309148966510703" Properties=species:S:1:pos:R:3:forces:R:3 energy=-26.961523056030273 free_energy=-26.961523056030273 stress="-0.00023070337192621082 -4.9998977402765377e-08 -1.9438191056764254e-09 -4.9998977402765377e-08 -0.00023068435257300735 -2.667425613722685e-09 -1.9438191056764254e-09 -2.667425613722685e-09 -0.00023061418323777616" pbc="T T T"
K        2.10996964       1.49197358       3.65457453      -0.00000007       0.00000019      -0.00000008
K        6.32990847       4.47592118      10.96372338       0.00000008      -0.00000023       0.00000009
Pt       0.00000041       0.00000011      -0.00000032      -0.00000445       0.00000095       0.00000585
Br       2.04196555       1.44388772       7.30914898       0.00667083       0.00471701      -0.00000010
Br       6.39791219       4.52400724       7.30914888      -0.00666805      -0.00471690      -0.00000034
Br       5.30892508       1.44388787       5.42296948      -0.00333091       0.00471206       0.00576957
Br       3.13095266       4.52400681       9.19532871       0.00333324      -0.00471469      -0.00577272
Br       3.13095268       4.52400692       5.42296927       0.00333181      -0.00471221       0.00576979
Br       5.30892543       1.44388773       9.19532892      -0.00333250       0.00471389      -0.00577208
