9
Lattice="6.095080022141152 -1.766601115890923e-07 3.518996060417246 2.0316931133001774 5.7464967050741915 3.5189961658242273 -2.5665747861314702e-08 1.1094834415881705e-07 7.037992165288891" Properties=species:S:1:pos:R:3:forces:R:3 energy=-30.12318229675293 free_energy=-30.12318229675293 stress="-5.076687011751346e-05 -5.023105487111934e-08 -3.1054725457835275e-09 -5.023105487111934e-08 -5.074817090644501e-05 -1.1318967985118888e-08 -3.1054725457835275e-09 -1.1318967985118888e-08 -5.0679165724432096e-05" pbc="T T T"
K        2.03169333       1.43662418       3.51899602       0.00000013       0.00000039      -0.00000011
K        6.09507997       4.30987253      10.55698823      -0.00000029      -0.00000025       0.00000041
Pt       0.00000007      -0.00000086      -0.00000001      -0.00000217       0.00001989       0.00000243
Cl       1.91474100       1.35392641       7.03799201       0.00460954       0.00325949       0.00000011
Cl       6.21203174       4.39257067       7.03799236      -0.00461382      -0.00326549      -0.00000095
Cl       5.13770915       1.35392605       5.17721149      -0.00230220       0.00325681       0.00398699
Cl       2.98906446       4.39257037       8.89877309       0.00230455      -0.00326314      -0.00399363
Cl       2.98906384       4.39257060       5.17721145       0.00230577      -0.00326247       0.00399141
Cl       5.13770887       1.35392655       8.89877302      -0.00230147       0.00325479      -0.00398681
