9
Lattice="7.004408675512731 4.64217037202883e-09 4.043997242937275 2.334802900369098 6.603819833519695 4.0439972357408696 9.056325043863447e-10 -8.173370680651465e-09 8.087994484305936" Properties=species:S:1:pos:R:3:forces:R:3 energy=-29.508214950561523 free_energy=-29.508214950561523 stress="0.00017781263159122318 -1.3410659249757373e-08 -1.8133938795017457e-09 -1.3410659249757373e-08 0.00017781935457605869 2.2697066448529313e-09 -1.8133938795017457e-09 2.2697066448529313e-09 0.00017781836504582316" pbc="T T T"
K        2.33480283       1.65095502       4.04399717      -0.00000037      -0.00000006       0.00000015
K        7.00440874       4.95286481      12.13199179       0.00000006       0.00000010       0.00000039
Re       0.00000009       0.00000006      -0.00000010       0.00000054      -0.00000115      -0.00000149
I        2.24242296       1.58563249       8.08799449       0.00159301       0.00112579      -0.00000007
I        7.09678854       5.01818731       8.08799448      -0.00159237      -0.00112613      -0.00000006
I        5.88319718       1.58563262       5.98599257      -0.00079587       0.00112595       0.00137942
I        3.45601439       5.01818722      10.18999644       0.00079489      -0.00112474      -0.00137819
I        3.45601442       5.01818721       5.98599256       0.00079580      -0.00112519       0.00137885
I        5.88319717       1.58563259      10.18999647      -0.00079564       0.00112536      -0.00137891
