9
Lattice="6.149393335782529 3.121116317465903e-07 3.5503535226336576 2.049798110844805 5.797703276488021 3.5503534568348725 5.142143515453366e-08 -4.4226252567718925e-08 7.1007069562026235" Properties=species:S:1:pos:R:3:forces:R:3 energy=-37.18183898925781 free_energy=-37.18183898925781 stress="0.00018415729573462158 1.5828133825834811e-07 -5.428479443736478e-09 1.5828133825834811e-07 0.0001840316690504551 2.2958017709129308e-08 -5.428479443736478e-09 2.2958017709129308e-08 0.00018390965124126524" pbc="T T T"
K        2.04979803       1.44942588       3.55035366      -0.00000014      -0.00000009      -0.00000009
K        6.14939338       4.34827776      10.65106028       0.00000019       0.00000010       0.00000015
Re       0.00000137       0.00000045      -0.00000105      -0.00002789      -0.00001076       0.00002275
Cl       1.93984379       1.37167654       7.10070688      -0.00571474      -0.00404026       0.00000003
Cl       6.25934674       4.42602653       7.10070678       0.00573668       0.00405614       0.00000044
Cl       5.17947163       1.37167634       5.23030646       0.00286022      -0.00404353      -0.00495172
Cl       3.01971913       4.42602741       8.97110812      -0.00284998       0.00403185       0.00493643
Cl       3.01971959       4.42602744       5.23030615      -0.00285630       0.00403890      -0.00494584
Cl       5.17947239       1.37167585       8.97110847       0.00285180      -0.00403249       0.00493801
