9
Lattice="5.1653593414074 -1.8410493011822984e-08 2.9822216655916853 1.7217864479821834 4.8699474167034085 2.982221634061694 3.333864273409033e-08 -1.5042267702061507e-08 5.964443273439175" Properties=species:S:1:pos:R:3:forces:R:3 energy=-47.99705123901367 free_energy=-47.99705123901367 stress="0.00030145826167427003 4.6723581448304685e-08 6.208792924233819e-10 4.6723581448304685e-08 0.0003014340181834996 -3.3427001167041226e-09 6.208792924233819e-10 -3.3427001167041226e-09 0.0003014228423126042" pbc="T T T"
K        1.72178659       1.21748668       2.98222172      -0.00000098       0.00000024      -0.00000025
K        5.16535920       3.65246069       8.94666489       0.00000057      -0.00000023      -0.00000032
Re      -0.00000018       0.00000003      -0.00000026      -0.00000441       0.00000511       0.00002684
F        1.61782773       1.14397691       5.96444328      -0.00290255      -0.00205208       0.00000021
F        5.26931798       3.72597006       5.96444334       0.00290338       0.00205374       0.00000010
F        4.35644553       1.14397711       4.38330176       0.00145469      -0.00205763      -0.00252025
F        2.53070019       3.72597065       7.54558499      -0.00144493       0.00204323       0.00250276
F        2.53070027       3.72597054       4.38330156      -0.00145296       0.00205489      -0.00251675
F        4.35644571       1.14397687       7.54558491       0.00144717      -0.00204726       0.00250774
