9
Lattice="6.458319403626747 -3.226466549110445e-07 3.72871285306292 2.1527728708626883 6.088961839891997 3.728712782889643 9.567643654495159e-08 -1.8291033625933286e-08 7.457425540409375" Properties=species:S:1:pos:R:3:forces:R:3 energy=-33.314208984375 free_energy=-33.314208984375 stress="-2.0869230866082944e-05 -8.622161118410077e-08 -2.2319552872573922e-09 -8.622161118410077e-08 -2.0803377992706373e-05 6.682108200095627e-09 -2.2319552872573922e-09 6.682108200095627e-09 -2.0709379896288738e-05" pbc="T T T"
K        2.15277316       1.52224044       3.72871244       0.00000025       0.00000013      -0.00000009
K        6.45831924       4.56672099      11.18613879      -0.00000024      -0.00000005      -0.00000006
Re      -0.00000008      -0.00000112       0.00000181       0.00000261       0.00001371      -0.00002442
Br       2.06168901       1.45783403       7.45742572       0.00207050       0.00146380       0.00000045
Br       6.54940417       4.63112796       7.45742543      -0.00207974      -0.00147020      -0.00000002
Br       5.42747442       1.45783440       5.51418874      -0.00103388       0.00146244       0.00178998
Br       3.18361780       4.63112726       9.40066180       0.00103069      -0.00145736      -0.00178272
Br       3.18361744       4.63112752       5.51418832       0.00103784      -0.00146653       0.00179563
Br       5.42747429       1.45783447       9.40066153      -0.00102815       0.00145415      -0.00177875
