9
Lattice="5.1903704098600745 -2.473846331035391e-07 2.996661574498705 1.730123288937977 4.893527866263056 2.9966614840489534 -4.123522774696564e-08 -1.399355369447718e-07 5.993323220418957" Properties=species:S:1:pos:R:3:forces:R:3 energy=-40.74517822265625 free_energy=-40.74517822265625 stress="-4.6373315853998065e-05 1.578037256422249e-08 1.8430447168427122e-09 1.578037256422249e-08 -4.605214053299278e-05 2.000355658893227e-09 1.8430447168427122e-09 2.000355658893227e-09 -4.615705256583169e-05" pbc="T T T"
K        1.73012334       1.22338191       2.99666145       0.00000041       0.00000036       0.00000003
K        5.19037036       3.67014590       8.98998533      -0.00000083      -0.00000029      -0.00000092
Rh       0.00000003       0.00000011      -0.00000012       0.00000035      -0.00000749      -0.00000303
F        1.59060959       1.12473070       5.99332305       0.00422333       0.00298603       0.00000067
F        5.32988403       3.76879669       5.99332280      -0.00421970      -0.00298356       0.00000065
F        4.39506538       1.12473075       4.37416991      -0.00211047       0.00298522       0.00365707
F        2.52542828       3.76879647       7.61247621       0.00210878      -0.00298193      -0.00365363
F        2.52542852       3.76879661       4.37416995       0.00210857      -0.00298251       0.00365469
F        4.39506515       1.12473073       7.61247636      -0.00211046       0.00298408      -0.00365543
