9
Lattice="6.914490649382701 3.6421787990151585e-07 3.9920828955069814 2.304830309128947 6.519044414217156 3.992083329766599 -2.9421621815012546e-07 3.2381513892811273e-07 7.98416630061132" Properties=species:S:1:pos:R:3:forces:R:3 energy=-25.725767135620117 free_energy=-25.725767135620117 stress="-0.0001075882391887717 -5.511598288876485e-08 -1.2540752436507319e-08 -5.511598288876485e-08 -0.00010755544644780457 2.504746277054437e-08 -1.2540752436507319e-08 2.504746277054437e-08 -0.0001075173495337367" pbc="T T T"
K        2.30483023       1.62976150       3.99208262      -0.00000050      -0.00000001       0.00000028
K        6.91449030       4.88928355      11.97625006       0.00000042       0.00000008      -0.00000042
Rh       0.00000018      -0.00000075      -0.00000139      -0.00000334       0.00000777       0.00001454
I        2.20248110       1.55738935       7.98416703       0.00395260       0.00279509      -0.00000028
I        7.01683965       4.96165592       7.98416533      -0.00395305      -0.00279620       0.00000007
I        5.81324867       1.55739175       5.89948979      -0.00196861       0.00278460       0.00341136
I        3.40607144       4.96165442      10.06884373       0.00197472      -0.00279389      -0.00342232
I        3.40607272       4.96165402       5.89948904       0.00197171      -0.00279077       0.00341717
I        5.81324832       1.55739066      10.06884391      -0.00197394       0.00279337      -0.00342045
