9
Lattice="6.123312401496835 -2.2645369496858736e-09 3.5352959027250908 2.0411042398822494 5.773113636650836 3.535295715343148 1.8949889270807563e-07 -9.549912779455441e-08 7.070591477228674" Properties=species:S:1:pos:R:3:forces:R:3 energy=-31.653085708618164 free_energy=-31.653085708618164 stress="-6.186405516928062e-05 1.072030215709674e-07 5.5563669221214695e-09 1.072030215709674e-07 -6.196118920342997e-05 -9.172578252503172e-09 5.5563669221214695e-09 -9.172578252503172e-09 -6.200386997079477e-05" pbc="T T T"
K        2.04110420       1.44327825       3.53529570      -0.00000011       0.00000019       0.00000005
K        6.12331264       4.32983531      10.60588707      -0.00000015       0.00000007       0.00000009
Rh       0.00000041      -0.00000050      -0.00000061      -0.00001057       0.00000162       0.00001450
Cl       1.91372717       1.35320879       7.07059128       0.00719549       0.00508882       0.00000050
Cl       6.25068915       4.41990489       7.07059128      -0.00718839      -0.00508453      -0.00000006
Cl       5.16644927       1.35320838       5.19263152      -0.00359853       0.00508967       0.00623250
Cl       2.99796743       4.41990541       8.94855211       0.00360436      -0.00509799      -0.00624341
Cl       2.99796771       4.41990515       5.19263177       0.00360007      -0.00509262       0.00623529
Cl       5.16644940       1.35320839       8.94855212      -0.00360213       0.00509475      -0.00623980
