9
Lattice="6.388289156662061 -3.118137682246232e-07 3.688281033129233 2.1294295046548055 6.022936947676703 3.6882808950010424 9.202924984216997e-08 -1.0409718540008667e-07 7.376561906859022" Properties=species:S:1:pos:R:3:forces:R:3 energy=-28.56580352783203 free_energy=-28.56580352783203 stress="-7.983387331478298e-05 -9.363362352132754e-08 1.7575489508203646e-08 -9.363362352132754e-08 -7.974881737027317e-05 -2.3621060663003846e-08 1.7575489508203646e-08 -2.3621060663003846e-08 -7.966265548020601e-05" pbc="T T T"
K        2.12942935       1.50573420       3.68828126       0.00000059       0.00000001      -0.00000027
K        6.38828907       4.51720243      11.06484318      -0.00000027       0.00000003      -0.00000013
Rh      -0.00000018       0.00000054       0.00000202       0.00000209      -0.00000950      -0.00003026
Br       2.04437281       1.44559007       7.37656185       0.00275766       0.00194879       0.00000053
Br       6.47334581       4.57734586       7.37656200      -0.00275425      -0.00194578       0.00000015
Br       5.36610249       1.44559042       5.45876096      -0.00137931       0.00194915       0.00238639
Br       3.15161681       4.57734595       9.29436139       0.00136846      -0.00193565      -0.00236669
Br       3.15161654       4.57734582       5.45876154       0.00137523      -0.00194334       0.00237874
Br       5.36610231       1.44559078       9.29436105      -0.00137024       0.00193626      -0.00236851
