9
Lattice="6.870238663061931 3.4188241125735307e-07 3.966534061811742 2.290079727389733 6.477323076848982 3.9665343203963963 -7.17984603131665e-08 2.6593118810277884e-07 7.933068247981851" Properties=species:S:1:pos:R:3:forces:R:3 energy=-26.396259307861328 free_energy=-26.396259307861328 stress="-4.011107375845313e-05 1.006459893204692e-08 -9.320057614559119e-09 1.006459893204692e-08 -4.012664794572629e-05 1.1856628567841199e-08 -9.320057614559119e-09 1.1856628567841199e-08 -4.013478974229656e-05" pbc="T T T"
K        2.29007992       1.61933075       3.96653425      -0.00000006      -0.00000013      -0.00000007
K        6.87023880       4.85799289      11.89960255       0.00000007       0.00000009       0.00000005
Ru      -0.00000014      -0.00000003       0.00000032       0.00000196       0.00000015      -0.00000165
I        2.22185915       1.57109240       7.93306809       0.00096317       0.00068049      -0.00000027
I        6.93845925       4.90623143       7.93306796      -0.00096533      -0.00068232       0.00000121
I        5.75930843       1.57109212       5.89072058      -0.00048126       0.00068291       0.00083721
I        3.40100960       4.90623188       9.97541617       0.00048164      -0.00068222      -0.00083551
I        3.40100939       4.90623116       5.89072074       0.00048208      -0.00068150       0.00083624
I        5.75930895       1.57109212       9.97541579      -0.00048224       0.00068254      -0.00083721
