9
Lattice="6.39238091454105 -6.68845237524922e-08 3.6906427597581084 2.1307935362345956 6.026794457731243 3.6906428271114313 1.527875677551372e-08 9.329430941924708e-08 7.381285493052699" Properties=species:S:1:pos:R:3:forces:R:3 energy=-30.173009872436523 free_energy=-30.173009872436523 stress="-6.404761370504275e-05 -5.835521510455521e-10 -2.095232254362145e-08 -5.835521510455521e-10 -6.403544102795422e-05 3.404033321885436e-08 -2.095232254362145e-08 3.404033321885436e-08 -6.405721796909347e-05" pbc="T T T"
K        2.13079386       1.50669893       3.69064290      -0.00000023      -0.00000036      -0.00000011
K        6.39238070       4.52009566      11.07192849       0.00000019      -0.00000001       0.00000020
Ru      -0.00000070      -0.00000106      -0.00000016       0.00000765       0.00001524       0.00000196
Br       2.04522890       1.44619539       7.38128554       0.00192346       0.00136032      -0.00000013
Br       6.47794647       4.58059951       7.38128549      -0.00193675      -0.00136857      -0.00000014
Br       5.36976626       1.44619577       5.46186294      -0.00096218       0.00136061       0.00166725
Br       3.15340815       4.58059887       9.30070831       0.00096527      -0.00136425      -0.00167323
Br       3.15340790       4.58059933       5.46186214       0.00096695      -0.00136662       0.00167580
Br       5.36976634       1.44619557       9.30070855      -0.00096435       0.00136370      -0.00167168
