9
Lattice="5.1705702819341495 -1.0374353355122464e-07 2.9852302484612534 1.7235233473168436 4.874860344614398 2.9852302176033456 2.1488685643066683e-08 -2.2598269946811263e-08 5.97046045970302" Properties=species:S:1:pos:R:3:forces:R:3 energy=-43.661251068115234 free_energy=-43.661251068115234 stress="5.618450086330995e-05 -1.3655761677000555e-07 1.5173617029518027e-08 -1.3655761677000555e-07 5.6261000281665474e-05 -2.2716790226695593e-08 1.5173617029518027e-08 -2.2716790226695593e-08 5.638509901473299e-05" pbc="T T T"
K        1.72352349       1.21871529       2.98523040      -0.00000018      -0.00000041      -0.00000055
K        5.17057056       3.65614519       8.95569056      -0.00000005       0.00000012      -0.00000008
Ru      -0.00000011      -0.00000017      -0.00000011      -0.00000370      -0.00000006       0.00000327
F        1.59404648       1.12716132       5.97046056       0.00379624       0.00268403      -0.00000039
F        5.30004632       3.74769876       5.97046080      -0.00379182      -0.00268181      -0.00000050
F        4.37354675       1.12716186       4.36571610      -0.00189188       0.00267508       0.00327623
F        2.52054723       3.74769865       7.57520458       0.00189221      -0.00267716      -0.00327662
F        2.52054721       3.74769838       4.36571623       0.00189089      -0.00267465       0.00327410
F        4.37354668       1.12716161       7.57520461      -0.00189173       0.00267479      -0.00327547
