9
Lattice="6.108191131986833 -5.520167292144893e-08 3.526565957194489 2.036063792964123 5.758857428594734 3.526565724499568 3.007828215338745e-07 -7.230639196210517e-08 7.053131393417907" Properties=species:S:1:pos:R:3:forces:R:3 energy=-33.50063705444336 free_energy=-33.50063705444336 stress="8.518330105289351e-06 -7.368723231593322e-08 4.684899579388002e-08 -7.368723231593322e-08 8.587615411670413e-06 -5.396044500116659e-08 4.684899579388002e-08 -5.396044500116659e-08 8.66094069351675e-06" pbc="T T T"
K        2.03606380       1.43971443       3.52656620       0.00000013      -0.00000003      -0.00000000
K        6.10819126       4.31914278      10.57969707      -0.00000007      -0.00000018       0.00000102
Ru       0.00000006      -0.00000020       0.00000079      -0.00000099       0.00000544      -0.00002133
Cl       1.92046296       1.35797200       7.05313159       0.00072405       0.00051230      -0.00000019
Cl       6.22379236       4.40088502       7.05313196      -0.00072742      -0.00051332      -0.00000072
Cl       5.14795993       1.35797204       5.18973582      -0.00036229       0.00051308       0.00062618
Cl       2.99629555       4.40088525       8.91652721       0.00035907      -0.00050703      -0.00061941
Cl       2.99629551       4.40088485       5.18973579       0.00036158      -0.00051081       0.00062484
Cl       5.14795969       1.35797302       8.91652581      -0.00035417       0.00050053      -0.00061059
