9
Lattice="6.345494475735326 1.2619924188772508e-07 3.663572929848947 2.1151649202951357 5.98258955835637 3.663572971300443 3.391164916520184e-08 7.47466181621552e-08 7.327145800961174" Properties=species:S:1:pos:R:3:forces:R:3 energy=-22.930713653564453 free_energy=-22.930713653564453 stress="6.077943544369191e-05 -5.60985657926949e-09 2.2237183205930933e-09 -5.60985657926949e-09 6.0809314163634554e-05 1.3246367558394923e-08 2.2237183205930933e-09 1.3246367558394923e-08 6.0800091887358576e-05" pbc="T T T"
K        2.11516505       1.49564708       3.66357278       0.00000001      -0.00000013       0.00000001
K        6.34549442       4.48694227      10.99071858      -0.00000021       0.00000006      -0.00000007
S        0.00000059       0.00000074       0.00000049      -0.00000019      -0.00000085      -0.00000076
Br       2.08011281       1.47086218       7.32714586      -0.00357465      -0.00252801       0.00000020
Br       6.38054666       4.51172741       7.32714565       0.00357391       0.00252844       0.00000024
Br       5.30543811       1.47086211       5.46500345       0.00178733      -0.00252852      -0.00309622
Br       3.15522129       4.51172788       9.18928833      -0.00178694       0.00252865       0.00309598
Br       3.15522056       4.51172731       5.46500352      -0.00178684       0.00252819      -0.00309554
Br       5.30543815       1.47086213       9.18928821       0.00178753      -0.00252783       0.00309613
