9
Lattice="6.589441692390995 4.2649709442363634e-07 3.8044158675133466 2.19648078605409 6.212585376952351 3.8044161795968523 6.83083925288881e-08 4.305239771323327e-07 7.608831616713071" Properties=species:S:1:pos:R:3:forces:R:3 energy=-23.248878479003906 free_energy=-23.248878479003906 stress="6.025275797583163e-05 1.2045299868645998e-08 -1.004132110793421e-09 1.2045299868645998e-08 6.023605965310708e-05 2.484048744477718e-09 -1.004132110793421e-09 2.484048744477718e-09 6.0231708630453795e-05" pbc="T T T"
K        2.19648051       1.55314659       3.80441604       0.00000023      -0.00000014       0.00000031
K        6.58944201       4.65943950      11.41324735       0.00000010       0.00000011      -0.00000021
Se       0.00000136      -0.00000288       0.00000188      -0.00000821       0.00001474      -0.00001070
Br       2.13453925       1.50934799       7.60883128      -0.00069091      -0.00048943       0.00000055
Br       6.65138302       4.70323914       7.60883230       0.00069101       0.00048695       0.00000048
Br       5.52217233       1.50934753       5.65298049       0.00034546      -0.00048848      -0.00059687
Br       3.26375031       4.70323952       9.56468321      -0.00034401       0.00048574       0.00059616
Br       3.26374964       4.70323935       5.65297989      -0.00034125       0.00048224      -0.00059098
Br       5.52217174       1.50934820       9.56468227       0.00034757      -0.00049169       0.00060124
