9
Lattice="5.184372411278891 -2.3172710497485586e-08 2.9931988473099045 1.7281241930565523 4.887872963849247 2.9931987125372186 3.944732119954592e-09 -1.6227279362575187e-07 5.986397687787223" Properties=species:S:1:pos:R:3:forces:R:3 energy=-37.64194107055664 free_energy=-37.64194107055664 stress="0.000260305154370144 7.135357549259425e-08 5.270900516052279e-08 7.135357549259425e-08 0.00026025870465673506 -9.435256487222432e-08 5.270900516052279e-08 -9.435256487222432e-08 0.00026021714438684285" pbc="T T T"
K        1.72812402       1.22196824       2.99319835       0.00000025      -0.00000042       0.00000008
K        5.18437274       3.66590468       8.97959724      -0.00000059       0.00000014      -0.00000053
Se      -0.00000014      -0.00000011      -0.00000040      -0.00000256      -0.00000190       0.00001320
F        1.59695038       1.12921419       5.98639716      -0.00153154      -0.00108278       0.00000014
F        5.31554610       3.75865853       5.98639695       0.00153399       0.00108454       0.00000019
F        4.38589758       1.12921368       4.37619812       0.00076228      -0.00107765      -0.00132251
F        2.52659890       3.75865909       7.59659773      -0.00076024       0.00107503       0.00131512
F        2.52659928       3.75865895       4.37619831      -0.00076589       0.00108318      -0.00132835
F        4.38589761       1.12921377       7.59659743       0.00076425      -0.00108020       0.00132278
