9
Lattice="6.229509655241559 -8.301235560238978e-09 3.596609280419624 2.076503208002458 5.873238215356323 3.596609284896831 5.061211918194766e-08 4.1271641370174165e-08 7.193218473176349" Properties=species:S:1:pos:R:3:forces:R:3 energy=-26.585308074951172 free_energy=-26.585308074951172 stress="0.0003148601681459695 -1.1976768909960356e-08 1.2306013846830055e-11 -1.1976768909960356e-08 0.0003148480609524995 -1.1730434401613365e-08 1.2306013846830055e-11 -1.1730434401613365e-08 0.0003148594405502081" pbc="T T T"
K        2.07650311       1.46830987       3.59660936      -0.00000001      -0.00000032      -0.00000023
K        6.22950965       4.40492886      10.78982771       0.00000009      -0.00000005       0.00000001
Se      -0.00000042      -0.00000036       0.00000047       0.00000387       0.00000548      -0.00000655
Cl       1.98177014       1.40132282       7.19321842      -0.00614272      -0.00434262       0.00000112
Cl       6.32424324       4.47191509       7.19321855       0.00613970       0.00434098       0.00000019
Cl       5.23862459       1.40132302       5.31287245       0.00307073      -0.00434238      -0.00531745
Cl       3.06738854       4.47191523       9.07356444      -0.00307212       0.00434209       0.00531933
Cl       3.06738842       4.47191512       5.31287252      -0.00307109       0.00434167      -0.00531753
Cl       5.23862435       1.40132337       9.07356424       0.00307155      -0.00434483       0.00532100
