9
Lattice="5.0746210921754376 8.473203514394326e-08 2.929833874165334 1.6915404175752147 4.7843989794870065 2.9298339198383534 -7.735724079678143e-08 1.2379914844322051e-09 5.8596678823173685" Properties=species:S:1:pos:R:3:forces:R:3 energy=-37.00392532348633 free_energy=-37.00392532348633 stress="0.00011826480476884171 2.4648292296092222e-08 -6.148487052826113e-09 2.4648292296092222e-08 0.00011826626723632216 -5.862713092774641e-10 -6.148487052826113e-09 -5.862713092774641e-10 0.00011821918451460078" pbc="T T T"
K        1.69154031       1.19609985       2.92983361      -0.00000008      -0.00000058       0.00000089
K        5.07462117       3.58829940       8.78950216      -0.00000005      -0.00000059      -0.00000129
S       -0.00000011       0.00000004      -0.00000010       0.00000217      -0.00000079       0.00000371
F        1.55544977       1.09986918       5.85966773      -0.00118490      -0.00083735       0.00000003
F        5.21071207       3.68452987       5.85966753       0.00118204       0.00083697       0.00000096
F        4.29689614       1.09986939       4.27689278       0.00059068      -0.00083539      -0.00102337
F        2.46926503       3.68452968       7.44244315      -0.00059033       0.00083674       0.00102141
F        2.46926525       3.68452970       4.27689282      -0.00059069       0.00083603      -0.00102335
F        4.29689613       1.09986912       7.44244304       0.00059108      -0.00083506       0.00102104
