9
Lattice="6.796791951910176 4.559798066949808e-07 3.924129113048867 2.265598553699292 6.408074789907844 3.924127716159437 8.582719684586767e-07 -1.1039429880183923e-06 7.848256739526959" Properties=species:S:1:pos:R:3:forces:R:3 energy=-19.819250106811523 free_energy=-19.819250106811523 stress="4.231810453347862e-05 1.4622051125456892e-08 -1.8049648886631076e-08 1.4622051125456892e-08 4.24314675910864e-05 1.794647452868503e-08 -1.8049648886631076e-08 1.794647452868503e-08 4.2357787606306374e-05" pbc="T T T"
K        2.26559777       1.60201934       3.92412994       0.00000019      -0.00000161      -0.00000063
K        6.79679389       4.80605501      11.77238381      -0.00000064       0.00000081       0.00000047
S        0.00000086      -0.00000067      -0.00000225       0.00000062      -0.00000122      -0.00000272
I        2.33346752       1.65001287       7.84825696       0.00066811       0.00047027       0.00000100
I        6.72892471       4.75806161       7.84825719      -0.00066896      -0.00047022      -0.00000065
I        5.63006025       1.65000868       5.94496654      -0.00033269       0.00047110       0.00057711
I        3.43232933       4.75806529       9.75154809       0.00033250      -0.00046878      -0.00057529
I        3.43233010       4.75806477       5.94496894       0.00033391      -0.00047083       0.00057793
I        5.63006096       1.65000948       9.75154506      -0.00033300       0.00047044      -0.00057721
