9
Lattice="6.364329689297859 2.3624306042853119e-07 3.6744472418467335 2.1214434065688983 6.000347535283132 3.6744473213982616 -6.128574049594505e-08 5.4094741930417513e-08 7.348894589843405" Properties=species:S:1:pos:R:3:forces:R:3 energy=-27.646543502807617 free_energy=-27.646543502807617 stress="-2.5953277145163156e-05 1.7143843678013582e-08 -1.9265979034344127e-08 1.7143843678013582e-08 -2.602893437142484e-05 2.0024504721050107e-08 -1.9265979034344127e-08 2.0024504721050107e-08 -2.5997984266723506e-05" pbc="T T T"
K        2.12144356       1.50008672       3.67444721      -0.00000008       0.00000035      -0.00000015
K        6.36432965       4.50026072      11.02334205       0.00000011      -0.00000003      -0.00000003
Si       0.00000054      -0.00000034      -0.00000141      -0.00000409       0.00000237       0.00000904
Br       2.00388957       1.41696343       7.34889406       0.00232975       0.00165053       0.00000251
Br       6.48188256       4.58338409       7.34889436      -0.00232390      -0.00164561       0.00000122
Br       5.36238475       1.41696391       5.40986689      -0.00116139       0.00164326       0.00201236
Br       3.12338812       4.58338528       9.28792357       0.00116581      -0.00165508      -0.00202234
Br       3.12338800       4.58338479       5.40986595       0.00116261      -0.00164846       0.00201838
Br       5.36238561       1.41696267       9.28792381      -0.00116879       0.00165277      -0.00202110
