9
Lattice="5.0354126845299305 -7.262225555244939e-08 2.9071971140180226 1.6784708717359749 4.74743275195429 2.907197035449478 5.265642662057691e-09 -9.250301276364452e-08 5.814394218915699" Properties=species:S:1:pos:R:3:forces:R:3 energy=-47.203773498535156 free_energy=-47.203773498535156 stress="4.889116098638624e-05 -5.546777259723967e-08 1.8423454761773428e-08 -5.546777259723967e-08 4.888246257905848e-05 -1.3182800628896985e-08 1.8423454761773428e-08 -1.3182800628896985e-08 4.894112134934403e-05" pbc="T T T"
K        1.67847104       1.18685798       2.90719746      -0.00000055       0.00000071      -0.00000081
K        5.03541241       3.56057442       8.72159013       0.00000038      -0.00000066       0.00000137
Si       0.00000004       0.00000005       0.00000013      -0.00000076       0.00000046       0.00000719
F        1.40241470       0.99165713       5.81439445      -0.00019628      -0.00013882      -0.00000144
F        5.31146871       3.75577559       5.81439481       0.00019622       0.00013778      -0.00000231
F        4.33420538       0.99165736       4.12172409       0.00010133      -0.00014335      -0.00017411
F        2.37967831       3.75577557       7.50706407      -0.00009882       0.00013891       0.00017250
F        2.37967837       3.75577519       4.12172419      -0.00010061       0.00014415      -0.00017476
F        4.33420535       0.99165687       7.50706367       0.00009906      -0.00013858       0.00017244
