9
Lattice="6.939794326674664 -4.432815582653804e-08 4.006692062180211 2.3132647307948524 6.54290084746003 4.00669206732508 -1.0782862873583286e-09 5.538668602557354e-09 8.013384126228047" Properties=species:S:1:pos:R:3:forces:R:3 energy=-23.644535064697266 free_energy=-23.644535064697266 stress="-1.4522400306304917e-05 -1.8364012532856577e-09 1.2956214989756631e-09 -1.8364012532856577e-09 -1.4516986084345262e-05 1.2652759395770374e-10 1.2956214989756631e-09 1.2652759395770374e-10 -1.453548793506343e-05" pbc="T T T"
K        2.31326476       1.63572526       4.00669206      -0.00000020      -0.00000020       0.00000003
K        6.93979431       4.90717557      12.02007619      -0.00000027       0.00000039      -0.00000001
Si      -0.00000002       0.00000000       0.00000004      -0.00000016      -0.00000038      -0.00000009
I        2.23208962       1.57832572       8.01338417      -0.00099278      -0.00070304      -0.00000005
I        7.02096947       4.96457512       8.01338411       0.00099334       0.00070171      -0.00000004
I        5.82374944       1.57832588       5.93973842       0.00049684      -0.00070202      -0.00085935
I        3.42930963       4.96457488      10.08702978      -0.00049698       0.00070305       0.00085989
I        3.42930967       4.96457490       5.93973838      -0.00049651       0.00070306      -0.00086003
I        5.82374935       1.57832591      10.08702986       0.00049670      -0.00070251       0.00085964
