9
Lattice="5.987522702940509 -5.225978006102212e-07 3.4568981060714776 1.995840565454996 5.645090128944121 3.45689783381965 -2.9430377811104722e-08 -3.5424946694870915e-07 6.913796263117942" Properties=species:S:1:pos:R:3:forces:R:3 energy=-31.72955322265625 free_energy=-31.72955322265625 stress="0.00012957306171301752 -1.0873458222704357e-07 5.841062300504518e-09 -1.0873458222704357e-07 0.00012953861732967198 -1.0031638453256164e-07 5.841062300504518e-09 -1.0031638453256164e-07 0.0001297821436310187" pbc="T T T"
K        1.99584036       1.41127208       3.45689832       0.00000013      -0.00000032      -0.00000029
K        5.98752265       4.23381671      10.37069403      -0.00000007      -0.00000023      -0.00000015
Si      -0.00000027       0.00000056       0.00000042       0.00000770      -0.00000993       0.00000237
Cl       1.83064079       1.29445726       6.91379486      -0.00515025      -0.00363923       0.00000741
Cl       6.15272247       4.35063192       6.91379538       0.00515054       0.00363854       0.00000286
Cl       5.07220142       1.29445826       5.04228092       0.00258221      -0.00364501      -0.00446831
Cl       2.91116153       4.35063124       8.78531193      -0.00257886       0.00364178       0.00446971
Cl       2.91116203       4.35063035       5.04228226      -0.00258722       0.00365833      -0.00448270
Cl       5.07220210       1.29445838       8.78531135       0.00257602      -0.00364368       0.00446930
