9
Lattice="6.272726825360395 1.8879254944790345e-07 3.6215604804409733 2.090909153096819 5.913983460741866 3.621560422738347 8.311659226633706e-08 -1.1898876800632156e-08 7.243120816919992" Properties=species:S:1:pos:R:3:forces:R:3 energy=-30.274789810180664 free_energy=-30.274789810180664 stress="0.00018329509475734085 4.845138690257045e-08 2.8221796455341064e-08 4.845138690257045e-08 0.00018327278667129576 -2.3106837332420582e-08 2.8221796455341064e-08 -2.3106837332420582e-08 0.0001832256093621254" pbc="T T T"
K        2.09090892       1.47849601       3.62156053       0.00000045       0.00000013       0.00000008
K        6.27272703       4.43548776      10.86468108       0.00000028      -0.00000003       0.00000023
Sn       0.00000136      -0.00000002       0.00000088      -0.00001881       0.00000157      -0.00001435
Cl       2.01745991       1.42655977       7.24312105      -0.00327967      -0.00231904      -0.00000056
Cl       6.34617554       4.48742349       7.24312087       0.00329034       0.00232704       0.00000061
Cl       5.26399743       1.42655922       5.36873089       0.00163846      -0.00231794      -0.00283843
Cl       3.09963840       4.48742428       9.11751045      -0.00163844       0.00231878       0.00283855
Cl       3.09963837       4.48742460       5.36873091      -0.00163732       0.00231513      -0.00283438
Cl       5.26399730       1.42655939       9.11751030       0.00164460      -0.00232555       0.00284824
