9
Lattice="6.563480375490327 -8.76779511127265e-08 3.789427254877085 2.187826645874116 6.188108970916235 3.789427364502897 -3.6233657404534537e-08 1.0864256395252225e-07 7.578854572512778" Properties=species:S:1:pos:R:3:forces:R:3 energy=-26.688495635986328 free_energy=-26.688495635986328 stress="0.00013694443623535335 -2.37710064965313e-08 -2.1339703337730498e-09 -2.37710064965313e-08 0.00013697943359147757 3.4354239453193713e-09 -2.1339703337730498e-09 3.4354239453193713e-09 0.00013698244583792984" pbc="T T T"
K        2.18782680       1.54702735       3.78942759       0.00000019      -0.00000030      -0.00000017
K        6.56348010       4.64108158      11.36828171       0.00000008       0.00000007       0.00000054
Sn      -0.00000066      -0.00000030       0.00000232       0.00000850       0.00000564      -0.00002844
Br       2.16443205       1.53048488       7.57885464      -0.00360674      -0.00255096      -0.00000130
Br       6.58687586       4.65762467       7.57885487       0.00359628       0.00254379      -0.00000143
Br       5.48126452       1.53048420       5.66387977       0.00179717      -0.00254123      -0.00311322
Br       3.27004330       4.65762303       9.49382793      -0.00180689       0.00255686       0.00312880
Br       3.27004221       4.65762480       5.66387979      -0.00179616       0.00254198      -0.00311318
Br       5.48126376       1.53048573       9.49382825       0.00180759      -0.00255585       0.00312837
