9
Lattice="7.176802386277328 -4.994887353896651e-07 4.143529009923813 2.39226734986917 6.766353661980078 4.14352838863864 4.2357885288092e-07 -4.614004581929223e-07 8.28705728618756" Properties=species:S:1:pos:R:3:forces:R:3 energy=-23.027790069580078 free_energy=-23.027790069580078 stress="6.111398397479206e-05 -3.482189470105368e-08 9.731117245337373e-09 -3.482189470105368e-08 6.113691779319197e-05 -1.6932007795844584e-08 9.731117245337373e-09 -1.6932007795844584e-08 6.117173325037584e-05" pbc="T T T"
K        2.39226779       1.69158791       4.14352829       0.00000033      -0.00000122       0.00000137
K        7.17680258       5.07476482      12.43058604      -0.00000031       0.00000113      -0.00000171
Sn      -0.00000047      -0.00000000       0.00000037       0.00000174       0.00000013      -0.00000181
I        2.44341544       1.72775488       8.28705748      -0.00157331      -0.00111371      -0.00000032
I        7.12565490       5.03859790       8.28705747       0.00157192       0.00111289      -0.00000038
I        5.95509503       1.72775437       6.25958860       0.00078738      -0.00111136      -0.00136374
I        3.61397582       5.03859812      10.31452598      -0.00078852       0.00111332       0.00136541
I        3.61397406       5.03859789       6.25958887      -0.00078633       0.00111455      -0.00136505
I        5.95509558       1.72775501      10.31452563       0.00078709      -0.00111571       0.00136617
