9
Lattice="5.332766305558898 2.386624957397644e-09 3.0788744404722777 1.77758886223454 5.027780034872257 3.0788742820505277 1.4589549301293034e-07 -9.086252549562502e-08 6.157748628246314" Properties=species:S:1:pos:R:3:forces:R:3 energy=-41.82023239135742 free_energy=-41.82023239135742 stress="0.00029470768640749156 -4.049396906680158e-08 3.2030943231120546e-08 -4.049396906680158e-08 0.00029467613785527647 -2.563328926896702e-08 3.2030943231120546e-08 -2.563328926896702e-08 0.0002948712499346584" pbc="T T T"
K        1.77758903       1.25694499       3.07887455      -0.00000045      -0.00000092       0.00000139
K        5.33276619       3.77083501       9.23662262       0.00000102       0.00000027      -0.00000005
Sn      -0.00000010      -0.00000017      -0.00000008      -0.00000157       0.00000524       0.00000219
F        1.63163562       1.15374017       6.15774857      -0.00506014      -0.00357607       0.00000048
F        5.47871969       3.87403993       6.15774891       0.00505811       0.00357515      -0.00000008
F        4.51694862       1.15374012       4.49191284       0.00253153      -0.00357810      -0.00438604
F        2.59340673       3.87403979       7.82358440      -0.00252876       0.00357467       0.00438061
F        2.59340689       3.87403965       4.49191283      -0.00253129       0.00357860      -0.00438589
F        4.51694876       1.15374017       7.82358430       0.00253186      -0.00357872       0.00438699
