9
Lattice="5.2220624952512 4.541132274284295e-07 3.01495884754094 1.7406877581413096 4.923408725566635 3.0149591392491164 -6.852029002194373e-09 3.524229472398595e-07 6.029917706949845" Properties=species:S:1:pos:R:3:forces:R:3 energy=-52.41180419921875 free_energy=-52.41180419921875 stress="0.00028101904899813235 2.388914026596467e-07 -1.7888240222418972e-08 2.388914026596467e-07 0.0002809416619129479 6.790038753479166e-08 -1.7888240222418972e-08 6.790038753479166e-08 0.00028071581618860364" pbc="T T T"
K        1.74068745       1.23085186       3.01495902       0.00000086       0.00000154       0.00000098
K        5.22206243       3.69255704       9.04487768       0.00000068      -0.00000102      -0.00000266
Ta       0.00000057       0.00000046      -0.00000052      -0.00000554      -0.00000834       0.00002639
F        1.60449658       1.13455053       6.02991756      -0.00148559      -0.00105035       0.00000007
F        5.35825376       3.78885900       6.02991756       0.00149238       0.00105572       0.00000021
F        4.41981484       1.13455092       4.40449235       0.00074053      -0.00104654      -0.00128198
F        2.54293506       3.78885973       7.65534382      -0.00073397       0.00103676       0.00127065
F        2.54293561       3.78885914       4.40449274      -0.00074029       0.00104606      -0.00128043
F        4.41981502       1.13454961       7.65534313       0.00073093      -0.00103354       0.00126636
