9
Lattice="6.493247896587233 -2.9336668714294685e-07 3.748877882684681 2.1644157043905436 6.121892758670607 3.7488778559238973 3.0150506298278064e-08 -1.1455409955600499e-08 7.4977557131472565" Properties=species:S:1:pos:R:3:forces:R:3 energy=-35.63285827636719 free_energy=-35.63285827636719 stress="4.576294304570183e-05 3.3836180080015765e-08 1.043367436892595e-08 3.3836180080015765e-08 4.571693352772854e-05 -8.284647634582143e-09 1.043367436892595e-08 -8.284647634582143e-09 4.568391159409657e-05" pbc="T T T"
K        2.16441561       1.53047290       3.74887741       0.00000011      -0.00000025       0.00000019
K        6.49324791       4.59141963      11.24663428       0.00000011      -0.00000001      -0.00000004
Ta      -0.00000002       0.00000107       0.00000003       0.00000465      -0.00001337       0.00000935
Br       2.10237312       1.48660194       7.49775495      -0.00170267      -0.00120395       0.00000095
Br       6.55529041       4.63529107       7.49775534       0.00170439       0.00120401       0.00000114
Br       5.44206208       1.48660143       5.56958509       0.00084904      -0.00120041      -0.00146890
Br       3.21560101       4.63529118       9.42592576      -0.00084844       0.00120112       0.00147152
Br       3.21560157       4.63529045       5.56958630      -0.00085276       0.00120708      -0.00147805
Br       5.44206259       1.48660000       9.42592650       0.00084567      -0.00119421       0.00146377
