9
Lattice="6.136660075568667 1.2421558121094095e-07 3.5430024321331786 2.045553492572386 5.785698475859098 3.5430024027955276 -4.0179234601616494e-08 -6.43421115535501e-08 7.086004933858832" Properties=species:S:1:pos:R:3:forces:R:3 energy=-39.83892059326172 free_energy=-39.83892059326172 stress="0.00016862500342540443 2.1132562366688035e-08 1.4252764524158579e-09 2.1132562366688035e-08 0.00016858361777849495 -1.6770680844047092e-08 1.4252764524158579e-09 -1.6770680844047092e-08 0.0001685876486590132" pbc="T T T"
K        2.04555310       1.44642435       3.54300266       0.00000012      -0.00000014       0.00000012
K        6.13666040       4.33927423      10.62900701      -0.00000035      -0.00000008       0.00000012
Ta       0.00000009      -0.00000050       0.00000019      -0.00000065       0.00000515       0.00000290
Cl       1.96629597       1.39038108       7.08600467      -0.00531119      -0.00375599       0.00000091
Cl       6.21591706       4.39531737       7.08600454       0.00531250       0.00375485       0.00000056
Cl       5.15351236       1.39038114       5.24586488       0.00265488      -0.00375497      -0.00459856
Cl       3.02870156       4.39531775       8.92614515      -0.00265390       0.00375086       0.00459540
Cl       3.02870131       4.39531769       5.24586472      -0.00265545       0.00375420      -0.00459892
Cl       5.15351225       1.39038093       8.92614523       0.00265411      -0.00375372       0.00459772
