9
Lattice="6.6427260895847295 -2.838322004904411e-07 3.8351797834807564 2.2142417851360072 6.262821993757879 3.8351797438620263 1.8934961881314562e-08 -3.513388483850139e-08 7.670359534165044" Properties=species:S:1:pos:R:3:forces:R:3 energy=-24.317140579223633 free_energy=-24.317140579223633 stress="0.00022502944921143353 -2.3887279709811082e-08 4.713307966142111e-09 -2.3887279709811082e-08 0.00022504218213725835 4.1655829896569685e-09 4.713307966142111e-09 4.1655829896569685e-09 0.0002250688266940415" pbc="T T T"
K        2.21424198       1.56570549       3.83517985      -0.00000036      -0.00000006      -0.00000008
K        6.64272604       4.69711622      11.50553937       0.00000031      -0.00000063      -0.00000032
Te      -0.00000065      -0.00000044      -0.00000142       0.00000542       0.00000350       0.00001278
Br       2.23390427       1.57960841       7.67035960      -0.00715576      -0.00505888      -0.00000067
Br       6.62306381       4.68321337       7.67035943       0.00715113       0.00505673       0.00000012
Br       5.52577361       1.57960927       5.76979851       0.00357973      -0.00506306      -0.00620107
Br       3.33119428       4.68321316       9.57092119      -0.00357693       0.00505812       0.00619511
Br       3.33119454       4.68321262       5.76979831      -0.00358050       0.00506242      -0.00620104
Br       5.52577367       1.57960856       9.57092141       0.00357694      -0.00505818       0.00619521
