9
Lattice="6.342061861717688 1.7065659517801957e-07 3.6615910571808006 2.1140207939298414 5.979353091666318 3.6615910355982604 4.6812646526905636e-08 6.668463763046318e-09 7.32318203327969" Properties=species:S:1:pos:R:3:forces:R:3 energy=-27.552186965942383 free_energy=-27.552186965942383 stress="7.035889575490728e-05 5.6839187578816563e-08 -8.526357397897755e-09 5.6839187578816563e-08 7.030492270132527e-05 1.168519236927068e-08 -8.526357397897755e-09 1.168519236927068e-08 7.02738543623127e-05" pbc="T T T"
K        2.11402070       1.49483844       3.66159109       0.00000028      -0.00000037      -0.00000006
K        6.34206207       4.48451486      10.98477284      -0.00000033       0.00000043       0.00000004
Te      -0.00000045       0.00000015      -0.00000051       0.00000586      -0.00000167       0.00000813
Cl       2.08727030       1.47592295       7.32318202      -0.00092557      -0.00065477      -0.00000037
Cl       6.36881283       4.50343036       7.32318200       0.00092262       0.00065308      -0.00000003
Cl       5.29842735       1.47592252       5.46921922       0.00045891      -0.00065008      -0.00079569
Cl       3.15765512       4.50343091       9.17714508      -0.00045881       0.00064908       0.00079393
Cl       3.15765553       4.50343088       5.46921929      -0.00045994       0.00065073      -0.00079669
Cl       5.29842739       1.47592201       9.17714549       0.00045694      -0.00064640       0.00079077
