9
Lattice="5.368044371531641 -1.9271213118439813e-07 3.099241899573555 1.7893479413835351 5.061040593677254 3.0992419009065593 -6.982875854222823e-08 -4.774374111530528e-08 6.198483920094048" Properties=species:S:1:pos:R:3:forces:R:3 energy=-38.477455139160156 free_energy=-38.477455139160156 stress="2.89933814201504e-06 -6.685498021852254e-08 3.5681519960917285e-08 -6.685498021852254e-08 2.925060016423231e-06 -5.161647553819648e-09 3.5681519960917285e-08 -5.161647553819648e-09 2.972815309476573e-06" pbc="T T T"
K        1.78934790       1.26526011       3.09924217      -0.00000012      -0.00000021      -0.00000004
K        5.36804443       3.79578019       9.29772570      -0.00000023       0.00000056      -0.00000041
Te      -0.00000019      -0.00000005      -0.00000011      -0.00000028       0.00000251      -0.00000263
F        1.70382814       1.20478813       6.19848385       0.00261647       0.00185025       0.00000035
F        5.45356418       3.85625210       6.19848374      -0.00261733      -0.00185144      -0.00000007
F        4.51613017       1.20478820       4.57480050      -0.00130646       0.00184813       0.00226361
F        2.64126218       3.85625200       7.82216758       0.00130643      -0.00184801      -0.00226283
F        2.64126221       3.85625192       4.57480044       0.00130589      -0.00184721       0.00226226
F        4.51612976       1.20478868       7.82216703      -0.00130440       0.00184554      -0.00226033
