9
Lattice="5.128225634511702 -6.131821314378677e-08 2.9607822796577805 1.7094085229693945 4.834937189538164 2.9607822174017393 1.0530708013399573e-07 -1.784424989038564e-09 5.921564376918363" Properties=species:S:1:pos:R:3:forces:R:3 energy=-50.38347625732422 free_energy=-50.38347625732422 stress="0.00020182532898616046 1.041690733671885e-08 2.937952991999282e-08 1.041690733671885e-08 0.00020168138144072145 -2.441143820419711e-08 2.937952991999282e-08 -2.441143820419711e-08 0.00020161755674052984" pbc="T T T"
K        1.70940826       1.20873438       2.96078250       0.00000098       0.00000009      -0.00000070
K        5.12822630       3.62620279       8.88234653      -0.00000136       0.00000030       0.00000093
Ti       0.00000006       0.00000010       0.00000007       0.00000006       0.00000608      -0.00000417
F        1.54345206       1.09138467       5.92156421      -0.00128561      -0.00090650       0.00000107
F        5.29418260       3.74355209       5.92156423       0.00128095       0.00090452       0.00000068
F        4.35649966       1.09138471       4.29744962       0.00064120      -0.00090414      -0.00110546
F        2.48113427       3.74355266       7.54567968      -0.00063904       0.00090173       0.00110263
F        2.48113416       3.74355229       4.29744961      -0.00063962       0.00090390      -0.00110352
F        4.35649967       1.09138475       7.54567923       0.00064253      -0.00090597       0.00110856
