9
Lattice="6.50709601707202 -1.854024799757071e-07 3.7568737109745096 2.1690319386724366 6.134948950251692 3.756873524292613 7.927072073803353e-08 -1.7258484157984835e-07 7.513747284648111" Properties=species:S:1:pos:R:3:forces:R:3 energy=-33.00847625732422 free_energy=-33.00847625732422 stress="0.00010641814151313156 -1.8685563318854292e-08 2.324323311597709e-08 -1.8685563318854292e-08 0.0001064358075382188 -1.2574241203822112e-08 2.324323311597709e-08 -1.2574241203822112e-08 0.0001064574607880786" pbc="T T T"
K        2.16903219       1.53373721       3.75687364      -0.00000007      -0.00000021       0.00000033
K        6.50709580       4.60121129      11.27062093       0.00000005       0.00000009      -0.00000036
Ti      -0.00000013       0.00000005       0.00000242       0.00000163       0.00000223      -0.00002163
Br       2.07968474       1.47055892       7.51374754      -0.00316614      -0.00223837      -0.00000153
Br       6.59644361       4.66438958       7.51374710       0.00316248       0.00223755       0.00000017
Br       5.46725426       1.47055879       5.55793311       0.00157931      -0.00223457      -0.00273790
Br       3.20887454       4.66438922       9.46956040      -0.00158557       0.00224377       0.00274656
Br       3.20887429       4.66438970       5.55793334      -0.00158088       0.00223541      -0.00273789
Br       5.46725274       1.47055971       9.46955965       0.00158917      -0.00224585       0.00275213
