9
Lattice="6.118065931536478 -5.881324968391528e-08 3.5322674445353903 2.0393551632150593 5.768168358757172 3.5322676036197436 -1.1755328938949724e-07 1.1171509194396096e-07 7.064535092679109" Properties=species:S:1:pos:R:3:forces:R:3 energy=-37.01570510864258 free_energy=-37.01570510864258 stress="-4.00128737965133e-06 -4.0430879977293444e-08 -4.599229086466039e-08 -4.0430879977293444e-08 -3.970341367676156e-06 2.749710681371198e-08 -4.599229086466039e-08 2.749710681371198e-08 -3.865116013912484e-06" pbc="T T T"
K        2.03935548       1.44204221       3.53226769      -0.00000009       0.00000001      -0.00000013
K        6.11806570       4.32612629      10.59680282      -0.00000002       0.00000007      -0.00000017
Ti       0.00000013       0.00000060       0.00000080      -0.00000178      -0.00000758      -0.00001366
Cl       1.93407000       1.36759428       7.06453479       0.00213557       0.00150993       0.00000013
Cl       6.22335035       4.40057394       7.06453557      -0.00212900      -0.00150611      -0.00000210
Cl       5.15103045       1.36759421       5.20722282      -0.00106555       0.00150798       0.00184265
Cl       3.00639141       4.40057325       8.92184647       0.00105722      -0.00149766      -0.00183140
Cl       3.00639039       4.40057406       5.20722264       0.00106711      -0.00150818       0.00184354
Cl       5.15103021       1.36759481       8.92184703      -0.00106341       0.00150169      -0.00183891
