9
Lattice="7.086602514254491 -1.6953385319769255e-07 4.091451874907056 2.362200914843641 6.681312630249494 4.091451465109515 3.387188486565417e-07 -2.623871572787152e-07 8.182903163135903" Properties=species:S:1:pos:R:3:forces:R:3 energy=-28.860618591308594 free_energy=-28.860618591308594 stress="4.7572790208505467e-05 1.50471120008433e-08 2.476321903088774e-08 1.50471120008433e-08 4.7554603952448815e-05 -3.86336580504576e-08 2.476321903088774e-08 -3.86336580504576e-08 4.754166002385318e-05" pbc="T T T"
K        2.36220084       1.67032821       4.09145165       0.00000006      -0.00000003       0.00000001
K        7.08660303       5.01098408      12.27435475      -0.00000002      -0.00000015       0.00000027
Ti       0.00000028      -0.00000069      -0.00000081      -0.00000480       0.00000644       0.00000640
I        2.27069418       1.60562240       8.18290294      -0.00121144      -0.00085631       0.00000047
I        7.17810971       5.07568957       8.18290319       0.00121079       0.00085773       0.00000074
I        5.95125587       1.60562233       6.05792948       0.00060486      -0.00085576      -0.00104838
I        3.49754721       5.07569071      10.30787887      -0.00059977       0.00084820       0.00103797
I        3.49754801       5.07568918       6.05792927      -0.00060589       0.00085602      -0.00104706
I        5.95125596       1.60562295      10.30787668       0.00060624      -0.00085618       0.00104959
