9
Lattice="6.418931395538324 3.346122181345883e-07 3.7059714428632136 2.1396440205067995 6.051826748733351 3.705971604777872 -5.714459620720692e-08 1.57896861102112e-07 7.411942984703827" Properties=species:S:1:pos:R:3:forces:R:3 energy=-32.34193801879883 free_energy=-32.34193801879883 stress="-0.00011165570322191343 6.455379519820781e-08 1.4628911415570656e-08 6.455379519820781e-08 -0.0001117110441555269 -7.0772379068273494e-09 1.4628911415570656e-08 -7.0772379068273494e-09 -0.00011179895955137908" pbc="T T T"
K        2.13964388       1.51295686       3.70597142      -0.00000004      -0.00000004       0.00000013
K        6.41893136       4.53887023      11.11791450       0.00000024       0.00000025       0.00000010
V       -0.00000140      -0.00000230      -0.00000253       0.00001547       0.00002837       0.00003223
Br       2.03750126       1.44073062       7.41194259       0.00541276       0.00382923       0.00000161
Br       6.52107648       4.61109812       7.41194272      -0.00544056      -0.00384741       0.00000254
Br       5.40018109       1.44073039       5.47049763      -0.00270852       0.00383273       0.00469570
Br       3.15839298       4.61109860       9.35339059       0.00272658      -0.00385495      -0.00472336
Br       3.15839412       4.61109735       5.47049731       0.00271350      -0.00383706       0.00470355
Br       5.40018189       1.44072938       9.35339012      -0.00271918       0.00384898      -0.00471261
