9
Lattice="6.096459292648806 -1.2482761217536174e-07 3.5197925402283814 2.0321529505198455 5.747797505215839 3.519792591048702 8.994776232139075e-08 1.258445467191883e-07 7.039584924662745" Properties=species:S:1:pos:R:3:forces:R:3 energy=-36.12825393676758 free_energy=-36.12825393676758 stress="-9.127453085966408e-05 -8.052368372091223e-08 -8.8319449531582e-09 -8.052368372091223e-08 -9.116435830947012e-05 -9.907821230115132e-09 -8.8319449531582e-09 -9.907821230115132e-09 -9.119566675508395e-05" pbc="T T T"
K        2.03215288       1.43694948       3.51979282       0.00000019       0.00000041      -0.00000042
K        6.09645941       4.31084813      10.55937799       0.00000023      -0.00000059      -0.00000016
V       -0.00000016       0.00000080       0.00000079       0.00000273      -0.00001280      -0.00001938
Cl       1.90041661       1.34379759       7.03958514       0.00752237       0.00531793      -0.00000002
Cl       6.22819610       4.40399979       7.03958524      -0.00751999      -0.00531605      -0.00000094
Cl       5.14625069       1.34379847       5.16560154      -0.00375970       0.00531688       0.00651446
Cl       2.98236235       4.40399851       8.91356756       0.00375074      -0.00530320      -0.00649899
Cl       2.98236147       4.40399856       5.16560185       0.00375766      -0.00531089       0.00650936
Cl       5.14625008       1.34379860       8.91356771      -0.00375415       0.00530827      -0.00650382
