9
Lattice="5.1521646316855865 -8.35612681578403e-08 2.9746038436469693 1.7173881844539447 4.857507474198925 2.974603752412182 5.062026443190464e-10 -1.1138136585052891e-07 5.949207686417014" Properties=species:S:1:pos:R:3:forces:R:3 energy=-46.58574676513672 free_energy=-46.58574676513672 stress="0.00038105377461761236 -3.839305762198819e-08 4.041927681441848e-08 -3.839305762198819e-08 0.00038112132460810244 -6.280002651237737e-08 4.041927681441848e-08 -6.280002651237737e-08 0.00038120237877592444" pbc="T T T"
K        1.71738830       1.21437677       2.97460387      -0.00000040       0.00000050       0.00000034
K        5.15216429       3.64313062       8.92381150       0.00000033       0.00000047      -0.00000028
V       -0.00000004       0.00000023       0.00000020       0.00000199      -0.00000343      -0.00000187
F        1.53631484       1.08633889       5.94920797      -0.00441974      -0.00312597      -0.00000102
F        5.33323827       3.77116859       5.94920734       0.00441770       0.00312492       0.00000038
F        4.38400730       1.08633858       4.30509217       0.00220814      -0.00312369      -0.00382820
F        2.48554557       3.77116815       7.59332307      -0.00220978       0.00312768       0.00382966
F        2.48554603       3.77116819       4.30509230      -0.00221128       0.00312793      -0.00383238
F        4.38400663       1.08633908       7.59332289       0.00221283      -0.00312833       0.00383356
