9
Lattice="7.015233612166978 1.2497942812113054e-07 4.050247844138704 2.3384112692602073 6.614026209802424 4.050247935291563 1.1638571251146435e-07 1.9393631310240517e-07 8.100495486691402" Properties=species:S:1:pos:R:3:forces:R:3 energy=-28.54497528076172 free_energy=-28.54497528076172 stress="-3.2258325518341735e-05 3.6306819772846666e-09 -2.749287020265001e-09 3.6306819772846666e-09 -3.223348539904691e-05 3.2679082551112515e-08 -2.749287020265001e-09 3.2679082551112515e-08 -3.224628380849026e-05" pbc="T T T"
K        2.33841165       1.65350695       4.05024808       0.00000079       0.00000021       0.00000026
K        7.01523316       4.96051973      12.15074332      -0.00000033      -0.00000007      -0.00000034
V        0.00000078      -0.00000064       0.00000000      -0.00000386       0.00000531       0.00000173
I        2.22346178       1.57222596       8.10049579       0.00320628       0.00226608      -0.00000045
I        7.13018403       5.04180047       8.10049462      -0.00320835      -0.00226626       0.00000258
I        5.90350250       1.57222634       5.97582365      -0.00160008       0.00226194       0.00277247
I        3.45014125       5.04180116      10.22516857       0.00160504      -0.00226781      -0.00277828
I        3.45014266       5.04180077       5.97582208       0.00160386      -0.00226800       0.00277933
I        5.90350228       1.57222527      10.22516891      -0.00160337       0.00226863      -0.00277713
