9
Lattice="6.5041823354421675 2.00999943205939e-07 3.755191374541729 2.168060945342036 6.132202097863528 3.7551914137610285 7.877504401954641e-08 1.0373595061164167e-07 7.510382612641256" Properties=species:S:1:pos:R:3:forces:R:3 energy=-34.25244140625 free_energy=-34.25244140625 stress="0.00013680904521606863 7.174562455247724e-08 -9.57160040115923e-09 7.174562455247724e-08 0.00013677586684934795 -5.471401665069209e-10 -9.57160040115923e-09 -5.471401665069209e-10 0.00013671821216121316" pbc="T T T"
K        2.16806083       1.53305057       3.75519169       0.00000003      -0.00000017       0.00000061
K        6.50418257       4.59915182      11.26557386       0.00000013      -0.00000001       0.00000048
W       -0.00000044       0.00000022      -0.00000555       0.00000904      -0.00000018       0.00008751
Br       2.08558939       1.47473495       7.51038259      -0.00459297      -0.00324865       0.00000181
Br       6.58665439       4.65746770       7.51038286       0.00458642       0.00324437       0.00000083
Br       5.46138748       1.47473527       5.56136533       0.00230450      -0.00325955      -0.00399030
Br       3.21085440       4.65746970       9.45940270      -0.00227789       0.00322170       0.00394719
Br       3.21085536       4.65746702       5.56136525      -0.00230462       0.00326175      -0.00399196
Br       5.46138947       1.47473235       9.45940285       0.00227534      -0.00321930       0.00394377
