9
Lattice="5.190207861557792 -1.9412925276731996e-08 2.9965679247421204 1.730069324906612 4.89337498174915 2.9965678277067127 -1.4675706593698797e-08 -1.292208745933214e-07 5.993135874903336" Properties=species:S:1:pos:R:3:forces:R:3 energy=-45.95964813232422 free_energy=-45.95964813232422 stress="0.00012887458433397114 -1.5702408262541212e-08 6.182392553455429e-08 -1.5702408262541212e-08 0.00012889932258985937 -7.526259082624165e-08 6.182392553455429e-08 -7.526259082624165e-08 0.00012894137762486935" pbc="T T T"
K        1.73006925       1.22334370       2.99656778      -0.00000041      -0.00000043      -0.00000002
K        5.19020782       3.67003098       8.98970404       0.00000006       0.00000021      -0.00000037
W       -0.00000005      -0.00000031      -0.00000043       0.00000327       0.00001037       0.00001256
F        1.64802334       1.16532869       5.99313584      -0.00207561      -0.00146774       0.00000008
F        5.27225392       3.72804646       5.99313553       0.00206795       0.00146253       0.00000011
F        4.36619669       1.16532834       4.42379799       0.00103787      -0.00146794      -0.00179823
F        2.55408052       3.72804671       7.56247380      -0.00103234       0.00146043       0.00178893
F        2.55408108       3.72804622       4.42379854      -0.00103907       0.00147001      -0.00180085
F        4.36619608       1.16532860       7.56247343       0.00103821      -0.00146746       0.00179788
