9
Lattice="7.058022899269313 -4.6405703939934924e-07 4.074951752874292 2.352673769344227 6.654367577385161 4.074951913773316 -1.1420508518403583e-07 1.1630512946604328e-07 8.149903703557673" Properties=species:S:1:pos:R:3:forces:R:3 energy=-30.124950408935547 free_energy=-30.124950408935547 stress="0.00011701183393597603 -7.990806238922232e-08 1.4441289941657942e-08 -7.990806238922232e-08 0.00011705645738402382 -6.277671271703866e-09 1.4441289941657942e-08 -6.277671271703866e-09 0.00011713936692103744" pbc="T T T"
K        2.35267463       1.66359137       4.07495239       0.00000056      -0.00000013      -0.00000017
K        7.05802232       4.99077570      12.22485522      -0.00000020       0.00000050       0.00000034
W       -0.00000244      -0.00000108       0.00000151       0.00003196       0.00001817      -0.00002373
I        2.26031345       1.59828298       8.14990348      -0.00664453      -0.00469766      -0.00000045
I        7.15038497       5.05608555       8.14990350       0.00661270       0.00467485       0.00000082
I        5.92786613       1.59828244       6.03244122       0.00331520      -0.00468757      -0.00574201
I        3.48283108       5.05608453      10.26736543      -0.00332222       0.00469894       0.00575592
I        3.48283084       5.05608442       6.03244158      -0.00331659       0.00469010      -0.00574541
I        5.92786512       1.59828290      10.26736519       0.00332315      -0.00469723       0.00575462
