9
Lattice="7.199872247250938 3.582213950308766e-07 4.156847831501091 2.3999576715787625 6.78810442796468 4.156847973366325 -1.3684454853564413e-07 7.69850464327373e-08 8.313695900023788" Properties=species:S:1:pos:R:3:forces:R:3 energy=-30.525375366210938 free_energy=-30.525375366210938 stress="4.3538035242818296e-05 3.751224397774422e-08 -9.695900970996263e-09 3.751224397774422e-08 4.3497257138369605e-05 1.434894603136172e-08 -9.695900970996263e-09 1.434894603136172e-08 4.347932554082945e-05" pbc="T T T"
K        2.39995756       1.69702657       4.15684815       0.00000136      -0.00000009       0.00000014
K        7.19987224       5.09107839      12.47054359      -0.00000149       0.00000042       0.00000018
Zr      -0.00000021       0.00000018      -0.00000253       0.00000059      -0.00000354       0.00002045
I        2.35615432       1.66605237       8.31369566      -0.00050247      -0.00035600       0.00000085
I        7.24367489       5.12205240       8.31369546       0.00050549       0.00035691       0.00000079
I        6.02179497       1.66605268       6.19733731       0.00025256      -0.00035659      -0.00043602
I        3.57803417       5.12205350      10.43005562      -0.00024638       0.00034697       0.00042735
I        3.57803475       5.12205217       6.19733747      -0.00025319       0.00035650      -0.00043651
I        6.02179638       1.66605118      10.43005610       0.00024349      -0.00034452       0.00042280
