9
Lattice="6.253242296236492 -3.944611966715459e-08 3.6103113875727297 2.0844140418711503 5.895613570055984 3.6103114216667516 1.785380181555988e-08 5.438092116797232e-08 7.220622744221787" Properties=species:S:1:pos:R:3:forces:R:3 energy=-39.0543327331543 free_energy=-39.0543327331543 stress="0.0001509097492089495 -4.981453116670309e-08 -1.4236252177113329e-08 -4.981453116670309e-08 0.00015096597780939192 2.2173267666403262e-08 -1.4236252177113329e-08 2.2173267666403262e-08 0.00015098745643626899" pbc="T T T"
K        2.08441412       1.47390325       3.61031152      -0.00000024       0.00000049      -0.00000022
K        6.25324220       4.42171012      10.83093439      -0.00000012       0.00000018      -0.00000010
Zr       0.00000035       0.00000101      -0.00000041      -0.00000600      -0.00000916       0.00000402
Cl       2.02784651       1.43390429       7.22062286      -0.00314393      -0.00222278      -0.00000060
Cl       6.30980908       4.46170867       7.22062284       0.00315272       0.00223118       0.00000057
Cl       5.23931877       1.43390487       5.36647917       0.00157687      -0.00223187      -0.00273390
Cl       3.09833786       4.46170866       9.07476676      -0.00157713       0.00223119       0.00273124
Cl       3.09833780       4.46170879       5.36647864      -0.00157708       0.00223002      -0.00273050
Cl       5.23931872       1.43390458       9.07476660       0.00157501      -0.00222916       0.00272958
