9
Lattice="6.637049354649526 -2.8752253075823604e-07 3.831902362931393 2.2123496569405736 6.257469907518124 3.8319021150122743 1.150410810870206e-07 -2.2229131537579476e-07 7.663804526605722" Properties=species:S:1:pos:R:3:forces:R:3 energy=-34.93569564819336 free_energy=-34.93569564819336 stress="0.0002463237033225596 -4.5554987337936836e-08 1.2616685474142741e-08 -4.5554987337936836e-08 0.0002463636628817767 -1.8203628826540807e-08 1.2616685474142741e-08 -1.8203628826540807e-08 0.0002463845885358751" pbc="T T T"
K        2.21234984       1.56436715       3.83190232       0.00000004      -0.00000042      -0.00000123
K        6.63704938       4.69310228      11.49570676      -0.00000021       0.00000014       0.00000094
Zr      -0.00000040       0.00000041       0.00000137       0.00000590      -0.00000492      -0.00001150
Br       2.16498432       1.53087456       7.66380438      -0.00781795      -0.00552836      -0.00000049
Br       6.68441502       4.72659515       7.66380438       0.00781663       0.00552739      -0.00000056
Br       5.55455731       1.53087425       5.70683326       0.00390700      -0.00552539      -0.00676751
Br       3.29484218       4.72659412       9.62077471      -0.00391342       0.00553441       0.00677809
Br       3.29484213       4.72659441       5.70683406      -0.00391043       0.00553007      -0.00677360
Br       5.55455667       1.53087527       9.62077473       0.00391243      -0.00553296       0.00677586
