9
Lattice="6.153223026308244 -9.666764880929603e-09 3.552564798034882 2.051074368566567 5.801313899385796 3.5525647364123025 1.5706765240798564e-07 3.559186930553372e-08 7.105129324020584" Properties=species:S:1:pos:R:3:forces:R:3 energy=-23.19221305847168 free_energy=-23.19221305847168 stress="0.00033533101668581367 -1.706850127902726e-08 1.2728221143731844e-08 -1.706850127902726e-08 0.0003353266802150756 -3.7066332225776932e-09 1.2728221143731844e-08 -3.7066332225776932e-09 0.0003352781932335347" pbc="T T T"
Li       2.05107366       1.45032825       3.55256468      -0.00000068      -0.00000010      -0.00000035
Li       6.15322304       4.35098530      10.65769312      -0.00000055       0.00000000      -0.00000084
C       -0.00000088       0.00000049       0.00000221      -0.00000259      -0.00000132       0.00000343
Br       1.91484438       1.35399868       7.10512922      -0.00365424      -0.00258151       0.00000120
Br       6.28945426       4.44731562       7.10512902       0.00365213       0.00258154      -0.00000178
Br       5.19580098       1.35399849       5.21086734       0.00182892      -0.00258180      -0.00316322
Br       3.00849707       4.44731464       8.99939121      -0.00182542       0.00258252       0.00316137
Br       3.00849626       4.44731536       5.21086789      -0.00182688       0.00258374      -0.00316292
Br       5.19580155       1.35399901       8.99939050       0.00182930      -0.00258312       0.00316298
