9
Lattice="4.229338739050945 -2.426903766355319e-07 2.441809556853406 1.4097794656765963 3.9874576346546156 2.4418093580076095 -2.6110761523662217e-07 -4.2816631609101933e-07 4.883619565958517" Properties=species:S:1:pos:R:3:forces:R:3 energy=-39.555843353271484 free_energy=-39.555843353271484 stress="-3.828010449069552e-05 4.491700167363888e-07 -1.6269683555947267e-07 4.491700167363888e-07 -3.8467635022243485e-05 8.888489055891569e-09 -1.6269683555947267e-07 8.888489055891569e-09 -3.694787301355973e-05" pbc="T T T"
Li       1.40977924       0.99686488       2.44180944      -0.00000358       0.00000094      -0.00000143
Li       4.22933873       2.99059248       7.32542852       0.00000250       0.00000117      -0.00000121
C       -0.00000020       0.00000077      -0.00000266       0.00000951       0.00000139       0.00000023
F        1.28021421       0.90524772       4.88361964      -0.00105709      -0.00074518      -0.00000053
F        4.35890353       3.08220795       4.88361918       0.00104862       0.00075048      -0.00000469
F        3.58923157       0.90524855       3.55050923       0.00051567      -0.00073528      -0.00093120
F        2.04988596       3.08221006       6.21672984      -0.00051683       0.00072867       0.00092733
F        2.04988647       3.08220896       3.55050870      -0.00051087       0.00072944      -0.00092036
F        3.58923194       0.90524600       6.21673043       0.00051221      -0.00073212       0.00093204
