9
Lattice="4.523490760236225 -9.346164441718934e-08 2.6116386641805804 1.507830203859356 4.264788160357427 2.611638597386347 -8.181098280860861e-08 -1.3965513010119324e-07 5.223277470061902" Properties=species:S:1:pos:R:3:forces:R:3 energy=-38.676918029785156 free_energy=-38.676918029785156 stress="0.00019099240307696164 -1.8088461217757867e-07 6.98556590350563e-08 -1.8088461217757867e-07 0.00019083225924987346 -1.254500716640905e-07 6.98556590350563e-08 -1.254500716640905e-07 0.00019114708993583918" pbc="T T T"
Li       1.50783048       1.06619652       2.61163906       0.00000036      -0.00000194       0.00000051
Li       4.52349049       3.19859078       7.83491588      -0.00000033       0.00000062       0.00000079
Co       0.00000002       0.00000018       0.00000081      -0.00000321      -0.00001401      -0.00002475
F        1.47573307       1.04350089       5.22327737      -0.00180906      -0.00127888      -0.00000123
F        4.55558696       3.22128695       5.22327750       0.00182436       0.00128643      -0.00000031
F        3.78562392       1.04350114       3.88966157       0.00090457      -0.00128058      -0.00156786
F        2.24569718       3.22128644       6.55689209      -0.00091939       0.00129654       0.00159052
F        2.24569789       3.22128672       3.88966220      -0.00091217       0.00128742      -0.00158229
F        3.78562342       1.04350189       6.55689279       0.00091484      -0.00129547       0.00158454
