9
Lattice="6.0565921959410955 -3.5963940393134707e-09 3.4967751850052284 2.0188640445291988 5.710210356999708 3.4967752151321525 -6.059197601122979e-08 -5.947223678284136e-09 6.993550474958739" Properties=species:S:1:pos:R:3:forces:R:3 energy=-26.034116744995117 free_energy=-26.034116744995117 stress="5.498912287293933e-05 -3.1855864612850837e-09 -1.3240653018442572e-09 -3.1855864612850837e-09 5.5017517297528684e-05 -3.4964313666563385e-09 -1.3240653018442572e-09 -3.4964313666563385e-09 5.499121834873222e-05" pbc="T T T"
Li       2.01886427       1.42755227       3.49677524       0.00000021      -0.00000028      -0.00000020
Li       6.05659214       4.28265816      10.49032532      -0.00000016       0.00000041      -0.00000065
Co      -0.00000000      -0.00000020      -0.00000024      -0.00000010       0.00000101       0.00000329
Br       1.98805698       1.40576844       6.99355029      -0.00019746      -0.00013921      -0.00000047
Br       6.08739956       4.30444198       6.99355049       0.00019626       0.00013824       0.00000007
Br       5.06256373       1.40576822       5.21848300       0.00009866      -0.00013903      -0.00017065
Br       3.01289239       4.30444196       8.76861817      -0.00009807       0.00013880       0.00016902
Br       3.01289220       4.30444206       5.21848298      -0.00009815       0.00013871      -0.00017004
Br       5.06256350       1.40576850       8.76861815       0.00009894      -0.00013870       0.00016955
