9
Lattice="5.637550386380564 -4.9846626610585205e-08 3.2548410907318734 1.8791834972207038 5.31513319110179 3.2548409485482424 4.993228466568359e-08 -1.3883108070195217e-07 6.509682094978334" Properties=species:S:1:pos:R:3:forces:R:3 energy=-25.994348526000977 free_energy=-25.994348526000977 stress="-1.5971936591085978e-05 1.9631626102523114e-08 2.6037152878188863e-08 1.9631626102523114e-08 -1.6033844076446258e-05 -2.4486899619091673e-08 2.6037152878188863e-08 -2.4486899619091673e-08 -1.5973264453350566e-05" pbc="T T T"
Li       1.87918337       1.32878307       3.25484098      -0.00000059      -0.00000052      -0.00000007
Li       5.63755049       3.98634985       9.76452287      -0.00000031       0.00000067      -0.00000059
C        0.00000156      -0.00000102      -0.00000093       0.00001716      -0.00000937      -0.00000811
Cl       1.78071549       1.25915562       6.50968214       0.00391651       0.00276906      -0.00000060
Cl       5.73601754       4.05597692       6.50968186      -0.00392119      -0.00277494      -0.00000000
Cl       4.74719259       1.25915602       4.79698626      -0.00196579       0.00277982       0.00340375
Cl       2.76954080       4.05597781       8.22237899       0.00195771      -0.00276821      -0.00338880
Cl       2.76954134       4.05597749       4.79698610       0.00195733      -0.00276928       0.00338972
Cl       4.74719244       1.25915628       8.22237822      -0.00196086       0.00277309      -0.00339526
