9
Lattice="6.607966839761417 8.062331164423395e-08 3.815111380303562 2.2026557002013973 6.230050837747085 3.815111361363123 3.1781287697686574e-08 -7.243911332939505e-10 7.630222705560265" Properties=species:S:1:pos:R:3:forces:R:3 energy=-23.284088134765625 free_energy=-23.284088134765625 stress="0.00015095995331648737 -1.6068637531674312e-09 -6.222272141975793e-10 -1.6068637531674312e-09 0.00015096277638804168 -1.6148875570110022e-09 -6.222272141975793e-10 -1.6148875570110022e-09 0.00015095937123987824" pbc="T T T"
Li       2.20265557       1.55751255       3.81511125       0.00000031       0.00000007      -0.00000026
Li       6.60796703       4.67253824      11.44533422       0.00000005      -0.00000019       0.00000022
Co       0.00000056       0.00000005      -0.00000148      -0.00000130       0.00000023       0.00000310
I        2.19148825       1.54961609       7.63022310      -0.00805853      -0.00569820       0.00000056
I        6.61913455       4.68043482       7.63022318       0.00805885       0.00569883      -0.00000013
I        5.51222235       1.54961615       5.71299586       0.00403019      -0.00569913      -0.00697978
I        3.29839928       4.68043507       9.54744988      -0.00402851       0.00569694       0.00697736
I        3.29839958       4.68043461       5.71299582      -0.00402988       0.00569907      -0.00697918
I        5.51222312       1.54961605       9.54744996       0.00402884      -0.00569759       0.00697818
