9
Lattice="6.118473828918544 2.3646743531310493e-08 3.532502554239194 2.039491326046331 5.7685523845857265 3.5325025067015816 5.215723470717096e-08 -2.1340649245576325e-08 7.065005018139339" Properties=species:S:1:pos:R:3:forces:R:3 energy=-31.267438888549805 free_energy=-31.267438888549805 stress="9.786427108338103e-05 2.427442957753101e-08 2.1503860025973154e-08 2.427442957753101e-08 9.785009024199098e-05 -9.725285465833622e-09 2.1503860025973154e-08 -9.725285465833622e-09 9.783662972040474e-05" pbc="T T T"
Li       2.03949143       1.44213760       3.53250250       0.00000084      -0.00000012      -0.00000058
Li       6.11847359       4.32641425      10.59750687      -0.00000097      -0.00000055      -0.00000124
Cr      -0.00000030       0.00000016      -0.00000028       0.00000442      -0.00000114       0.00000380
Br       1.99235476       1.40880795       7.06500516      -0.00049860      -0.00035214      -0.00000107
Br       6.16561044       4.35974508       7.06500541       0.00049568       0.00034995      -0.00000055
Br       5.12229682       1.40880702       5.25793216       0.00024591      -0.00034738      -0.00042695
Br       3.03566887       4.35974491       8.87207777      -0.00024738       0.00034998       0.00042885
Br       3.03566860       4.35974492       5.25793273      -0.00024793       0.00035091      -0.00043113
Br       5.12229656       1.40880773       8.87207804       0.00024814      -0.00034963       0.00042906
