9
Lattice="5.765485382703582 -4.719438289661129e-08 3.3287044374330055 1.9218284029864576 5.435751450798531 3.328704460676095 -4.759147643692361e-08 -5.185342953405625e-09 6.65740895729666" Properties=species:S:1:pos:R:3:forces:R:3 energy=-34.612064361572266 free_energy=-34.612064361572266 stress="0.0002468681486789137 1.2155558337667571e-08 -2.527176512501228e-08 1.2155558337667571e-08 0.00024689960991963744 -2.5536188275054883e-08 -2.527176512501228e-08 -2.5536188275054883e-08 0.000246919080382213" pbc="T T T"
Li       1.92182838       1.35893780       3.32870422       0.00000076       0.00000074       0.00000032
Li       5.76548579       4.07681381       9.98611316       0.00000028      -0.00000033      -0.00000105
Cr      -0.00000009       0.00000008       0.00000029       0.00000282      -0.00000092      -0.00000248
Cl       1.87855514       1.32833944       6.65740911      -0.00576839      -0.00407940       0.00000085
Cl       5.80875890       4.10741250       6.65740892       0.00576507       0.00407568       0.00000003
Cl       4.82620742       1.32833903       4.95558083       0.00288315      -0.00407565      -0.00499158
Cl       2.86110590       4.10741233       8.35923682      -0.00288277       0.00407796       0.00499554
Cl       2.86110587       4.10741202       4.95558122      -0.00288296       0.00407855      -0.00499479
Cl       4.82620775       1.32833853       8.35923673       0.00288208      -0.00407614       0.00499284
