9
Lattice="4.667038507166192 -5.2541849783037626e-08 2.6945158599114545 1.5556794615406488 4.400126018996512 2.6945158448619093 1.0783184387518722e-08 -1.0806991565772635e-08 5.389031701145861" Properties=species:S:1:pos:R:3:forces:R:3 energy=-44.57345962524414 free_energy=-44.57345962524414 stress="0.00017321355699095875 -4.0595192984937967e-08 -3.787544500255535e-08 -4.0595192984937967e-08 0.00017337231838610023 -1.0973744579700906e-08 -3.787544500255535e-08 -1.0973744579700906e-08 0.00017329034744761884" pbc="T T T"
Li       1.55567886       1.10003195       2.69451584      -0.00000082       0.00000108       0.00000016
Li       4.66703830       3.30009480       8.08354746       0.00000027       0.00000129      -0.00000041
Cr       0.00000003      -0.00000007       0.00000005       0.00000694       0.00000480      -0.00000215
F        1.51225348       1.06932415       5.38903177      -0.00126758      -0.00089672       0.00000096
F        4.71046520       3.33080163       5.38903191       0.00125825       0.00088936      -0.00000080
F        3.91091189       1.06932430       4.00416576       0.00063404      -0.00089498      -0.00109716
F        2.31180632       3.33080142       6.77389760      -0.00063355       0.00089602       0.00109822
F        2.31180591       3.33080122       4.00416548      -0.00063278       0.00089617      -0.00109755
F        3.91091198       1.06932448       6.77389771       0.00063518      -0.00089698       0.00109908
