9
Lattice="6.592357505373223 -8.075994291730063e-08 3.806099188301455 2.1974525105868157 6.215334178747011 3.80609904118646 8.692232275762775e-08 -1.1871510905145954e-07 7.612198226049086" Properties=species:S:1:pos:R:3:forces:R:3 energy=-25.32381248474121 free_energy=-25.32381248474121 stress="-5.233546835370362e-05 4.7396454760928464e-08 1.771148738782813e-08 4.7396454760928464e-08 -5.23717790201772e-05 -1.0236122172102569e-08 1.771148738782813e-08 -1.0236122172102569e-08 -5.2479274017969146e-05" pbc="T T T"
Li       2.19745241       1.55383352       3.80609891       0.00000030       0.00000080      -0.00000054
Li       6.59235769       4.66150062      11.41829775      -0.00000017      -0.00000106       0.00000078
Fe       0.00000149      -0.00000043      -0.00000149      -0.00003203       0.00000801       0.00003680
I        2.00540830       1.41803770       7.61219799       0.00552872       0.00390863      -0.00000057
I        6.78440111       4.79729610       7.61219791      -0.00551234      -0.00389880      -0.00000054
I        5.58965309       1.41803822       5.54283327      -0.00275455       0.00389670       0.00477587
I        3.20015643       4.79729666       9.68156450       0.00277172      -0.00391952      -0.00480432
I        3.20015673       4.79729591       5.54283301       0.00276190      -0.00390472       0.00478492
I        5.58965307       1.41803760       9.68156395      -0.00276365       0.00390978      -0.00479256
