9
Lattice="4.6588517170860175 3.6626165088483665e-08 2.6897892968989128 1.5529506202945955 4.3924074844623355 2.6897892736875257 -4.32890043896439e-09 -3.1489061588171355e-08 5.379578601295765" Properties=species:S:1:pos:R:3:forces:R:3 energy=-40.951026916503906 free_energy=-40.951026916503906 stress="0.00020057096844539046 -3.705028461808979e-08 -1.8735708096073722e-08 -3.705028461808979e-08 0.0002006386494031176 3.5256020325391546e-09 -1.8735708096073722e-08 3.5256020325391546e-09 0.0002006747672567144" pbc="T T T"
Li       1.55295047       1.09810164       2.68978930      -0.00000067      -0.00000188       0.00000066
Li       4.65885161       3.29430550       8.06936777      -0.00000100       0.00000003      -0.00000097
Fe      -0.00000003      -0.00000003       0.00000004      -0.00000018      -0.00000163      -0.00000015
F        1.51965964       1.07456145       5.37957841      -0.00091115      -0.00064424       0.00000097
F        4.69214235       3.31784608       5.37957876       0.00091302       0.00064480       0.00000052
F        3.89902180       1.07456164       4.00585317       0.00045711      -0.00064558      -0.00079015
F        2.31278064       3.31784623       6.75330386      -0.00045608       0.00064573       0.00079125
F        2.31278070       3.31784608       4.00585310      -0.00045675       0.00064573      -0.00079039
F        3.89902203       1.07456143       6.75330437       0.00045538      -0.00064284       0.00078824
