9
Lattice="6.162431811756305 -6.87969311913038e-08 3.5578816912027955 2.0541438032590698 5.809996762618922 3.557881810940518 -7.205188283981137e-08 9.569989398898597e-08 7.1157635072030505" Properties=species:S:1:pos:R:3:forces:R:3 energy=-29.188718795776367 free_energy=-29.188718795776367 stress="0.0001818575110519305 -4.506431139361666e-08 -2.9649523725083782e-08 -4.506431139361666e-08 0.00018192546849604696 2.7179115846820423e-08 -2.9649523725083782e-08 2.7179115846820423e-08 0.00018193540745414793" pbc="T T T"
Li       2.05414377       1.45249884       3.55788176      -0.00000051       0.00000015       0.00000032
Li       6.16243180       4.35749754      10.67364490       0.00000025       0.00000022       0.00000006
Fe      -0.00000040       0.00000017      -0.00000027       0.00001322       0.00000396       0.00001233
Br       1.84923821       1.30760893       7.11576317      -0.00365454      -0.00258503       0.00000011
Br       6.36733762       4.50238775       7.11576350       0.00364526       0.00258046      -0.00000108
Br       5.23781239       1.30760961       5.15936952       0.00182945      -0.00258934      -0.00317191
Br       2.97876303       4.50238749       9.07215833      -0.00182829       0.00258482       0.00316568
Br       2.97876278       4.50238752       5.15936912      -0.00182792       0.00258653      -0.00316678
Br       5.23781298       1.30760926       9.07215818       0.00182288      -0.00258152       0.00316122
