9
Lattice="6.815891921151967 -8.646174303098848e-08 3.935156891190497 2.2719639705056904 6.426084278540777 3.9351567555617226 6.812624002377704e-08 -1.1793806132607067e-07 7.870313664382823" Properties=species:S:1:pos:R:3:forces:R:3 energy=-21.652503967285156 free_energy=-21.652503967285156 stress="4.9547790695214644e-05 6.077532921366924e-10 4.22854684600793e-09 6.077532921366924e-10 4.954673204338178e-05 -9.114132559773225e-09 4.22854684600793e-09 -9.114132559773225e-09 4.954430187353864e-05" pbc="T T T"
Li       2.27196372       1.60652116       3.93515697      -0.00000003       0.00000022       0.00000013
Li       6.81589232       4.81956295      11.80547052       0.00000048      -0.00000014       0.00000011
Ge       0.00000024      -0.00000008      -0.00000017      -0.00000027       0.00000034       0.00000009
I        2.35773638       1.66717082       7.87031366      -0.00119624      -0.00084563      -0.00000011
I        6.73011949       4.75891298       7.87031373       0.00119641       0.00084525       0.00000041
I        5.63702399       1.66717116       5.97701641       0.00059696      -0.00084524      -0.00103596
I        3.45083198       4.75891286       9.76361115      -0.00059730       0.00084537       0.00103486
I        3.45083197       4.75891330       5.97701617      -0.00059853       0.00084510      -0.00103563
I        5.63702376       1.66717117       9.76361079       0.00059855      -0.00084519       0.00103605
