9
Lattice="4.741721193886686 6.488152292909412e-08 2.737634197081652 1.5805737536168536 4.470537816341619 2.737634264371146 -6.092899046976776e-08 3.932914324201939e-08 5.475268499695437" Properties=species:S:1:pos:R:3:forces:R:3 energy=-42.20043182373047 free_energy=-42.20043182373047 stress="0.0003178842307534069 -9.461387406872745e-08 -1.993777409836639e-08 -9.461387406872745e-08 0.0003180552157573402 1.0426985852518555e-07 -1.993777409836639e-08 1.0426985852518555e-07 0.0003180871135555208" pbc="T T T"
Li       1.58057376       1.11763438       2.73763448      -0.00000060      -0.00000012       0.00000058
Li       4.74172115       3.35290353       8.21290283       0.00000051       0.00000060       0.00000108
Ge      -0.00000000      -0.00000007       0.00000027       0.00000203       0.00000491      -0.00000788
F        1.48469290       1.04983662       5.47526835      -0.00291994      -0.00206769      -0.00000048
F        4.83760218       3.42070144       5.47526823       0.00291482       0.00206265       0.00000107
F        3.99937453       1.04983714       4.02341685       0.00146322      -0.00207126      -0.00253615
F        2.32292033       3.42070086       6.92711978      -0.00146358       0.00207233       0.00253913
F        2.32292037       3.42070086       4.02341669      -0.00145967       0.00206667      -0.00253183
F        3.99937442       1.04983688       6.92711997       0.00146297      -0.00206822       0.00253493
