9
Lattice="6.1564208473121855 -8.875357340748529e-08 3.55441133367962 2.0521401966440274 5.80432925332631 3.5544113373441366 -2.0718353174667187e-08 -1.016201412348161e-08 7.108822703244502" Properties=species:S:1:pos:R:3:forces:R:3 energy=-25.093162536621094 free_energy=-25.093162536621094 stress="0.00015707469719927758 -5.143581560673738e-09 -2.247831920598742e-09 -5.143581560673738e-09 0.00015707220882177353 3.883461108245001e-09 -2.247831920598742e-09 3.883461108245001e-09 0.0001570708554936573" pbc="T T T"
Li       2.05214028       1.45108225       3.55441127       0.00000012      -0.00000032      -0.00000012
Li       6.15642085       4.35324693      10.66323426      -0.00000032       0.00000004       0.00000063
Ge      -0.00000003      -0.00000023       0.00000041      -0.00000113       0.00000146      -0.00000370
Br       2.00454595       1.41742765       7.10882285      -0.00047866      -0.00033764      -0.00000009
Br       6.20401515       4.38690118       7.10882252       0.00047915       0.00033871      -0.00000016
Br       5.15414762       1.41742824       5.29039908       0.00023977      -0.00033863      -0.00041527
Br       3.05441330       4.38690123       8.92724617      -0.00024015       0.00033869       0.00041516
Br       3.05441331       4.38690137       5.29039884      -0.00023916       0.00033755      -0.00041346
Br       5.15414759       1.41742802       8.92724610       0.00024056      -0.00033994       0.00041676
