9
Lattice="5.826638197789562 5.331556937760208e-08 3.3640111485502118 1.942212733902616 5.493407066019362 3.3640112333520036 -1.1895158860666177e-07 1.9749050309930278e-08 6.728022503130594" Properties=species:S:1:pos:R:3:forces:R:3 energy=-29.105337142944336 free_energy=-29.105337142944336 stress="0.0001303118624491617 -8.524931871534136e-09 -2.0958237811896652e-08 -8.524931871534136e-09 0.00013033486902713776 -1.4012861093704032e-08 -2.0958237811896652e-08 -1.4012861093704032e-08 0.00013033572759013623" pbc="T T T"
Li       1.94221275       1.37335193       3.36401145       0.00000008       0.00000112       0.00000047
Li       5.82663807       4.12005536      10.09203386       0.00000002      -0.00000043      -0.00000128
Ge      -0.00000012      -0.00000004       0.00000094       0.00000039       0.00000080      -0.00001859
Cl       1.86547091       1.31908726       6.72802230      -0.00136785      -0.00096731      -0.00000028
Cl       5.90338009       4.17431994       6.72802300       0.00136721       0.00096774      -0.00000382
Cl       4.89390290       1.31908700       4.97955587       0.00067995      -0.00096141      -0.00117816
Cl       2.87494854       4.17431976       8.47648804      -0.00068942       0.00097196       0.00118913
Cl       2.87494762       4.17431997       4.97955628      -0.00067795       0.00096193      -0.00117707
Cl       4.89390248       1.31908743       8.47648770       0.00068768      -0.00097418       0.00118971
