9
Lattice="5.984335119990358 4.0882721760328375e-08 3.455057613498705 1.994778390977803 5.642085318240078 3.4550576496932797 3.713481618458058e-08 7.058741481502565e-08 6.910115162678051" Properties=species:S:1:pos:R:3:forces:R:3 energy=-39.2250862121582 free_energy=-39.2250862121582 stress="0.00015878392150625587 -5.010390324855507e-08 -3.910852441890711e-08 -5.010390324855507e-08 0.00015887223707977682 2.4032543066709877e-08 -3.910852441890711e-08 2.4032543066709877e-08 0.00015891152725089341" pbc="T T T"
Li       1.99477836       1.41052128       3.45505757       0.00000033      -0.00000029       0.00000000
Li       5.98433501       4.23156352      10.36517279       0.00000016      -0.00000084      -0.00000044
Hf       0.00000006       0.00000014       0.00000050       0.00000062      -0.00000251      -0.00001243
Cl       1.98757978       1.40543153       6.91011517      -0.00174548      -0.00123494       0.00000122
Cl       5.99153368       4.23665391       6.91011502       0.00174548       0.00123572       0.00000046
Cl       4.99054503       1.40543153       5.17635287       0.00087550      -0.00123763      -0.00151689
Cl       2.98856884       4.23665378       8.64387744      -0.00087953       0.00124415       0.00152551
Cl       2.98856830       4.23665419       5.17635282      -0.00087311       0.00123595      -0.00151563
Cl       4.99054506       1.40543190       8.64387765       0.00087582      -0.00123955       0.00151821
