9
Lattice="6.99373938901043 -4.2831902806917114e-08 4.037837371494348 2.3312464178730266 6.593760728195036 4.03783737971837 -1.5361859177405207e-09 8.986057788292877e-09 8.075674745649433" Properties=species:S:1:pos:R:3:forces:R:3 energy=-30.95174217224121 free_energy=-30.95174217224121 stress="7.025207014521584e-05 4.327437075346552e-09 -4.3887924405794365e-09 4.327437075346552e-09 7.023732177913189e-05 -2.071258276004073e-09 -4.3887924405794365e-09 -2.071258276004073e-09 7.024935621302575e-05" pbc="T T T"
Li       2.33124650       1.64844009       4.03783744      -0.00000057      -0.00000026       0.00000117
Li       6.99373934       4.94532050      12.11351198       0.00000049       0.00000066      -0.00000148
Hf      -0.00000023      -0.00000041       0.00000040       0.00000194       0.00000580      -0.00000405
I        2.31934758       1.64002648       8.07567485      -0.00073527      -0.00052000      -0.00000013
I        7.00563867       4.95373470       8.07567483       0.00073093       0.00051634      -0.00000052
I        5.83406577       1.64002604       6.04645119       0.00036620      -0.00051658      -0.00063406
I        3.49092024       4.95373426      10.10489808      -0.00036664       0.00051841       0.00063516
I        3.49091980       4.95373474       6.04645115      -0.00036445       0.00051539      -0.00063264
I        5.83406552       1.64002640      10.10489809       0.00036739      -0.00051980       0.00063655
