9
Lattice="4.969580357600626 1.9634667296601342e-07 2.86918837840111 1.6565268368521957 4.6853655552414 2.869188610724641 -1.3179720930943044e-07 1.9134239376267526e-07 5.738376985081671" Properties=species:S:1:pos:R:3:forces:R:3 energy=-53.0787467956543 free_energy=-53.0787467956543 stress="0.0003119376196991652 1.582364639318712e-08 2.1748176592950585e-09 1.582364639318712e-08 0.00031197487260214984 6.752769454720919e-09 2.1748176592950585e-09 6.752769454720919e-09 0.00031193543691188097" pbc="T T T"
Li       1.65652670       1.17134188       2.86918924       0.00000015       0.00000000       0.00000064
Li       4.96957987       3.51402475       8.60756492      -0.00000067       0.00000054      -0.00000165
Hf       0.00000016      -0.00000002      -0.00000017       0.00000440      -0.00000950      -0.00000570
F        1.62504745       1.14908212       5.73837711      -0.00367883      -0.00260191      -0.00000066
F        5.00105967       3.53628393       5.73837722       0.00368147       0.00260256      -0.00000064
F        4.15705670       1.14908173       4.27652088       0.00183658      -0.00259804      -0.00318192
F        2.46905089       3.53628378       7.20023319      -0.00184302       0.00260676       0.00319238
F        2.46905042       3.53628333       4.27652052      -0.00183980       0.00260108      -0.00318828
F        4.15705656       1.14908249       7.20023319       0.00183971      -0.00260143       0.00318567
