9
Lattice="4.866224051965036 -6.484452693093749e-08 2.809515711081051 1.6220746546503042 4.587919800579083 2.809515656005401 1.7000963196596302e-09 -6.625150649122012e-08 5.619031419217477" Properties=species:S:1:pos:R:3:forces:R:3 energy=-41.04385757446289 free_energy=-41.04385757446289 stress="0.00043840755824930966 4.31735962536095e-08 -8.969804454750374e-09 4.31735962536095e-08 0.0004383946943562478 2.1286968632239223e-08 -8.969804454750374e-09 2.1286968632239223e-08 0.0004383176565170288" pbc="T T T"
Li       1.62207458       1.14697970       2.80951529       0.00000045       0.00000018      -0.00000054
Li       4.86622409       3.44093997       8.42854741      -0.00000030      -0.00000023       0.00000093
Ir      -0.00000001      -0.00000002       0.00000007      -0.00000800      -0.00000190      -0.00000753
F        1.59359696       1.12684316       5.61903142      -0.00416553      -0.00294573       0.00000043
F        4.89470152       3.46107624       5.61903147       0.00417250       0.00295030      -0.00000074
F        4.06942540       1.12684328       4.18961119       0.00208317      -0.00294507      -0.00360756
F        2.41887334       3.46107632       7.04845140      -0.00208515       0.00294750       0.00360982
F        2.41887333       3.46107683       4.18961106      -0.00208142       0.00294375      -0.00360486
F        4.06942550       1.12684328       7.04845164       0.00208417      -0.00294887       0.00361008
