9
Lattice="6.204132542042524 -7.150577023464161e-09 3.5819576257775387 2.068044160469831 5.849312219321799 3.5819576491071903 1.8909535938457323e-09 2.991001948764318e-08 7.163915248279766" Properties=species:S:1:pos:R:3:forces:R:3 energy=-28.497081756591797 free_energy=-28.497081756591797 stress="0.00032552139600738883 -2.63602419892095e-08 1.5808321318644403e-09 -2.63602419892095e-08 0.0003255364717915654 -1.9608434875806324e-09 1.5808321318644403e-09 -1.9608434875806324e-09 0.0003255551273468882" pbc="T T T"
Li       2.06804421       1.46232804       3.58195754       0.00000004      -0.00000020       0.00000043
Li       6.20413260       4.38698428      10.74587322      -0.00000019       0.00000022       0.00000013
Ir      -0.00000008       0.00000013       0.00000081      -0.00000025      -0.00000054      -0.00001714
Br       2.03742095       1.44067411       7.16391537      -0.00617460      -0.00436584       0.00000002
Br       6.23475583       4.40863813       7.16391524       0.00617364       0.00436563       0.00000017
Br       5.18542207       1.44067411       5.34641579       0.00308622      -0.00436427      -0.00534531
Br       3.08675492       4.40863766       8.98141418      -0.00309053       0.00437158       0.00535358
Br       3.08675468       4.40863801       5.34641590      -0.00308591       0.00436452      -0.00534537
Br       5.18542166       1.44067452       8.98141409       0.00309162      -0.00437105       0.00535353
