9
Lattice="5.882162301913394 3.556381239369814e-09 3.3960680331956072 1.9607207453989945 5.545755977766439 3.396068076944573 -1.4909879840390856e-08 4.3038433963337976e-08 6.792136092215924" Properties=species:S:1:pos:R:3:forces:R:3 energy=-31.631885528564453 free_energy=-31.631885528564453 stress="0.00027548076468519866 2.399610288250642e-08 9.914887577622267e-09 2.399610288250642e-08 0.00027547311037778854 -2.5666864189588523e-08 9.914887577622267e-09 -2.5666864189588523e-08 0.00027546953060664237" pbc="T T T"
Li       1.96072087       1.38643926       3.39606805      -0.00000033       0.00000074       0.00000005
Li       5.88216219       4.15931689      10.18820401      -0.00000046      -0.00000025      -0.00000067
Ir      -0.00000010      -0.00000012       0.00000026      -0.00000281       0.00000223      -0.00000173
Cl       1.90350480       1.34598122       6.79213627      -0.00427893      -0.00302505       0.00000005
Cl       5.93937813       4.19977450       6.79213631       0.00427952       0.00302583       0.00000059
Cl       4.93040986       1.34598131       5.04455180       0.00213844      -0.00302455      -0.00370407
Cl       2.91247322       4.19977459       8.53972007      -0.00213754       0.00302294       0.00370264
Cl       2.91247329       4.19977471       5.04455180      -0.00213750       0.00302276      -0.00370240
Cl       4.93040979       1.34598175       8.53972026       0.00213970      -0.00302459       0.00370538
