9
Lattice="6.644563117879517 3.304803182367056e-08 3.836240345250053 2.2148543986502225 6.264554139321589 3.8362403541428534 4.995472919233256e-09 1.4423736301519644e-08 7.672480681847682" Properties=species:S:1:pos:R:3:forces:R:3 energy=-25.784271240234375 free_energy=-25.784271240234375 stress="0.00012079494626959786 -8.267027618025224e-10 8.913487725692448e-09 -8.267027618025224e-10 0.00012078307190677151 -3.379221624744133e-10 8.913487725692448e-09 -3.379221624744133e-10 0.00012079880980309099" pbc="T T T"
Li       2.21485434       1.56613853       3.83624025      -0.00000012      -0.00000021       0.00000009
Li       6.64456323       4.69841564      11.50872108      -0.00000002       0.00000021      -0.00000009
Ir      -0.00000002       0.00000006       0.00000032      -0.00000073       0.00000010      -0.00000070
I        2.20165451       1.55680478       7.67248085      -0.00300139      -0.00212226      -0.00000057
I        6.65776284       4.70774933       7.67248073       0.00300171       0.00212257      -0.00000004
I        5.54373597       1.55680481       5.74292929       0.00150038      -0.00212155      -0.00259902
I        3.31568178       4.70774914       9.60203180      -0.00150077       0.00212242       0.00259941
I        3.31568178       4.70774941       5.74292940      -0.00150018       0.00212092      -0.00259940
I        5.54373569       1.55680506       9.60203182       0.00150122      -0.00212215       0.00260033
