9
Lattice="4.925962527360041 -7.650701989151871e-09 2.8440057540867185 1.6419875947981029 4.644241727816772 2.8440055931943222 1.1746655938897208e-07 -1.1399070922951215e-07 5.6880113047154275" Properties=species:S:1:pos:R:3:forces:R:3 energy=-44.4201774597168 free_energy=-44.4201774597168 stress="9.140070687863044e-06 1.2516641945126139e-08 9.334592654397511e-09 1.2516641945126139e-08 9.14840438781539e-06 -1.585802422710003e-08 9.334592654397511e-09 -1.585802422710003e-08 9.126712029683404e-06" pbc="T T T"
Li       1.64198743       1.16106064       2.84400561      -0.00000080       0.00000089       0.00000005
Li       4.92596220       3.48318170       8.53201667      -0.00000092       0.00000025      -0.00000016
Mo       0.00000000      -0.00000011       0.00000015      -0.00000230      -0.00000369       0.00000211
F        1.62208906       1.14698991       5.68801139      -0.00035161      -0.00024901      -0.00000007
F        4.94586135       3.49725113       5.68801130       0.00035574       0.00025161       0.00000005
F        4.11491792       1.14699007       4.24877596       0.00017582      -0.00025022      -0.00030586
F        2.45303258       3.49725139       7.12724687      -0.00017551       0.00024951       0.00030549
F        2.45303232       3.49725182       4.24877610      -0.00017672       0.00025101      -0.00030653
F        4.11491804       1.14699004       7.12724660       0.00017627      -0.00025035       0.00030501
