9
Lattice="6.676983615469877 -2.7100450189800505e-08 3.8549580373711207 2.225661120751336 6.295120610411018 3.854958139310618 -7.664957319676307e-08 7.065041265110049e-08 7.709916207503316" Properties=species:S:1:pos:R:3:forces:R:3 energy=-26.835649490356445 free_energy=-26.835649490356445 stress="0.0002413158508716151 -1.4771359246879001e-08 3.030578454854549e-09 -1.4771359246879001e-08 0.00024132398539222777 -5.2092699043271296e-09 3.030578454854549e-09 -5.2092699043271296e-09 0.00024132660473696887" pbc="T T T"
Li       2.22566183       1.57378025       3.85495750       0.00000126       0.00000016      -0.00000064
Li       6.67698293       4.72133999      11.56487504      -0.00000113      -0.00000047       0.00000052
Mn       0.00000330       0.00000101       0.00000254      -0.00003034      -0.00000969      -0.00002464
I        2.14942058       1.51986994       7.70991658       0.00062901       0.00044477      -0.00000018
I        6.75322135       4.77524924       7.70991606      -0.00060213      -0.00042628      -0.00000104
I        5.60227259       1.51987070       5.71641128      -0.00031057       0.00043868       0.00053735
I        3.30037235       4.77524941       9.70341997       0.00030410      -0.00043178      -0.00052863
I        3.30037186       4.77525065       5.71641091       0.00031225      -0.00044239       0.00054137
I        5.60227192       1.51987143       9.70341949      -0.00030249       0.00042695      -0.00052422
