9
Lattice="5.887868955937226 1.2250361194551812e-07 3.3993628542457133 1.962622976384261 5.551136273917178 3.3993630697573307 -1.8659486066304104e-07 1.3200416528717348e-07 6.798726031683255" Properties=species:S:1:pos:R:3:forces:R:3 energy=-33.79100799560547 free_energy=-33.79100799560547 stress="0.0002633997064549476 1.144152328436121e-08 -8.195879530603634e-09 1.144152328436121e-08 0.00026344138314016163 1.5804463515678435e-08 -8.195879530603634e-09 1.5804463515678435e-08 0.0002634839038364589" pbc="T T T"
Li       1.96262288       1.38778390       3.39936309      -0.00000171      -0.00000003      -0.00000002
Li       5.88786889       4.16335241      10.19808946       0.00000083      -0.00000010       0.00000062
Mn      -0.00000066      -0.00000045      -0.00000084       0.00000833       0.00000249       0.00001527
Cl       1.83977420       1.30091753       6.79872648      -0.00642544      -0.00454608      -0.00000034
Cl       6.01071679       4.25021854       6.79872609       0.00642565       0.00454509      -0.00000127
Cl       4.96798164       1.30091767       4.99265532       0.00321211      -0.00454728      -0.00557120
Cl       2.88251029       4.25021963       8.60479638      -0.00321208       0.00454192       0.00556691
Cl       2.88251054       4.25021958       4.99265575      -0.00321461       0.00454532      -0.00557299
Cl       4.96798210       1.30091754       8.60479622       0.00320712      -0.00454140       0.00556296
