9
Lattice="6.283169483051413 -1.71516668638323e-07 3.627589751424561 2.0943896845848373 5.923829019596132 3.6275897191936735 1.3671076560466435e-08 -2.980767453362709e-08 7.255179479170068" Properties=species:S:1:pos:R:3:forces:R:3 energy=-31.41329574584961 free_energy=-31.41329574584961 stress="0.00014368095435202122 -8.185502053947857e-08 5.016054682727145e-09 -8.185502053947857e-08 0.00014374498277902603 -1.1518983988878517e-08 5.016054682727145e-09 -1.1518983988878517e-08 0.00014378674677573144" pbc="T T T"
Li       2.09439019       1.48095718       3.62758960       0.00000052      -0.00000019       0.00000005
Li       6.28316923       4.44287160      10.88276957      -0.00000002      -0.00000040       0.00000031
Mo      -0.00000038       0.00000003      -0.00000031       0.00000709      -0.00000253       0.00000982
Br       2.07241418       1.46541816       7.25517947      -0.00136219      -0.00096384       0.00000020
Br       6.30514502       4.45841082       7.25517928       0.00136073       0.00096232       0.00000027
Br       5.24696187       1.46541865       5.42235362       0.00068446      -0.00096915      -0.00118638
Br       3.13059709       4.45841034       9.08800508      -0.00068408       0.00096662       0.00118477
Br       3.13059761       4.45840992       5.42235416      -0.00068822       0.00097300      -0.00119170
Br       5.24696193       1.46541855       9.08800532       0.00068182      -0.00096589       0.00118260
