9
Lattice="4.670924278588579 -5.1321068166575007e-08 2.696759332432597 1.5569747097583684 4.403789526556131 2.696759334831769 -3.946800147877247e-08 -2.4969690492241344e-08 5.393518733225743" Properties=species:S:1:pos:R:3:forces:R:3 energy=-43.700286865234375 free_energy=-43.700286865234375 stress="0.00017510105681139976 -5.8836164384956646e-08 3.3363095619520777e-10 -5.8836164384956646e-08 0.0001751152885844931 -1.6180726092329678e-08 3.3363095619520777e-10 -1.6180726092329678e-08 0.00017521268455311656" pbc="T T T"
Li       1.55697435       1.10094708       2.69675947      -0.00000049      -0.00000138       0.00000072
Li       4.67092388       3.30284204       8.09027731      -0.00000210      -0.00000020      -0.00000118
Mn       0.00000006      -0.00000039       0.00000004      -0.00000456       0.00000880       0.00000310
F        1.49960081       1.06037772       5.39351891      -0.00157386      -0.00111219       0.00000085
F        4.72829776       3.34341171       5.39351882       0.00157958       0.00111464      -0.00000066
F        3.92112352       1.06037795       3.99545183       0.00079201      -0.00111933      -0.00136840
F        2.30677579       3.34341209       6.79158578      -0.00078900       0.00111154       0.00136445
F        2.30677574       3.34341152       3.99545186      -0.00079112       0.00111613      -0.00136729
F        3.92112395       1.06037809       6.79158597       0.00078955      -0.00111806       0.00136837
