9
Lattice="6.002738633747275 -8.28274504566167e-08 3.4656827125187535 2.000912827807928 5.65943628346622 3.46568266405135 -3.395597792866724e-08 -8.337070381170835e-08 6.931365483850953" Properties=species:S:1:pos:R:3:forces:R:3 energy=-36.504756927490234 free_energy=-36.504756927490234 stress="0.00015878464910201728 -7.731633111518477e-09 6.133068719549328e-09 -7.731633111518477e-09 0.00015877799887675792 -4.204907533278401e-09 6.133068719549328e-09 -4.204907533278401e-09 0.00015879901184234768" pbc="T T T"
Li       2.00091295       1.41485892       3.46568267      -0.00000039      -0.00000084       0.00000013
Li       6.00273835       4.24457776      10.39704803      -0.00000065       0.00000077      -0.00000023
Nb      -0.00000000       0.00000028       0.00000010      -0.00000379      -0.00000941       0.00000019
Cl       1.95733917       1.38404739       6.93136565      -0.00203165      -0.00143638      -0.00000039
Cl       6.04631196       4.27538809       6.93136546       0.00203952       0.00144264       0.00000000
Cl       5.02406912       1.38404779       5.16078833       0.00101742      -0.00143915      -0.00176239
Cl       2.97958280       4.27538819       8.70194251      -0.00101924       0.00144127       0.00176474
Cl       2.97958274       4.27538807       5.16078820      -0.00101915       0.00144058      -0.00176498
Cl       5.02406875       1.38404792       8.70194239       0.00101791      -0.00143963       0.00176284
