9
Lattice="4.557770501433349 -9.809058759092253e-08 2.6314301024575903 1.5192567407876238 4.297107309088303 2.631430103397622 -8.723043795796793e-08 -6.052988975384704e-08 5.262860356002704" Properties=species:S:1:pos:R:3:forces:R:3 energy=-35.01185607910156 free_energy=-35.01185607910156 stress="0.00019609213632065803 -3.179981078460514e-08 -1.2359547163498519e-08 -3.179981078460514e-08 0.00019611780589912087 1.928820880792159e-09 -1.2359547163498519e-08 1.928820880792159e-09 0.0001961096713785082" pbc="T T T"
Li       1.51925639       1.07427642       2.63142993       0.00000081      -0.00000069      -0.00000042
Li       4.55777076       3.22283053       7.89429001       0.00000008       0.00000063       0.00000063
Ni       0.00000001      -0.00000003       0.00000035      -0.00000350       0.00000374      -0.00001061
F        1.46489695       1.03583869       5.26286026      -0.00189845      -0.00134285      -0.00000047
F        4.61213022       3.26126865       5.26286040       0.00189753       0.00134180       0.00000232
F        3.82532191       1.03583901       3.90006835       0.00095028      -0.00134484      -0.00164518
F        2.25170512       3.26126827       6.62565249      -0.00095049       0.00134547       0.00164658
F        2.25170541       3.26126839       3.90006827      -0.00095014       0.00134359      -0.00164278
F        3.82532151       1.03583861       6.62565202       0.00095396      -0.00134683       0.00164981
