9
Lattice="4.9530233453948025 1.3738693056548978e-08 2.859629283179107 1.65100780985355 4.669754965443807 2.8596292570210884 1.567404433519734e-07 7.879535010862836e-08 5.719258294875848" Properties=species:S:1:pos:R:3:forces:R:3 energy=-49.08952713012695 free_energy=-49.08952713012695 stress="0.00037310371408239007 -7.804359114516046e-08 -2.3342153099292773e-08 -7.804359114516046e-08 0.0003730140451807529 -1.2766508739048277e-08 -2.3342153099292773e-08 -1.2766508739048277e-08 0.0003730567987076938" pbc="T T T"
Li       1.65100758       1.16743992       2.85962904       0.00000026       0.00000114       0.00000058
Li       4.95302383       3.50231554       8.57888793      -0.00000007      -0.00000057       0.00000015
Nb      -0.00000014      -0.00000016       0.00000017       0.00000726       0.00000431      -0.00001140
F        1.62246359       1.14725457       5.71925806      -0.00518531      -0.00366616      -0.00000028
F        4.98156822       3.52250015       5.71925880       0.00517893       0.00366098      -0.00000019
F        4.14179170       1.14725492       4.26472320       0.00259158      -0.00366282      -0.00448745
F        2.46223915       3.52250011       7.17379292      -0.00259551       0.00366813       0.00449306
F        2.46223923       3.52249998       4.26472324      -0.00259101       0.00366324      -0.00448763
F        4.14179172       1.14725520       7.17379349       0.00259402      -0.00366807       0.00449288
