9
Lattice="6.923459056933436 1.070384374213127e-07 3.9972607528878017 2.3078197930815283 6.527499690234275 3.9972607415943355 3.157590841195617e-08 8.495933558414652e-09 7.994521451084541" Properties=species:S:1:pos:R:3:forces:R:3 energy=-28.74759292602539 free_energy=-28.74759292602539 stress="8.550530765205622e-05 2.7323622475705633e-08 -1.3956905853262924e-08 2.7323622475705633e-08 8.548171899747103e-05 1.502404067821317e-08 -1.3956905853262924e-08 1.502404067821317e-08 8.545154560124502e-05" pbc="T T T"
Li       2.30781994       1.63187471       3.99726045      -0.00000020       0.00000084       0.00000059
Li       6.92345910       4.89562499      11.99178256       0.00000004      -0.00000042      -0.00000146
Nb       0.00000064       0.00000003       0.00000027      -0.00000647       0.00000003      -0.00000384
I        2.27844214       1.61110170       7.99452156      -0.00048549      -0.00034336      -0.00000016
I        6.95283629       4.91639769       7.99452160       0.00049012       0.00034726       0.00000003
I        5.78423812       1.61110183       5.97044904       0.00024193      -0.00034211      -0.00041889
I        3.44704075       4.91639809      10.01859391      -0.00024247       0.00034288       0.00041871
I        3.44704066       4.91639833       5.97044865      -0.00024006       0.00033912      -0.00041526
I        5.78423789       1.61110182      10.01859375       0.00024259      -0.00034426       0.00042027
