9
Lattice="6.577824171130279 -6.537427443353112e-08 3.7977084330509094 2.1926080040277585 6.201632033967151 3.797708418121039 -4.283607476478519e-08 -4.857491460033292e-08 7.5954169402961345" Properties=species:S:1:pos:R:3:forces:R:3 energy=-22.209877014160156 free_energy=-22.209877014160156 stress="5.327468170435168e-05 -3.4111697910788052e-09 2.1848058917584012e-09 -3.4111697910788052e-09 5.325824167812243e-05 -4.218847493575595e-09 2.1848058917584012e-09 -4.218847493575595e-09 5.326000973582268e-05" pbc="T T T"
Li       2.19260816       1.55040805       3.79770843       0.00000044      -0.00000043      -0.00000017
Li       6.57782441       4.65122406      11.39312530       0.00000032       0.00000048       0.00000014
Ni      -0.00000008      -0.00000003      -0.00000019      -0.00000034       0.00000005       0.00000001
I        2.21648082       1.56728895       7.59541689      -0.00266562      -0.00188425       0.00000005
I        6.55395103       4.63434292       7.59541700       0.00266553       0.00188483      -0.00000008
I        5.46958317       1.56728872       5.71723748       0.00133268      -0.00188535      -0.00230847
I        3.30084889       4.63434319       9.47359618      -0.00133292       0.00188525       0.00230822
I        3.30084897       4.63434317       5.71723759      -0.00133292       0.00188500      -0.00230809
I        5.46958317       1.56728862       9.47359646       0.00133258      -0.00188546       0.00230844
