9
Lattice="6.000192603998307 1.4287633791756477e-07 3.464212980332135 2.000064302554941 5.657035867642075 3.464213038326265 1.2931095489951689e-07 1.624646422827239e-07 6.928425736691109" Properties=species:S:1:pos:R:3:forces:R:3 energy=-24.819042205810547 free_energy=-24.819042205810547 stress="0.00011500656546559185 3.282434102303e-09 -7.102421761828737e-09 3.282434102303e-09 0.00011499250831548125 -1.372725844106526e-08 -7.102421761828737e-09 -1.372725844106526e-08 0.000114994021714665" pbc="T T T"
Li       2.00006378       1.41425970       3.46421333      -0.00000059       0.00000037       0.00000164
Li       6.00019274       4.24277618      10.39264044      -0.00000055      -0.00000062       0.00000213
Ni      -0.00000028      -0.00000010      -0.00000052       0.00000398       0.00000275       0.00000221
Br       1.97514638       1.39663913       6.92842546      -0.00287175      -0.00202969      -0.00000019
Br       6.02511098       4.26039701       6.92842580       0.00286907       0.00202715      -0.00000159
Br       5.01261966       1.39663926       5.17473925       0.00143544      -0.00202835      -0.00248727
Br       2.98763770       4.26039722       8.68211215      -0.00143494       0.00202823       0.00248435
Br       2.98763738       4.26039725       5.17473915      -0.00143442       0.00202903      -0.00248590
Br       5.01261981       1.39663908       8.68211206       0.00143379      -0.00202879       0.00248462
