9
Lattice="6.713696532650204 -9.0165172041261e-08 3.876154532746411 2.2378987818502374 6.329733668286579 3.8761544935291896 2.1512711678551724e-08 -3.281926337994206e-08 7.752309028231813" Properties=species:S:1:pos:R:3:forces:R:3 energy=-26.803911209106445 free_energy=-26.803911209106445 stress="5.264345236355439e-05 6.367932847695101e-09 3.2172572939082045e-10 6.367932847695101e-09 5.2650411817012355e-05 -4.347743942645366e-09 3.2172572939082045e-10 -4.347743942645366e-09 5.2630108257289976e-05" pbc="T T T"
Li       2.23789884       1.58243356       3.87615467      -0.00000005       0.00000120       0.00000005
Li       6.71369653       4.74730005      11.62846341      -0.00000039      -0.00000093      -0.00000012
Os       0.00000002       0.00000006       0.00000037      -0.00000056      -0.00000125      -0.00000225
I        2.21797983       1.56834834       7.75230914      -0.00021395      -0.00015157      -0.00000005
I        6.73361545       4.76138509       7.75230898       0.00021547       0.00015198      -0.00000016
I        5.60470658       1.56834854       5.79698122       0.00010657      -0.00015111      -0.00018449
I        3.34688887       4.76138488       9.70763653      -0.00010763       0.00015233       0.00018632
I        3.34688877       4.76138500       5.79698116      -0.00010715       0.00015109      -0.00018505
I        5.60470645       1.56834867       9.70763677       0.00010768      -0.00015180       0.00018574
