9
Lattice="4.88119781793515 -2.1161427001483592e-07 2.818160901976454 1.6270658001673872 4.602037346377157 2.818160797416925 -4.31510293837941e-09 -1.311100321917576e-07 5.636321811426864" Properties=species:S:1:pos:R:3:forces:R:3 energy=-44.03335189819336 free_energy=-44.03335189819336 stress="0.00028718498651869595 -8.819242935942384e-08 6.796745388726322e-09 -8.819242935942384e-08 0.0002872398472391069 3.484387223195995e-09 6.796745388726322e-09 3.484387223195995e-09 0.0002873154007829726" pbc="T T T"
Li       1.62706555       1.15050941       2.81816094      -0.00000048      -0.00000038       0.00000121
Li       4.88119771       3.45152765       8.45448199       0.00000076       0.00000025      -0.00000180
Os       0.00000015      -0.00000000       0.00000001       0.00000159      -0.00000057      -0.00000741
F        1.60506177       1.13494964       5.63632178      -0.00275700      -0.00194944       0.00000041
F        4.90320200       3.46708757       5.63632198       0.00275497       0.00194821       0.00000034
F        4.07866687       1.13494957       4.20818570       0.00138142      -0.00195205      -0.00239024
F        2.42959660       3.46708704       7.06445807      -0.00138245       0.00195579       0.00239451
F        2.42959670       3.46708678       4.20818525      -0.00138105       0.00195199      -0.00239114
F        4.07866713       1.13495025       7.06445847       0.00138222      -0.00195377       0.00239416
