9
Lattice="7.087666539922791 -1.8028744576679913e-08 4.0920663170407785 2.3625555340431164 6.682316231040715 4.092066251684986 -5.042413140078208e-09 -8.360968493493785e-08 8.18413264281525" Properties=species:S:1:pos:R:3:forces:R:3 energy=-21.016454696655273 free_energy=-21.016454696655273 stress="2.7397421945352107e-05 -1.0247132919971591e-08 9.304558901135351e-09 -1.0247132919971591e-08 2.7408521418692544e-05 -8.203410395424271e-09 9.304558901135351e-09 -8.203410395424271e-09 2.741131538641639e-05" pbc="T T T"
Li       2.36255580       1.67057866       4.09206615       0.00000120      -0.00000074       0.00000118
Li       7.08766618       5.01173747      12.27619878      -0.00000153       0.00000023      -0.00000161
Pb       0.00000016       0.00000005      -0.00000013      -0.00000059      -0.00000008       0.00000016
I        2.54762389       1.80144205       8.18413242      -0.00016016      -0.00011310      -0.00000014
I        6.90259798       4.88087396       8.18413267       0.00016011       0.00011350      -0.00000007
I        5.81385475       1.80144230       6.29837355       0.00008000      -0.00011323      -0.00013945
I        3.63636747       4.88087396      10.06989202      -0.00007927       0.00011382       0.00013952
I        3.63636755       4.88087390       6.29837359      -0.00007973       0.00011368      -0.00013919
I        5.81385446       1.80144220      10.06989183       0.00007994      -0.00011407       0.00013961
