9
Lattice="5.796375972441188 3.633561922477688e-08 3.3465393390258873 1.9321253795109603 5.4648754904648 3.3465393024686048 5.984677489617937e-08 -2.455311520959583e-09 6.693078574394106" Properties=species:S:1:pos:R:3:forces:R:3 energy=-27.466886520385742 free_energy=-27.466886520385742 stress="0.0003420363937038928 6.591622536689101e-08 -3.867069331420225e-09 6.591622536689101e-08 0.0003420183202251792 1.6894478704898575e-08 -3.867069331420225e-09 1.6894478704898575e-08 0.00034202367532998323" pbc="T T T"
Li       1.93212524       1.36621887       3.34653947      -0.00000036       0.00000114      -0.00000049
Li       5.79637574       4.09865636      10.03961827       0.00000030      -0.00000144      -0.00000023
Pd       0.00000044      -0.00000017      -0.00000056      -0.00000590      -0.00000044       0.00002144
Cl       1.91314419       1.35279747       6.69307849      -0.00750172      -0.00530694      -0.00000051
Cl       5.81535720       4.11207813       6.69307891       0.00750566       0.00530697      -0.00000161
Cl       4.83980405       1.35279741       5.00337073       0.00375250      -0.00530724      -0.00650012
Cl       2.88869725       4.11207866       8.38278634      -0.00374676       0.00530025       0.00648963
Cl       2.88869753       4.11207831       5.00337070      -0.00375096       0.00530815      -0.00649869
Cl       4.83980402       1.35279703       8.38278646       0.00374736      -0.00530063       0.00649071
