9
Lattice="6.168685110680391 9.359281294395438e-08 3.5614918524287464 2.0562284144059437 5.815892214771547 3.5614919287446574 -5.549815361227234e-08 5.422442283181978e-08 7.122983800983085" Properties=species:S:1:pos:R:3:forces:R:3 energy=-25.917470932006836 free_energy=-25.917470932006836 stress="0.00015532234101556242 3.447456009553207e-08 -4.80391326718177e-09 3.447456009553207e-08 0.0001553116599097848 6.1756946223567866e-09 -4.80391326718177e-09 6.1756946223567866e-09 0.0001552767353132367" pbc="T T T"
Li       2.05622835       1.45397298       3.56149194       0.00000034       0.00000043       0.00000081
Li       6.16868511       4.36191920      10.68447583      -0.00000023      -0.00000027      -0.00000020
Pt      -0.00000026      -0.00000022      -0.00000047       0.00000711       0.00000452       0.00000326
Br       2.03167868       1.43661395       7.12298360      -0.00141620      -0.00100167       0.00000019
Br       6.19323525       4.37927859       7.12298376       0.00140898       0.00099845      -0.00000010
Br       5.15284588       1.43661391       5.32097694       0.00070562      -0.00099882      -0.00122311
Br       3.07206731       4.37927882       8.92499120      -0.00070438       0.00099620       0.00121919
Br       3.07206731       4.37927884       5.32097638      -0.00070518       0.00099827      -0.00122045
Br       5.15284621       1.43661338       8.92499112       0.00070379      -0.00099725       0.00122035
