9
Lattice="4.7815418769677445 1.1130456828630222e-07 2.760624579044138 1.5938473366817685 4.508081335880583 2.760624683971363 -6.885405218249982e-08 7.982195762228721e-08 5.52124927734698" Properties=species:S:1:pos:R:3:forces:R:3 energy=-36.69402313232422 free_energy=-36.69402313232422 stress="0.0005828133434988558 -3.911116408517046e-08 -2.2130222987470916e-08 -3.911116408517046e-08 0.0005829548463225365 1.4450563412538031e-08 -2.2130222987470916e-08 1.4450563412538031e-08 0.0005829844740219414" pbc="T T T"
Li       1.59384745       1.12701980       2.76062499      -0.00000037      -0.00000091       0.00000091
Li       4.78154168       3.38106134       8.28187418       0.00000021       0.00000022       0.00000075
Pd      -0.00000008       0.00000015      -0.00000006       0.00000332      -0.00000558       0.00000864
F        1.57875249       1.11634652       5.52124916      -0.00431813      -0.00305370       0.00000027
F        4.79663671       3.39173505       5.52124918       0.00431834       0.00305455      -0.00000092
F        3.99216547       1.11634696       4.12786471       0.00216109      -0.00305627      -0.00374502
F        2.38322346       3.39173486       6.91463387      -0.00216063       0.00305618       0.00374252
F        2.38322361       3.39173467       4.12786464      -0.00216188       0.00305802      -0.00374637
F        3.99216578       1.11634687       6.91463369       0.00215808      -0.00305237       0.00373900
