9
Lattice="6.139280783389664 -3.208089815003742e-08 3.5445154049841143 2.046426908093217 5.788169417325461 3.544515386723432 -5.212717207627567e-08 -5.922411842867908e-08 7.089030900255154" Properties=species:S:1:pos:R:3:forces:R:3 energy=-24.32097625732422 free_energy=-24.32097625732422 stress="4.338264261605218e-05 3.6107652978678573e-10 3.5363185713066514e-09 3.6107652978678573e-10 4.338769576861523e-05 -9.531719857847065e-10 3.5363185713066514e-09 -9.531719857847065e-10 4.337312202551402e-05" pbc="T T T"
Li       2.04642695       1.44704264       3.54451561       0.00000034       0.00000052       0.00000154
Li       6.13928059       4.34112672      10.63354631      -0.00000039      -0.00000040      -0.00000119
P       -0.00000007      -0.00000018      -0.00000014      -0.00000017       0.00000095       0.00000016
Br       2.05196970       1.45096183       7.08903081      -0.00012656      -0.00009041      -0.00000013
Br       6.13373778       4.33720768       7.08903082       0.00012657       0.00008956       0.00000035
Br       5.11329590       1.45096191       5.32157316       0.00006318      -0.00008973      -0.00010924
Br       3.07241178       4.33720755       8.85648842      -0.00006288       0.00008936       0.00010912
Br       3.07241193       4.33720744       5.32157328      -0.00006358       0.00008962      -0.00010973
Br       5.11329595       1.45096166       8.85648853       0.00006349      -0.00008941       0.00010914
