9
Lattice="6.661421004104328 1.2654516063500297e-07 3.8459731286400607 2.220473752655673 6.280448030978802 3.8459731887196877 -2.4644232826091705e-08 5.61560966547796e-08 7.691946299965219" Properties=species:S:1:pos:R:3:forces:R:3 energy=-23.277973175048828 free_energy=-23.277973175048828 stress="0.0002479871327523142 1.2765544177284482e-08 -3.135895321193516e-09 1.2765544177284482e-08 0.0002479822433087975 2.7313822315022662e-09 -3.135895321193516e-09 2.7313822315022662e-09 0.0002479685063008219" pbc="T T T"
Li       2.22047356       1.57011219       3.84597340      -0.00000008      -0.00000008       0.00000013
Li       6.66142116       4.71033616      11.53791918       0.00000013      -0.00000002      -0.00000002
Pt       0.00000100       0.00000034       0.00000028      -0.00000773      -0.00000271      -0.00000290
I        2.22115282       1.57059239       7.69194617      -0.00794598      -0.00561855       0.00000007
I        6.66074110       4.70985515       7.69194640       0.00795198       0.00562353       0.00000025
I        5.55084440       1.57059271       5.76954811       0.00397408      -0.00562041      -0.00688325
I        3.33105018       4.70985557       9.61434442      -0.00397376       0.00562003       0.00688311
I        3.33105005       4.70985572       5.76954791      -0.00397288       0.00561909      -0.00688156
I        5.55084466       1.57059262       9.61434461       0.00397426      -0.00562090       0.00688414
