9
Lattice="5.001048430031108 1.2511598051380582e-07 2.8873567980142845 1.6670162501481256 4.715034178443577 2.8873568173371447 -1.732380855936425e-08 1.1415822389963937e-08 5.774713626034275" Properties=species:S:1:pos:R:3:forces:R:3 energy=-37.78651428222656 free_energy=-37.78651428222656 stress="0.0005014275666326284 5.8292524585112915e-08 5.423492410727704e-08 5.8292524585112915e-08 0.0005013386835344136 -5.2790475990605046e-08 5.423492410727704e-08 -5.2790475990605046e-08 0.0005013072513975203" pbc="T T T"
Li       1.66701567       1.17875846       2.88735699      -0.00000126       0.00000058       0.00000026
Li       5.00104879       3.53627626       8.66206985      -0.00000009       0.00000098      -0.00000058
Pb      -0.00000000       0.00000007       0.00000009       0.00000029       0.00000238       0.00000841
F        1.69709266       1.20002557       5.77471360      -0.00588153      -0.00416017       0.00000025
F        4.97097209       3.51500841       5.77471367       0.00588241       0.00415836       0.00000037
F        4.15250236       1.20002552       4.35708200       0.00293931      -0.00415716      -0.00509062
F        2.51556240       3.51500887       7.19234552      -0.00293659       0.00415210       0.00508653
F        2.51556219       3.51500856       4.35708219      -0.00294154       0.00415903      -0.00509441
F        4.15250252       1.20002565       7.19234511       0.00293902      -0.00415623       0.00508963
