9
Lattice="6.146493329377592 -3.339312994831778e-09 3.5486796131013736 2.0488311117661797 5.794969444259434 3.5486796042297453 4.005585247186707e-08 1.7458349542261373e-08 7.097359156823921" Properties=species:S:1:pos:R:3:forces:R:3 energy=-24.815031051635742 free_energy=-24.815031051635742 stress="0.00015989565872587264 3.726240205281783e-09 -1.6317098783247275e-09 3.726240205281783e-09 0.0001598913368070498 1.4337850906542826e-09 -1.6317098783247275e-09 1.4337850906542826e-09 0.00015989704115781933" pbc="T T T"
Li       2.04883110       1.44874215       3.54867970       0.00000031       0.00000027       0.00000004
Li       6.14649350       4.34622714      10.64603917       0.00000000       0.00000001       0.00000056
Pd      -0.00000000      -0.00000002      -0.00000020      -0.00000118       0.00000048       0.00000002
Br       2.04330186       1.44483268       7.09735920      -0.00187249      -0.00132501       0.00000022
Br       6.15202272       4.35013701       7.09735893       0.00187203       0.00132369      -0.00000007
Br       5.12484239       1.44483283       5.31823080       0.00093681      -0.00132451      -0.00162140
Br       3.07048178       4.35013695       8.87648759      -0.00093532       0.00132371       0.00162099
Br       3.07048209       4.35013667       5.31823082      -0.00093615       0.00132445      -0.00162094
Br       5.12484252       1.44483242       8.87648756       0.00093602      -0.00132315       0.00162064
