9
Lattice="6.720270565738824 -2.524541532791402e-08 3.8799500917120153 2.240090132467074 6.335931940393947 3.879950147676253 -3.221058855376815e-08 4.576553019543234e-08 7.7599002392144145" Properties=species:S:1:pos:R:3:forces:R:3 energy=-21.509742736816406 free_energy=-21.509742736816406 stress="-6.758632662240416e-05 -6.845327416016289e-09 8.498499126652348e-10 -6.845327416016289e-09 -6.75870687700808e-05 -3.0035374187775687e-09 8.498499126652348e-10 -3.0035374187775687e-09 -6.75771152600646e-05" pbc="T T T"
Li       2.24009025       1.58398273       3.87995016      -0.00000068      -0.00000098      -0.00000017
Li       6.72027054       4.75194914      11.63985037       0.00000046       0.00000092       0.00000029
P       -0.00000001      -0.00000000       0.00000019       0.00000045      -0.00000035       0.00000009
I        2.27363766       1.60770466       7.75990010       0.00577116       0.00408054      -0.00000013
I        6.68672324       4.72822741       7.75990024      -0.00577146      -0.00408102      -0.00000001
I        5.58345160       1.60770471       5.84897812      -0.00288534       0.00408075       0.00499818
I        3.37690894       4.72822717       9.67082232       0.00288517      -0.00407982      -0.00499786
I        3.37690887       4.72822733       5.84897822       0.00288523      -0.00408025       0.00499752
I        5.58345162       1.60770469       9.67082214      -0.00288498       0.00408026      -0.00499794
