9
Lattice="6.409267690525932 -6.022737011166915e-08 3.70039242412973 2.136422514567614 6.042715378044956 3.7003924105471717 1.8153537181792798e-08 -3.798652568672945e-09 7.400784816816615" Properties=species:S:1:pos:R:3:forces:R:3 energy=-23.57834243774414 free_energy=-23.57834243774414 stress="0.00023955118376761675 1.769762292269661e-08 -7.24751192393569e-09 1.769762292269661e-08 0.00023955116921570152 9.88102222265752e-09 -7.24751192393569e-09 9.88102222265752e-09 0.0002395481278654188" pbc="T T T"
Li       2.13642267       1.51067900       3.70039241       0.00000065       0.00000052       0.00000060
Li       6.40926728       4.53203623      11.10117717      -0.00000059      -0.00000091      -0.00000087
Pb       0.00000007       0.00000009       0.00000019      -0.00000017      -0.00000421      -0.00000028
Br       2.25102434       1.59171468       7.40078480      -0.00068073      -0.00048175       0.00000003
Br       6.29466605       4.45100082       7.40078492       0.00068337       0.00048278       0.00000007
Br       5.28375543       1.59171451       5.64983649       0.00034033      -0.00048125      -0.00058922
Br       3.26193472       4.45100081       9.15173290      -0.00034201       0.00048343       0.00059173
Br       3.26193491       4.45100065       5.64983674      -0.00034092       0.00048190      -0.00059088
Br       5.28375543       1.59171446       9.15173293       0.00034009      -0.00048049       0.00058872
