9
Lattice="5.803581697625193 1.1740718583913632e-07 3.3506994085911272 1.9345273337596216 5.4716693585820115 3.3506994250016926 4.158479007478098e-09 2.3039252591291988e-08 6.701398809979562" Properties=species:S:1:pos:R:3:forces:R:3 energy=-27.628114700317383 free_energy=-27.628114700317383 stress="-0.00023652261006645858 4.4616651706519406e-08 -5.4968785079267946e-09 4.4616651706519406e-08 -0.00023659277940168977 1.5453080592919832e-08 -5.4968785079267946e-09 1.5453080592919832e-08 -0.00023661524755880237" pbc="T T T"
Li       1.93452732       1.36791764       3.35069992       0.00000067      -0.00000001       0.00000051
Li       5.80358154       4.10375189      10.05209865       0.00000041      -0.00000051       0.00000031
P        0.00000028       0.00000003      -0.00000058      -0.00000418       0.00000248       0.00000673
Cl       1.88501272       1.33290506       6.70139869      -0.00157174      -0.00111172      -0.00000162
Cl       5.85309643       4.13876468       6.70139867       0.00157228       0.00111086      -0.00000056
Cl       4.86107566       1.33290510       4.98316762       0.00078454      -0.00110745      -0.00135830
Cl       2.87703319       4.13876442       8.41963009      -0.00078363       0.00110766       0.00135553
Cl       2.87703332       4.13876444       4.98316745      -0.00078265       0.00110595      -0.00135736
Cl       4.86107569       1.33290475       8.41963002       0.00078434      -0.00110721       0.00135476
