9
Lattice="5.869330215668698 8.191982459338323e-08 3.388659282938521 1.9564434173333702 5.533657693439969 3.3886593957371174 -9.170784975153631e-08 7.330226950045952e-08 6.777318724719646" Properties=species:S:1:pos:R:3:forces:R:3 energy=-28.845680236816406 free_energy=-28.845680236816406 stress="0.0002565010217949748 5.7838501987816926e-08 -1.8824783509785448e-08 5.7838501987816926e-08 0.00025653900229372084 3.4440009955005735e-08 -1.8824783509785448e-08 3.4440009955005735e-08 0.00025640803505666554" pbc="T T T"
Li       1.95644324       1.38341442       3.38865912      -0.00000050       0.00000037      -0.00000117
Li       5.86933029       4.15024312      10.16597808       0.00000075      -0.00000126       0.00000052
Pt      -0.00000010       0.00000023       0.00000029       0.00000181       0.00000007      -0.00000774
Cl       1.90898596       1.34985718       6.77731842      -0.00379999      -0.00268815      -0.00000129
Cl       5.91678769       4.18380077       6.77731806       0.00379844       0.00268669      -0.00000079
Cl       4.91483784       1.34985705       5.04188984       0.00189953      -0.00268409      -0.00328417
Cl       2.91093618       4.18380049       8.51274769      -0.00189812       0.00268635       0.00329135
Cl       2.91093582       4.18380107       5.04188965      -0.00189660       0.00268167      -0.00328338
Cl       4.91483721       1.34985710       8.51274844       0.00189472      -0.00268186       0.00328664
