9
Lattice="6.633439594868235 -6.553717477676187e-08 3.8298182740955635 2.2111465186634005 6.254066787864974 3.8298181895200694 8.290391297428274e-08 -4.496150687312359e-08 7.659636404597335" Properties=species:S:1:pos:R:3:forces:R:3 energy=-22.29970932006836 free_energy=-22.29970932006836 stress="9.698401117930189e-05 3.096219114429033e-10 4.997257274652611e-09 3.096219114429033e-10 9.698847134131938e-05 -3.4289011630050936e-09 4.997257274652611e-09 -3.4289011630050936e-09 9.69810425885953e-05" pbc="T T T"
Li       2.21114656       1.56351689       3.82981803       0.00000068       0.00000008      -0.00000061
Li       6.63343969       4.69054994      11.48945478      -0.00000023       0.00000007       0.00000101
Pd       0.00000049      -0.00000008      -0.00000034      -0.00000462      -0.00000192       0.00000590
I        2.23435208       1.57992543       7.65963625      -0.00256424      -0.00181355      -0.00000030
I        6.61023375       4.67414102       7.65963646       0.00256836       0.00181603       0.00000017
I        5.51626342       1.57992575       5.76482435       0.00128459      -0.00181606      -0.00222455
I        3.32832249       4.67414116       9.55444887      -0.00128269       0.00181294       0.00222104
I        3.32832285       4.67414104       5.76482433      -0.00128422       0.00181627      -0.00222441
I        5.51626348       1.57992554       9.55444875       0.00128237      -0.00181385       0.00222175
