9
Lattice="4.598644794438687 -3.156810356090241e-08 2.6550290168825077 1.532881554340301 4.335644450777692 2.655029041206099 -4.7816204161370154e-08 -4.020939563335135e-09 5.310058116585106" Properties=species:S:1:pos:R:3:forces:R:3 energy=-42.1387825012207 free_energy=-42.1387825012207 stress="-1.9378099750611e-05 3.9180179101094836e-08 2.6977980738251972e-08 3.9180179101094836e-08 -1.9312137737870216e-05 6.006895603150042e-08 2.6977980738251972e-08 6.006895603150042e-08 -1.918165071401745e-05" pbc="T T T"
Li       1.53288070       1.08391067       2.65502878      -0.00000158      -0.00000361      -0.00000091
Li       4.59864539       3.25173346       7.96508692       0.00000098       0.00000213       0.00000032
P        0.00000006       0.00000008       0.00000022       0.00000077      -0.00000032      -0.00000040
F        1.38303052       0.97795000       5.31005836      -0.00027990      -0.00019759      -0.00000052
F        4.74849518       3.35769472       5.31005786       0.00028396       0.00019759       0.00000110
F        3.90712978       0.97795003       3.85276921       0.00013995      -0.00019830      -0.00024581
F        2.22439691       3.35769450       6.76734734      -0.00014311       0.00019968       0.00024551
F        2.22439661       3.35769462       3.85276919      -0.00014317       0.00019783      -0.00024581
F        3.90712982       0.97795003       6.76734739       0.00014192      -0.00019789       0.00024492
