9
Lattice="4.8407421120948255 2.1193772455591776e-08 2.794803552591492 1.613580685470878 4.563895296973152 2.794803619348885 -8.90530240616527e-08 1.8790751297157746e-08 5.58960725942738" Properties=species:S:1:pos:R:3:forces:R:3 energy=-42.65792465209961 free_energy=-42.65792465209961 stress="0.00036018615355715156 3.9235956705852004e-08 -3.64919761075555e-09 3.9235956705852004e-08 0.00036015058867633343 -1.8057334516541346e-09 -3.64919761075555e-09 -1.8057334516541346e-09 0.00036012762575410306" pbc="T T T"
Li       1.61358073       1.14097364       2.79480379       0.00000031      -0.00000090       0.00000074
Li       4.84074231       3.42292210       8.38441060      -0.00000010       0.00000153      -0.00000014
Ru      -0.00000002      -0.00000019       0.00000001      -0.00000419       0.00000486       0.00000478
F        1.58132779       1.11816793       5.58960720      -0.00362973      -0.00256717       0.00000021
F        4.87299459       3.44572738       5.58960736       0.00363231       0.00256725      -0.00000031
F        4.05007772       1.11816761       4.16427378       0.00181430      -0.00256795      -0.00314335
F        2.40424492       3.44572797       7.01494086      -0.00181230       0.00256239       0.00313895
F        2.40424470       3.44572743       4.16427378      -0.00181393       0.00256553      -0.00314199
F        4.05007814       1.11816731       7.01494056       0.00181339      -0.00256549       0.00314104
