9
Lattice="5.944087795123472 7.378474576966346e-08 3.4318208141009325 1.981362680146265 5.604139664194293 3.431820792958067 2.4653172958198168e-08 -8.462182042540355e-09 6.863641585501279" Properties=species:S:1:pos:R:3:forces:R:3 energy=-35.56134033203125 free_energy=-35.56134033203125 stress="0.0003276367497164756 1.4547365978501148e-08 1.5286538701531072e-09 1.4547365978501148e-08 0.0003276312199886888 2.928373765698211e-09 1.5286538701531072e-09 2.928373765698211e-09 0.0003276229545008391" pbc="T T T"
Li       1.98136244       1.40103499       3.43182085      -0.00000047      -0.00000020       0.00000031
Li       5.94408754       4.20310472      10.29546255      -0.00000078       0.00000021       0.00000118
Re      -0.00000009      -0.00000026       0.00000044      -0.00000027       0.00000659      -0.00000714
Cl       1.92727239       1.36278712       6.86364149      -0.00482506      -0.00341114       0.00000014
Cl       5.99817843       4.24135266       6.86364147       0.00482172       0.00340892       0.00000084
Cl       4.98045182       1.36278722       5.10088757       0.00241221      -0.00341062      -0.00417784
Cl       2.94499875       4.24135248       8.62639550      -0.00241111       0.00341028       0.00417674
Cl       2.94499903       4.24135276       5.10088751      -0.00240897       0.00340736      -0.00417328
Cl       4.98045170       1.36278715       8.62639536       0.00241272      -0.00341143       0.00417954
