9
Lattice="4.818546668582525 -4.006180741580999e-08 2.7819892158677533 1.606182224549659 4.542968991533419 2.781989147521908 7.763929207110958e-08 -2.8806913948797444e-08 5.563978297260315" Properties=species:S:1:pos:R:3:forces:R:3 energy=-39.858394622802734 free_energy=-39.858394622802734 stress="0.0005797719350084662 5.035577288481363e-08 1.491397050301657e-08 5.035577288481363e-08 0.0005796877667307854 -5.450935347539598e-08 1.491397050301657e-08 -5.450935347539598e-08 0.0005797111662104726" pbc="T T T"
Li       1.60618252       1.13574255       2.78198918       0.00000105       0.00000144       0.00000028
Li       4.81854671       3.40722684       8.34596796       0.00000000      -0.00000001       0.00000174
Rh      -0.00000009       0.00000015       0.00000005       0.00000031      -0.00001130       0.00000782
F        1.57867971       1.11629508       5.56397818      -0.00583440      -0.00412441      -0.00000015
F        4.84604932       3.42667354       5.56397821       0.00583893       0.00412801      -0.00000076
F        4.02920663       1.11629481       4.14916584       0.00291587      -0.00412324      -0.00505041
F        2.39552200       3.42667430       6.97879090      -0.00291603       0.00412282       0.00504978
F        2.39552250       3.42667385       4.14916583      -0.00291919       0.00412831      -0.00505684
F        4.02920677       1.11629459       6.97879065       0.00291356      -0.00412168       0.00504859
