9
Lattice="5.852670919491608 -1.4893657797822695e-07 3.3790413452378902 1.9508902627697824 5.517951054083629 3.3790411777635283 4.3099568770840696e-08 -1.746373330647271e-07 6.758082615825146" Properties=species:S:1:pos:R:3:forces:R:3 energy=-32.124671936035156 free_energy=-32.124671936035156 stress="0.00016993361350614578 -3.8676638780543726e-08 2.991273717611875e-08 -3.8676638780543726e-08 0.00016989983851090074 -3.813114801687334e-08 2.991273717611875e-08 -3.813114801687334e-08 0.0001699267013464123" pbc="T T T"
Li       1.95089020       1.37948779       3.37904143      -0.00000048      -0.00000062      -0.00000034
Li       5.85267075       4.13846311      10.13712384       0.00000023       0.00000006      -0.00000134
Ru       0.00000014      -0.00000050       0.00000043      -0.00000293       0.00000764      -0.00000815
Cl       1.90664486       1.34820121       6.75808281      -0.00315505      -0.00223088      -0.00000052
Cl       5.89691655       4.16974980       6.75808333       0.00315353       0.00222844      -0.00000178
Cl       4.89934846       1.34820100       5.03024414       0.00157768      -0.00222880      -0.00273147
Cl       2.90421297       4.16974931       8.48592032      -0.00157931       0.00223282       0.00273481
Cl       2.90421281       4.16974925       5.03024452      -0.00157601       0.00222918      -0.00273210
Cl       4.89934819       1.34820184       8.48591973       0.00158232      -0.00223771       0.00274107
