9
Lattice="4.92711048880261 -4.2528712785980835e-08 2.8446684046477544 1.6423701027697102 4.6453244119596855 2.8446684394065462 -1.3181565367992876e-07 -5.063701143709749e-08 5.689337037606862" Properties=species:S:1:pos:R:3:forces:R:3 energy=-47.03011703491211 free_energy=-47.03011703491211 stress="0.00016985618276521564 1.4606914788828362e-08 -1.52762336114165e-08 1.4606914788828362e-08 0.0001698190753813833 1.0418017559743475e-09 -1.52762336114165e-08 1.0418017559743475e-09 0.00016982314991764724" pbc="T T T"
Li       1.64236988       1.16133093       2.84466844       0.00000008      -0.00000109       0.00000059
Li       4.92711078       3.48399311       8.53400571      -0.00000023       0.00000037       0.00000109
Re      -0.00000015      -0.00000006       0.00000007      -0.00000562       0.00000147      -0.00001581
F        1.60885037       1.13762911       5.68933679      -0.00223657      -0.00157999       0.00000033
F        4.96062971       3.50769524       5.68933698       0.00223941       0.00158238      -0.00000101
F        4.12268506       1.13762884       4.23797384       0.00111767      -0.00157881      -0.00193376
F        2.44679532       3.50769557       7.14069994      -0.00112082       0.00158375       0.00193875
F        2.44679571       3.50769541       4.23797342      -0.00111446       0.00157657      -0.00193118
F        4.12268509       1.13762908       7.14070010       0.00112053      -0.00158475       0.00194094
