9
Lattice="6.211803841855975 -1.3628562213918024e-08 3.5863866316423674 2.0706012906343476 5.856544808253666 3.586386592039332 3.545933525406212e-08 -2.3430148688456163e-08 7.172773201867402" Properties=species:S:1:pos:R:3:forces:R:3 energy=-28.937536239624023 free_energy=-28.937536239624023 stress="9.827074245549738e-05 9.04395314194062e-09 -5.026345561987e-09 9.04395314194062e-09 9.827735630096868e-05 1.2560021467322713e-08 -5.026345561987e-09 1.2560021467322713e-08 9.824727021623403e-05" pbc="T T T"
Li       2.07060119       1.46413634       3.58638652       0.00000083      -0.00000014      -0.00000020
Li       6.21180385       4.39240844      10.75915995      -0.00000076       0.00000006      -0.00000001
Ru       0.00000020      -0.00000000      -0.00000004      -0.00000031       0.00000082      -0.00000123
Br       2.03511928       1.43904650       7.17277333      -0.00040276      -0.00028517      -0.00000035
Br       6.24728575       4.41749819       7.17277323       0.00040310       0.00028547      -0.00000013
Br       5.19424459       1.43904634       5.34885119       0.00020086      -0.00028444      -0.00034802
Br       3.08816081       4.41749822       8.99669527      -0.00020186       0.00028538       0.00034862
Br       3.08816075       4.41749836       5.34885119      -0.00020038       0.00028300      -0.00034646
Br       5.19424431       1.43904664       8.99669512       0.00020128      -0.00028500       0.00034770
