9
Lattice="6.665717226359039 -1.039650135263842e-08 3.848453605561022 2.221905726759981 6.284498453748742 3.8484536151873816 -8.872934250435315e-08 -5.095131059034783e-08 7.696907364805829" Properties=species:S:1:pos:R:3:forces:R:3 energy=-25.666568756103516 free_energy=-25.666568756103516 stress="4.613208875525743e-05 -1.6582319961599978e-09 -3.614213650582343e-10 -1.6582319961599978e-09 4.6144086809363216e-05 -1.1915577413645906e-09 -3.614213650582343e-10 -1.1915577413645906e-09 4.6141562052071095e-05" pbc="T T T"
Li       2.22190563       1.57112450       3.84845374      -0.00000015       0.00000052       0.00000077
Li       6.66571733       4.71337384      11.54536090       0.00000026      -0.00000027      -0.00000068
Ru      -0.00000024       0.00000006      -0.00000029       0.00000073      -0.00000100       0.00000231
I        2.21511024       1.56631968       7.69690714      -0.00023068      -0.00016377      -0.00000021
I        6.67251248       4.71817880       7.69690754       0.00023118       0.00016384      -0.00000013
I        5.55816204       1.56631934       5.76679544       0.00011534      -0.00016364      -0.00020090
I        3.32946100       4.71817891       9.62701918      -0.00011580       0.00016356       0.00020055
I        3.32946080       4.71817883       5.76679567      -0.00011579       0.00016453      -0.00020162
I        5.55816215       1.56631960       9.62701902       0.00011497      -0.00016360       0.00019982
