9
Lattice="4.962731877279076 8.692287314637494e-08 2.8652344960483784 1.6542440634416251 4.678908373926708 2.865234457255838 1.6939914609616026e-07 7.227222370614829e-08 5.730468698688939" Properties=species:S:1:pos:R:3:forces:R:3 energy=-40.88593673706055 free_energy=-40.88593673706055 stress="0.000362238846719265 -3.4312474639364154e-08 -1.8333029538908363e-09 -3.4312474639364154e-08 0.0003623185330070555 -2.2043534997351344e-08 -1.8333029538908363e-09 -2.2043534997351344e-08 0.0003623593656811863" pbc="T T T"
Li       1.65424369       1.16972662       2.86523479      -0.00000095      -0.00000046       0.00000087
Li       4.96273201       3.50918139       8.59570338       0.00000001       0.00000005      -0.00000021
Sn       0.00000000       0.00000000       0.00000021       0.00000297       0.00000319      -0.00000158
F        1.61851440       1.14446205       5.73046889      -0.00359526      -0.00254300       0.00000009
F        4.99846163       3.53444648       5.73046853       0.00359219       0.00254110      -0.00000074
F        4.15347514       1.14446245       4.26690892       0.00179860      -0.00254297      -0.00311428
F        2.46350124       3.53444654       7.19402851      -0.00179873       0.00254342       0.00311446
F        2.46350100       3.53444577       4.26690877      -0.00179797       0.00254247      -0.00311470
F        4.15347536       1.14446305       7.19402868       0.00179903      -0.00254369       0.00311583
