9
Lattice="6.668644155133488 -5.8789197559920915e-09 3.850143541878726 2.2228813700429564 6.287257997322395 3.850143558261896 5.284424602970098e-08 5.743175371631469e-08 7.700286992228554" Properties=species:S:1:pos:R:3:forces:R:3 energy=-18.949296951293945 free_energy=-18.949296951293945 stress="7.026704406598583e-05 -4.761773642059097e-09 -3.906623469163151e-09 -4.761773642059097e-09 7.02634351910092e-05 -1.9471544376870042e-09 -3.906623469163151e-09 -1.9471544376870042e-09 7.02760589774698e-05" pbc="T T T"
Li       2.22288139       1.57181428       3.85014347      -0.00000060      -0.00000054       0.00000007
Li       6.66864429       4.71544375      11.55043050       0.00000015       0.00000041      -0.00000019
S       -0.00000061      -0.00000023      -0.00000053      -0.00000117       0.00000014      -0.00000192
I        2.35770610       1.66715016       7.70028730      -0.00383811      -0.00271380       0.00000006
I        6.53381968       4.62010802       7.70028737       0.00383905       0.00271438       0.00000003
I        5.48979104       1.66714979       5.89197691       0.00191928      -0.00271454      -0.00332412
I        3.40173487       4.62010813       9.50859740      -0.00191959       0.00271493       0.00332472
I        3.40173431       4.62010841       5.89197662      -0.00191909       0.00271416      -0.00332361
I        5.48979125       1.66714987       9.50859728       0.00192010      -0.00271510       0.00332493
