9
Lattice="4.994779732337424 2.1530284516064456e-07 2.8837373308064396 1.6649266269772713 4.709124112519823 2.8837375966035323 -7.067896287107368e-08 2.755560155492721e-07 5.76747478403248" Properties=species:S:1:pos:R:3:forces:R:3 energy=-36.315032958984375 free_energy=-36.315032958984375 stress="0.0005035058711655438 2.4549605015522502e-08 -1.5775309947230198e-08 2.4549605015522502e-08 0.000503481540363282 2.858762471191767e-08 -1.5775309947230198e-08 2.858762471191767e-08 0.0005034760688431561" pbc="T T T"
Li       1.66492711       1.17728031       2.88373747       0.00000049      -0.00000082      -0.00000030
Li       4.99477995       3.53184201       8.65121219       0.00000059      -0.00000420       0.00000024
Se      -0.00000019       0.00000023      -0.00000003       0.00000434      -0.00000313       0.00000407
F        1.59883442       1.13054860       5.76747496      -0.00491588      -0.00347260      -0.00000035
F        5.06087128       3.57857618       5.76747466       0.00491479       0.00347649       0.00000046
F        4.19536169       1.13054855       4.26836878       0.00245598      -0.00347510      -0.00425657
F        2.46434437       3.57857746       7.26658054      -0.00245630       0.00347505       0.00425508
F        2.46434452       3.57857709       4.26836960      -0.00245823       0.00347554      -0.00425524
F        4.19536195       1.13054814       7.26658072       0.00245424      -0.00347134       0.00425258
