9
Lattice="5.862717194584126 2.9449680329381606e-08 3.3848412782145583 1.9542390729884143 5.527422932511847 3.384841312229182 -5.027087929423024e-08 6.112383538232906e-09 6.76968264350081" Properties=species:S:1:pos:R:3:forces:R:3 energy=-24.770601272583008 free_energy=-24.770601272583008 stress="-8.81786472746171e-05 5.110873946279071e-09 2.641161955807547e-09 5.110873946279071e-09 -8.818126661935821e-05 3.4886884492379977e-09 2.641161955807547e-09 3.4886884492379977e-09 -8.819292997941375e-05" pbc="T T T"
Li       1.95423912       1.38185625       3.38484132       0.00000025       0.00000012      -0.00000042
Li       5.86271717       4.14556714      10.15452391      -0.00000058      -0.00000048      -0.00000033
S       -0.00000013       0.00000006      -0.00000043       0.00000141      -0.00000098       0.00000565
Cl       1.93152594       1.36579522       6.76968283      -0.00228450      -0.00161603      -0.00000149
Cl       5.88542994       4.16162756       6.76968284       0.00228512       0.00161552      -0.00000145
Cl       4.89695426       1.36579500       5.05759158       0.00114179      -0.00161472      -0.00197759
Cl       2.92000213       4.16162765       8.48177351      -0.00114208       0.00161514       0.00197789
Cl       2.92000207       4.16162795       5.05759174      -0.00114287       0.00161606      -0.00197881
Cl       4.89695434       1.36579503       8.48177343       0.00114165      -0.00161463       0.00197673
