9
Lattice="6.933615170374989 -5.8145067078702225e-09 4.003124556508451 2.311205069022833 6.537075107617853 4.003124525828427 -5.758120376261984e-09 -4.1646822591590136e-08 8.0062491229903" Properties=species:S:1:pos:R:3:forces:R:3 energy=-21.670907974243164 free_energy=-21.670907974243164 stress="7.756787090329453e-05 -1.9349772895083106e-09 -2.6518565121591564e-09 -1.9349772895083106e-09 7.758066931273788e-05 1.9877219870068075e-09 -2.6518565121591564e-09 1.9877219870068075e-09 7.757506682537496e-05" pbc="T T T"
Li       2.31120486       1.63426881       4.00312434      -0.00000009      -0.00000020      -0.00000087
Li       6.93361529       4.90280608      12.00937384       0.00000030      -0.00000031      -0.00000085
Sn      -0.00000016      -0.00000011      -0.00000003       0.00000003       0.00000004      -0.00000158
I        2.40406996       1.69993421       8.00624922       0.00024897       0.00017647       0.00000024
I        6.84075042       4.83714103       8.00624903      -0.00024945      -0.00017607       0.00000028
I        5.73158034       1.69993398       6.08511015      -0.00012404       0.00017588       0.00021651
I        3.51323994       4.83714109       9.92738807       0.00012426      -0.00017615      -0.00021482
I        3.51324004       4.83714093       6.08511010       0.00012457      -0.00017603       0.00021620
I        5.73158022       1.69993418       9.92738809      -0.00012463       0.00017637      -0.00021499
