9
Lattice="5.949560266073096 -1.3853094546237135e-07 3.4349803828218275 1.983186620471916 5.609299018186822 3.434980390230686 2.28590828298641e-08 2.5237865073656722e-08 6.869960726050709" Properties=species:S:1:pos:R:3:forces:R:3 energy=-25.10741424560547 free_energy=-25.10741424560547 stress="-4.462625383894192e-06 -1.9721193567079354e-08 3.6757201726800304e-09 -1.9721193567079354e-08 -4.43505132352584e-06 -2.845486957170351e-09 3.6757201726800304e-09 -2.845486957170351e-09 -4.384803105494939e-06" pbc="T T T"
Li       1.98318680       1.40232474       3.43498018      -0.00000044       0.00000011      -0.00000047
Li       5.94956014       4.20697434      10.30494142       0.00000043       0.00000041      -0.00000003
Se       0.00000022       0.00000024      -0.00000046       0.00000083      -0.00000223       0.00000324
Cl       1.97930979       1.39958318       6.86996069      -0.00501778      -0.00354885      -0.00000012
Cl       5.95343731       4.20971546       6.86996059       0.00501756       0.00354874      -0.00000049
Cl       4.95990519       1.39958353       5.14911348       0.00251036      -0.00355069      -0.00434904
Cl       2.97284146       4.20971539       8.59080832      -0.00250998       0.00355067       0.00434862
Cl       2.97284163       4.20971548       5.14911346      -0.00251055       0.00355196      -0.00434992
Cl       4.95990511       1.39958324       8.59080826       0.00250958      -0.00355008       0.00434818
