9
Lattice="6.1000745276655115 5.0942414186277865e-08 3.521879644393608 2.033358218163713 5.751205443651761 3.5218796543594224 3.098800262064662e-08 3.4117377660557266e-08 7.04375923511446" Properties=species:S:1:pos:R:3:forces:R:3 energy=-21.7318115234375 free_energy=-21.7318115234375 stress="8.704761421540752e-05 4.219945282102344e-09 -4.9357629094970434e-09 4.219945282102344e-09 8.704997890163213e-05 7.929479295398778e-09 -4.9357629094970434e-09 7.929479295398778e-09 8.704808715265244e-05" pbc="T T T"
Li       2.03335827       1.43780105       3.52187973       0.00000000      -0.00000048       0.00000034
Li       6.10007467       4.31340445      10.56563898       0.00000033       0.00000053      -0.00000075
S       -0.00000023       0.00000025      -0.00000037      -0.00000056      -0.00000049       0.00000040
Br       2.07317279       1.46595441       7.04375918      -0.00021324      -0.00015115       0.00000043
Br       6.06026016       4.28525089       7.04375930       0.00021355       0.00015147       0.00000037
Br       5.06348822       1.46595455       5.31729989       0.00010657      -0.00015182      -0.00018579
Br       3.06994445       4.28525101       8.77021886      -0.00010664       0.00015125       0.00018494
Br       3.06994453       4.28525093       5.31729969      -0.00010667       0.00015157      -0.00018466
Br       5.06348827       1.46595451       8.77021890       0.00010661      -0.00015092       0.00018473
