9
Lattice="6.099250171661083 -2.095294558243745e-08 3.5214036926467798 2.0330833685194247 5.7504281818997525 3.5214036965952387 -1.4246924452309925e-08 -5.2382947943518015e-09 7.042807409969868" Properties=species:S:1:pos:R:3:forces:R:3 energy=-26.567615509033203 free_energy=-26.567615509033203 stress="0.0001717144768917933 1.1042272873851289e-08 -5.8980411665743304e-09 1.1042272873851289e-08 0.0001717002160148695 1.3259192854775392e-08 -5.8980411665743304e-09 1.3259192854775392e-08 0.00017173193919006735" pbc="T T T"
Li       2.03308345       1.43760702       3.52140371       0.00000001      -0.00000051      -0.00000012
Li       6.09925011       4.31282126      10.56421103       0.00000034       0.00000062      -0.00000039
Si       0.00000012       0.00000017       0.00000013      -0.00000273      -0.00000320      -0.00000077
Br       1.97069851       1.39349427       7.04280756      -0.00076917      -0.00054425      -0.00000099
Br       6.16163452       4.35693359       7.04280752       0.00077533       0.00054657      -0.00000034
Br       5.11390112       1.39349420       5.22807873       0.00038437      -0.00054412      -0.00066637
Br       3.01843282       4.35693369       8.85753549      -0.00038767       0.00054652       0.00067109
Br       3.01843264       4.35693405       5.22807900      -0.00038566       0.00054343      -0.00066916
Br       5.11390086       1.39349428       8.85753587       0.00038529      -0.00054498       0.00066701
