9
Lattice="4.774418194270554 -3.6098258538110204e-08 2.7565112736508293 1.5914726200247358 4.501364844876822 2.756511407651093 -3.060637472835745e-07 -5.2303675253750374e-08 5.513023077419244" Properties=species:S:1:pos:R:3:forces:R:3 energy=-35.7279052734375 free_energy=-35.7279052734375 stress="-3.911810563295148e-05 6.947940534018926e-08 2.694676481951319e-08 6.947940534018926e-08 -3.9147860661614686e-05 -2.32472641137349e-09 2.694676481951319e-08 -2.32472641137349e-09 -3.921039751730859e-05" pbc="T T T"
Li       1.59147210       1.12534053       2.75651232      -0.00000121      -0.00000181       0.00000290
Li       4.77441656       3.37602374       8.26953276      -0.00000275       0.00000093      -0.00000341
S        0.00000021      -0.00000002      -0.00000016      -0.00000235       0.00000538       0.00000656
F        1.53921597       1.08838993       5.51302255      -0.00050123      -0.00035703      -0.00000235
F        4.82667509       3.41297537       5.51302388       0.00050125       0.00035347      -0.00000044
F        4.00481030       1.08838965       4.08951086       0.00024845      -0.00035135      -0.00043048
F        2.36108056       3.41297577       6.93653486      -0.00024509       0.00034882       0.00042784
F        2.36108003       3.41297457       4.08951115      -0.00024683       0.00035150      -0.00043073
F        4.00481104       1.08838943       6.93653458       0.00024981      -0.00034991       0.00043024
