9
Lattice="5.996999622416683 4.8392792647627576e-08 3.4623693456761093 1.9989999280076678 5.654025398829242 3.4623693313977597 -1.898169980702604e-08 -3.090943067193686e-08 6.924738724229525" Properties=species:S:1:pos:R:3:forces:R:3 energy=-28.88225555419922 free_energy=-28.88225555419922 stress="6.287400901783258e-05 2.9777433852018476e-08 -9.365558995000356e-09 2.9777433852018476e-08 6.281569949351251e-05 -7.595174267294169e-09 -9.365558995000356e-09 -7.595174267294169e-09 6.283956463448703e-05" pbc="T T T"
Li       1.99899980       1.41350636       3.46236928      -0.00000010       0.00000063      -0.00000022
Li       5.99699954       4.24051916      10.38710797       0.00000114       0.00000021       0.00000062
Sn      -0.00000009       0.00000018       0.00000010      -0.00000019      -0.00000346      -0.00000244
Cl       2.00647848       1.41879461       6.92473872      -0.00036400      -0.00025755      -0.00000023
Cl       5.98952123       4.23523078       6.92473873       0.00036541       0.00025798       0.00000057
Cl       4.99376047       1.41879405       5.20003046       0.00017960      -0.00025535      -0.00031313
Cl       3.00223912       4.23523102       8.64944696      -0.00018250       0.00025807       0.00031605
Cl       3.00223906       4.23523118       5.20003073      -0.00018113       0.00025740      -0.00031500
Cl       4.99376053       1.41879429       8.64944669       0.00018179      -0.00025798       0.00031369
