9
Lattice="5.722522552530029 -6.082875762910163e-08 3.3038999616915143 1.9075074525648874 5.395246198262716 3.3038999748467024 5.8093751864285725e-08 5.719024420388103e-08 6.607799822761717" Properties=species:S:1:pos:R:3:forces:R:3 energy=-31.041563034057617 free_energy=-31.041563034057617 stress="-2.9386628739302978e-05 -4.078738058410636e-08 -2.0650559040547023e-09 -4.078738058410636e-08 -2.942844366771169e-05 -1.2072619348657554e-08 -2.0650559040547023e-09 -1.2072619348657554e-08 -2.9398503102129325e-05" pbc="T T T"
Li       1.90750737       1.34881158       3.30389976       0.00000001      -0.00000040       0.00000014
Li       5.72252270       4.04643503       9.91169968      -0.00000051       0.00000055      -0.00000089
Si       0.00000006       0.00000010       0.00000028      -0.00000613      -0.00000321      -0.00000941
Cl       1.80638461       1.27730662       6.60779973      -0.00049174      -0.00034657       0.00000037
Cl       5.82364449       4.11793911       6.60780004       0.00050376       0.00035400      -0.00000047
Cl       4.81933018       1.27730701       4.86827505       0.00024731      -0.00035075      -0.00042836
Cl       2.81070043       4.11793904       8.34732474      -0.00025390       0.00035358       0.00043404
Cl       2.81070032       4.11793885       4.86827519      -0.00024958       0.00034899      -0.00042929
Cl       4.81932996       1.27730750       8.34732454       0.00025092      -0.00035628       0.00043418
