9
Lattice="6.3249432961212975 -6.271570550798037e-09 3.651707813566683 2.1083144421765967 5.963213680881746 3.6517077857689446 2.6619999519075166e-08 -1.5221960447338567e-08 7.303415581026148" Properties=species:S:1:pos:R:3:forces:R:3 energy=-21.83658218383789 free_energy=-21.83658218383789 stress="-0.00012258881179150194 -4.827102051407905e-10 2.6710078593339404e-09 -4.827102051407905e-10 -0.00012258131755515933 -4.8621759951572585e-09 2.6710078593339404e-09 -4.8621759951572585e-09 -0.00012258543574716896" pbc="T T T"
Li       2.10831437       1.49080362       3.65170783      -0.00000054       0.00000054      -0.00000005
Li       6.32494319       4.47241004      10.95512338       0.00000006      -0.00000039      -0.00000081
Se      -0.00000018       0.00000000      -0.00000043       0.00000038      -0.00000016       0.00000096
Br       2.13574706       1.51020131       7.30341566       0.00140175       0.00099088       0.00000001
Br       6.29751074       4.45301238       7.30341557      -0.00140158      -0.00099138       0.00000057
Br       5.25706982       1.51020139       5.50131890      -0.00070059       0.00099044       0.00121348
Br       3.17618789       4.45301228       9.10551236       0.00070130      -0.00099132      -0.00121369
Br       3.17618822       4.45301248       5.50131922       0.00070021      -0.00099013       0.00121356
Br       5.25706998       1.51020113       9.10551222      -0.00070092       0.00099155      -0.00121403
