9
Lattice="4.561132723991635 2.635136172216725e-08 2.6333710903388448 1.5203776107427445 4.300277618744667 2.6333710708799627 -1.8622853799600806e-08 -3.700046420642862e-08 5.266742212933335" Properties=species:S:1:pos:R:3:forces:R:3 energy=-46.577110290527344 free_energy=-46.577110290527344 stress="0.00021782585827168077 -4.226495065040581e-08 1.2467668675242294e-08 -4.226495065040581e-08 0.0002179838775191456 3.869548947932344e-08 1.2467668675242294e-08 3.869548947932344e-08 0.00021777203073725104" pbc="T T T"
Li       1.52037807       1.07506973       2.63337079       0.00000038       0.00000113      -0.00000012
Li       4.56113258       3.22520912       7.90011337      -0.00000061       0.00000190       0.00000154
Si      -0.00000003      -0.00000012       0.00000014      -0.00000370      -0.00000313      -0.00000226
F        1.39311561       0.98508082       5.26674226      -0.00252640      -0.00178716       0.00000186
F        4.68839504       3.31519615       5.26674187       0.00252458       0.00178942       0.00000257
F        3.86457478       0.98508182       3.83984432       0.00126688      -0.00179249      -0.00218883
F        2.21693496       3.31519603       6.69363995      -0.00126028       0.00178516       0.00218612
F        2.21693514       3.31519571       3.83984445      -0.00126474       0.00179082      -0.00218698
F        3.86457524       0.98508119       6.69363976       0.00126395      -0.00178561       0.00218660
