9
Lattice="6.793554467878887 1.9525846155952602e-08 3.922260472182165 2.264518131198409 6.405024652449758 3.9222605469554512 -5.0476466671146745e-08 5.588594275919398e-08 7.844521031792119" Properties=species:S:1:pos:R:3:forces:R:3 energy=-19.26490592956543 free_energy=-19.26490592956543 stress="0.0001021363859763369 -5.181045814595109e-09 2.2408401800788624e-09 -5.181045814595109e-09 0.00010214924259344116 -3.942504545051406e-09 2.2408401800788624e-09 -3.942504545051406e-09 0.00010215018119197339" pbc="T T T"
Li       2.26451798       1.60125606       3.92226057      -0.00000028      -0.00000036      -0.00000019
Li       6.79355442       4.80376846      11.76678148       0.00000026       0.00000011      -0.00000009
Se      -0.00000000       0.00000016      -0.00000004      -0.00000023      -0.00000062      -0.00000077
I        2.37615895       1.68019821       7.84452107      -0.00080928      -0.00057260      -0.00000018
I        6.68191367       4.72482656       7.84452110       0.00080927       0.00057281       0.00000018
I        5.60547495       1.68019820       5.98007447       0.00040476      -0.00057260      -0.00070119
I        3.45259762       4.72482657       9.70896745      -0.00040476       0.00057317       0.00070152
I        3.45259761       4.72482653       5.98007453      -0.00040441       0.00057284      -0.00070095
I        5.60547500       1.68019817       9.70896756       0.00040473      -0.00057279       0.00070159
