9
Lattice="6.3040517718421 3.2324063727017354e-08 3.6396459030818136 2.1013506019456907 5.943517046638975 3.6396459362397793 -2.970911057677289e-08 1.9602540186126218e-08 7.2792918576213115" Properties=species:S:1:pos:R:3:forces:R:3 energy=-25.223508834838867 free_energy=-25.223508834838867 stress="0.00020325646619312465 -1.2701592000397e-09 -7.769144438896092e-09 -1.2701592000397e-09 0.00020325463265180588 1.7659123940916288e-08 -7.769144438896092e-09 1.7659123940916288e-08 0.00020325060177128762" pbc="T T T"
Li       2.10135052       1.48587940       3.63964607       0.00000010       0.00000000       0.00000003
Li       6.30405194       4.45763765      10.91893773       0.00000008       0.00000015       0.00000009
Sn      -0.00000039      -0.00000046      -0.00000038       0.00000484       0.00000766       0.00000175
Br       2.14429860       1.51624821       7.27929184      -0.00267632      -0.00189200      -0.00000011
Br       6.26110416       4.42726931       7.27929186       0.00266900       0.00188710       0.00000060
Br       5.23190245       1.51624805       5.49666276       0.00133781      -0.00189207      -0.00231657
Br       3.17349971       4.42726943       9.06192126      -0.00133551       0.00188894       0.00231302
Br       3.17349959       4.42726925       5.49666233      -0.00133611       0.00188929      -0.00231273
Br       5.23190280       1.51624756       9.06192135       0.00133612      -0.00188901       0.00231397
