9
Lattice="6.973561146167751 8.036523691171564e-08 4.026187361807892 2.3245204670656703 6.57473643400852 4.026187345802528 -8.575468582947378e-09 -2.5666250489153275e-08 8.052374738468925" Properties=species:S:1:pos:R:3:forces:R:3 energy=-19.869028091430664 free_energy=-19.869028091430664 stress="4.834253923036158e-05 9.06231623076792e-09 -3.0891531554999574e-09 9.06231623076792e-09 4.834175342693925e-05 5.992864426929145e-09 -3.0891531554999574e-09 5.992864426929145e-09 4.832803824683651e-05" pbc="T T T"
Li       2.32452050       1.64368423       4.02618705       0.00000023      -0.00000045       0.00000022
Li       6.97356117       4.93105236      12.07856258      -0.00000032       0.00000045      -0.00000041
Te       0.00000006      -0.00000003      -0.00000044       0.00000007      -0.00000015       0.00000103
I        2.42731553       1.71637123       8.05237470      -0.00011431      -0.00008062       0.00000011
I        6.87076611       4.85836526       8.05237468       0.00011411       0.00008085       0.00000009
I        5.75990333       1.71637128       6.12830417       0.00005755      -0.00008079      -0.00009878
I        3.53817796       4.85836544       9.97644556      -0.00005702       0.00008003       0.00009808
I        3.53817829       4.85836521       6.12830407      -0.00005710       0.00008106      -0.00009899
I        5.75990348       1.71637100       9.97644547       0.00005678      -0.00008038       0.00009864
