9
Lattice="5.18295811982437 4.845321216189372e-08 2.992382350707978 1.7276527037646543 4.88653980208301 2.9923824347568133 1.9620876614830377e-08 1.1681229782916643e-07 5.984764667431429" Properties=species:S:1:pos:R:3:forces:R:3 energy=-37.209922790527344 free_energy=-37.209922790527344 stress="-0.00021229084813967347 -1.6342261233148747e-07 7.3207473860748e-08 -1.6342261233148747e-07 -0.00021216786990407854 -6.767146487618447e-08 7.3207473860748e-08 -6.767146487618447e-08 -0.0002120787976309657" pbc="T T T"
Li       1.72765156       1.22163239       2.99238363      -0.00000026      -0.00000550       0.00000387
Li       5.18295749       3.66490296       8.97714671       0.00000065      -0.00000472       0.00000424
Te      -0.00000042       0.00000026      -0.00000063       0.00003051      -0.00001910       0.00004904
F        1.70073947       1.20260594       5.98476280      -0.00415707      -0.00293453      -0.00000670
F        5.20986979       3.68393735       5.98476309       0.00414163       0.00293553      -0.00000481
F        4.33258755       1.20260798       4.46526561       0.00207888      -0.00293836      -0.00360915
F        2.57802126       3.68393778       7.50426117      -0.00208002       0.00294302       0.00359306
F        2.57802558       3.68393201       4.46527039      -0.00209044       0.00295669      -0.00362208
F        4.33259055       1.20260307       7.50426531       0.00207590      -0.00293301       0.00359246
