9
Lattice="6.932348771561098 -1.6731831069250462e-08 4.0023934364000695 2.310782931359347 6.535881073182771 4.002393396076984 5.935445414370841e-09 -4.5188498010992913e-08 8.004786862519584" Properties=species:S:1:pos:R:3:forces:R:3 energy=-30.47262954711914 free_energy=-30.47262954711914 stress="0.00010436769662192091 2.4361173078801812e-09 4.87425566575439e-09 2.4361173078801812e-09 0.00010436055163154379 -5.994639451500916e-09 4.87425566575439e-09 -5.994639451500916e-09 0.00010435788135509938" pbc="T T T"
Li       2.31078308       1.63397012       4.00239341      -0.00000028      -0.00000017       0.00000132
Li       6.93234860       4.90191087      12.00718028       0.00000003       0.00000021      -0.00000102
Ta      -0.00000022       0.00000001       0.00000012       0.00000264       0.00000026       0.00000366
I        2.27173617       1.60636006       8.00478675      -0.00089018      -0.00062940       0.00000065
I        6.97139573       4.92952116       8.00478686       0.00088848       0.00062753       0.00000031
I        5.79648086       1.60635969       5.96977434       0.00044481      -0.00062840      -0.00076936
I        3.44665073       4.92952147      10.03979909      -0.00044281       0.00062637       0.00076823
I        3.44665095       4.92952098       5.96977483      -0.00044563       0.00063030      -0.00077169
I        5.79648094       1.60635966      10.03979912       0.00044293      -0.00062670       0.00076796
