9
Lattice="6.871958639009167 -1.1377299363581455e-07 3.967527181773916 2.290652800009292 6.478944739028858 3.9675271339593285 -3.3539091770341904e-09 -6.093223774144885e-08 7.935054369356949" Properties=species:S:1:pos:R:3:forces:R:3 energy=-27.804603576660156 free_energy=-27.804603576660156 stress="6.611327262362465e-05 -1.6057194685004106e-08 -7.236743204686036e-09 -1.6057194685004106e-08 6.61264275549911e-05 4.713448298332423e-09 -7.236743204686036e-09 4.713448298332423e-09 6.613270670641214e-05" pbc="T T T"
Li       2.29065272       1.61973595       3.96752712       0.00000109      -0.00000054       0.00000120
Li       6.87195867       4.85920855      11.90258179      -0.00000042       0.00000031      -0.00000067
Ti       0.00000018      -0.00000031       0.00000017      -0.00000060       0.00000321       0.00000022
I        2.23893177       1.58316360       7.93505435       0.00025479       0.00018064      -0.00000036
I        6.92367979       4.89578084       7.93505433      -0.00025666      -0.00018152      -0.00000069
I        5.75249263       1.58316389       5.90649905      -0.00012671       0.00017933       0.00021936
I        3.41011873       4.89578067       9.96360976       0.00012695      -0.00017957      -0.00022053
I        3.41011881       4.89578084       5.90649884       0.00012802      -0.00018036       0.00022094
I        5.75249241       1.58316426       9.96360935      -0.00012642       0.00017838      -0.00021949
