9
Lattice="6.426830900907257 -8.15264859295331e-08 3.710532728153904 2.142276911305966 6.059274344167527 3.7105326914330963 4.0673826022013375e-08 -1.6212900288011914e-08 7.421065385858674" Properties=species:S:1:pos:R:3:forces:R:3 energy=-22.89227294921875 free_energy=-22.89227294921875 stress="4.5763903472106904e-05 -1.0732672528490639e-08 5.877638820095399e-09 -1.0732672528490639e-08 4.577066647470929e-05 -2.5846225160108816e-09 5.877638820095399e-09 -2.5846225160108816e-09 4.5780976506648585e-05" pbc="T T T"
Li       2.14227702       1.51481843       3.71053284      -0.00000003      -0.00000001       0.00000029
Li       6.42683090       4.54445567      11.13159816       0.00000020      -0.00000008       0.00000004
Te      -0.00000059      -0.00000045      -0.00000102       0.00000394       0.00000405       0.00001242
Br       2.21381020       1.56540043       7.42106530      -0.00093104      -0.00065888      -0.00000005
Br       6.35529806       4.49387444       7.42106535       0.00092661       0.00065497      -0.00000034
Br       5.31992541       1.56540056       5.62774899       0.00046651      -0.00065944      -0.00080816
Br       3.24918208       4.49387422       9.21438216      -0.00046309       0.00065504       0.00080232
Br       3.24918238       4.49387364       5.62774934      -0.00046670       0.00066024      -0.00080916
Br       5.31992599       1.56540008       9.21438213       0.00046357      -0.00065590       0.00080270
