9
Lattice="6.016966386997078 1.7876562786254884e-07 3.4738972035192166 2.0056555644449503 5.672850233409608 3.473897318578046 -4.999046898761207e-08 1.0556912481361438e-07 6.947794493624427" Properties=species:S:1:pos:R:3:forces:R:3 energy=-38.7500114440918 free_energy=-38.7500114440918 stress="0.00016247661551460624 2.165800516706895e-08 9.620585217362532e-09 2.165800516706895e-08 0.00016242859419435263 2.147954925035833e-09 9.620585217362532e-09 2.147954925035833e-09 0.00016244877770077437" pbc="T T T"
Li       2.00565544       1.41821324       3.47389680       0.00000022       0.00000035      -0.00000050
Li       6.01696665       4.25463738      10.42169115       0.00000047       0.00000005      -0.00000073
Ta      -0.00000010       0.00000030      -0.00000006      -0.00000120      -0.00000174       0.00000601
Cl       1.94624873       1.37620539       6.94779476      -0.00240207      -0.00169700       0.00000031
Cl       6.07637356       4.29664486       6.94779453       0.00240254       0.00169766       0.00000053
Cl       5.04384201       1.37620556       5.15939805       0.00120097      -0.00169736      -0.00207877
Cl       2.97877949       4.29664506       8.73619149      -0.00119826       0.00169474       0.00207579
Cl       2.97877970       4.29664471       5.15939807      -0.00120157       0.00169742      -0.00207883
Cl       5.04384192       1.37620563       8.73619129       0.00119886      -0.00169426       0.00207621
