9
Lattice="4.967323995465037 1.095039626210369e-08 2.867885357613274 1.6557745453936883 4.683238493143562 2.8678855829279457 -1.125650200729598e-07 1.963574617951548e-07 5.735770910194881" Properties=species:S:1:pos:R:3:forces:R:3 energy=-51.7603759765625 free_energy=-51.7603759765625 stress="0.00017114693764597178 6.369301530639859e-08 -8.464849088340998e-08 6.369301530639859e-08 0.00017139424744527787 9.24985101846687e-08 -8.464849088340998e-08 9.24985101846687e-08 0.0001711049844743684" pbc="T T T"
Li       1.65577514       1.17080902       2.86788533       0.00000002       0.00000059      -0.00000065
Li       4.96732344       3.51243077       8.60365663      -0.00000127       0.00000088       0.00000131
Ta      -0.00000021       0.00000006      -0.00000024       0.00000096      -0.00000960       0.00000645
F        1.59652984       1.12891757       5.73577094      -0.00166130      -0.00117540       0.00000010
F        5.02656809       3.55432088       5.73577070       0.00166631       0.00117862      -0.00000046
F        4.16905869       1.12891757       4.25052101       0.00083137      -0.00117588      -0.00143981
F        2.45404005       3.55432113       7.22102103      -0.00083196       0.00117612       0.00144112
F        2.45404004       3.55432087       4.25052050      -0.00082994       0.00117457      -0.00143862
F        4.16905829       1.12891710       7.22102050       0.00082535      -0.00117004       0.00143099
