9
Lattice="6.09630624409632 2.0356721013343043e-07 3.5197039812909385 2.0321022863709346 5.747652619779277 3.5197039586348904 2.9512172008357345e-08 -6.879655414672005e-09 7.039407911465347" Properties=species:S:1:pos:R:3:forces:R:3 energy=-26.135313034057617 free_energy=-26.135313034057617 stress="3.5413359000813216e-05 4.029453393172844e-08 -1.820779749195367e-09 4.029453393172844e-08 3.539233875926584e-05 8.764260428506532e-09 -1.820779749195367e-09 8.764260428506532e-09 3.534335701260716e-05" pbc="T T T"
Li       2.03210231       1.43691285       3.51970402       0.00000080       0.00000010      -0.00000033
Li       6.09630625       4.31073955      10.55911148      -0.00000029      -0.00000066      -0.00000102
Te       0.00000019       0.00000016      -0.00000014      -0.00000243      -0.00000102       0.00000332
Cl       2.05104710       1.45030942       7.03940800      -0.00434776      -0.00307406      -0.00000035
Cl       6.07736126       4.29734326       7.03940805       0.00434957       0.00307579       0.00000012
Cl       5.07078317       1.45030878       5.29596220       0.00217185      -0.00307213      -0.00376252
Cl       3.05762550       4.29734394       8.78285382      -0.00217152       0.00307164       0.00376143
Cl       3.05762528       4.29734416       5.29596221      -0.00217187       0.00307114      -0.00376134
Cl       5.07078329       1.45030914       8.78285381       0.00217165      -0.00307081       0.00376065
