9
Lattice="4.788542936884914 9.535731526657755e-08 2.764666656287107 1.5961810581809048 4.5146818936527255 2.7646666747932094 -1.9739355854123305e-09 2.126941957339971e-08 5.529333315993167" Properties=species:S:1:pos:R:3:forces:R:3 energy=-49.65385818481445 free_energy=-49.65385818481445 stress="0.0002980853896588087 6.045026168521872e-08 1.5959243926388922e-09 6.045026168521872e-08 0.0002981138532049954 -9.573993153821903e-09 1.5959243926388922e-09 -9.573993153821903e-09 0.0002979980199597776" pbc="T T T"
Li       1.59618087       1.12866973       2.76466665       0.00000002      -0.00000066      -0.00000004
Li       4.78854302       3.38601198       8.29400003       0.00000038       0.00000056      -0.00000019
Ti      -0.00000005       0.00000005      -0.00000010       0.00000388       0.00000361       0.00000049
F        1.53323045       1.08415799       5.52933324      -0.00137072      -0.00097039       0.00000009
F        4.85149329       3.43052428       5.52933333       0.00136746       0.00096821      -0.00000017
F        4.02192793       1.08415755       4.09248313       0.00068228      -0.00096676      -0.00118321
F        2.36279619       3.43052435       6.96618370      -0.00068253       0.00096604       0.00118235
F        2.36279617       3.43052465       4.09248321      -0.00068317       0.00096677      -0.00118238
F        4.02192806       1.08415748       6.96618340       0.00068242      -0.00096741       0.00118280
