9
Lattice="6.259607957191106 5.104434845517568e-08 3.613986239845576 2.086536035953319 5.901614877222272 3.613986236211818 2.1785564172985844e-08 1.0954335653417818e-08 7.227972441957343" Properties=species:S:1:pos:R:3:forces:R:3 energy=-31.569393157958984 free_energy=-31.569393157958984 stress="0.00012492352107074112 1.8552075431443882e-08 5.5390612097028225e-09 1.8552075431443882e-08 0.00012490656808950007 3.991344199594238e-10 5.5390612097028225e-09 3.991344199594238e-10 0.00012491860252339393" pbc="T T T"
Li       2.08653578       1.47540369       3.61398619      -0.00000133      -0.00000039      -0.00000048
Li       6.25960833       4.42621092      10.84195882       0.00000087      -0.00000014       0.00000075
Ti       0.00000012       0.00000062       0.00000053      -0.00000200      -0.00000483      -0.00000820
Br       2.04870590       1.44865398       7.22797270      -0.00045092      -0.00031924      -0.00000068
Br       6.29743733       4.45296058       7.22797249       0.00045854       0.00032398      -0.00000070
Br       5.23525555       1.44865364       5.38821676       0.00022332      -0.00031736      -0.00038901
Br       3.11088914       4.45296101       9.06772742      -0.00022919       0.00032232       0.00039592
Br       3.11088894       4.45296138       5.38821726      -0.00022612       0.00031823      -0.00039147
Br       5.23525501       1.44865395       9.06772749       0.00022671      -0.00032252       0.00039387
