9
Lattice="6.179676626737689 -1.127146072340979e-08 3.5678379306384174 2.0598922424791457 5.826254830192181 3.5678378540932014 3.207412971982953e-08 -7.106852823963745e-08 7.135675805722796" Properties=species:S:1:pos:R:3:forces:R:3 energy=-30.910293579101562 free_energy=-30.910293579101562 stress="0.00019719975534826517 2.1823314710900377e-08 -1.831151896780625e-09 2.1823314710900377e-08 0.00019718495605047792 -2.0085400009861587e-09 -1.831151896780625e-09 -2.0085400009861587e-09 0.00019716081442311406" pbc="T T T"
Li       2.05989201       1.45656372       3.56783817      -0.00000107       0.00000038       0.00000110
Li       6.17967680       4.36969117      10.70351358       0.00000063       0.00000004      -0.00000124
V        0.00000029       0.00000021      -0.00000022      -0.00000236      -0.00000070      -0.00000204
Br       2.01057653       1.42169206       7.13567572      -0.00167815      -0.00118564      -0.00000044
Br       6.22899233       4.40456257       7.13567565       0.00167929       0.00118762       0.00000076
Br       5.17438848       1.42169195       5.30904789       0.00083803      -0.00118552      -0.00145061
Br       3.06518023       4.40456279       8.96230390      -0.00083727       0.00118504       0.00145049
Br       3.06518025       4.40456273       5.30904793      -0.00083815       0.00118411      -0.00144969
Br       5.17438862       1.42169174       8.96230379       0.00083903      -0.00118536       0.00145166
