9
Lattice="6.76224248767163 -8.56882750798517e-09 3.904182438911234 2.2540808169428277 6.3755033295660635 3.904182446189781 -3.243647307110913e-08 -1.4021734190951802e-08 7.808364934004053" Properties=species:S:1:pos:R:3:forces:R:3 energy=-27.406105041503906 free_energy=-27.406105041503906 stress="7.496154285036027e-05 -5.315067497235759e-09 -7.50547290984116e-10 -5.315067497235759e-09 7.497290062019601e-05 -7.457358064399955e-10 -7.50547290984116e-10 -7.457358064399955e-10 7.49704850022681e-05" pbc="T T T"
Li       2.25408066       1.59387585       3.90418271       0.00000023       0.00000058       0.00000022
Li       6.76224255       4.78162729      11.71254742      -0.00000027      -0.00000086       0.00000011
V        0.00000003      -0.00000001      -0.00000010       0.00000058       0.00000069      -0.00000042
I        2.19396510       1.55136738       7.80836493       0.00010678       0.00007550       0.00000000
I        6.82235837       4.82413603       7.80836507      -0.00010712      -0.00007574       0.00000023
I        5.66525977       1.55136770       5.80421151      -0.00005288       0.00007454       0.00009193
I        3.35106327       4.82413565       9.81251809       0.00005288      -0.00007497      -0.00009209
I        3.35106348       4.82413560       5.80421154       0.00005295      -0.00007485       0.00009170
I        5.66525985       1.55136770       9.81251806      -0.00005321       0.00007516      -0.00009178
