9
Lattice="5.8262493945752105 -4.5267837261870496e-08 3.3637866549178455 1.9420830902357784 5.493040505574452 3.363786652510881 4.168264230652789e-08 2.6526216469279283e-08 6.7275732376392074" Properties=species:S:1:pos:R:3:forces:R:3 energy=-34.89080047607422 free_energy=-34.89080047607422 stress="9.286202839575708e-05 -9.57417878311162e-09 -1.3219700889521846e-09 -9.57417878311162e-09 9.282023529522121e-05 1.075529620919724e-08 -1.3219700889521846e-09 1.075529620919724e-08 9.287658031098545e-05" pbc="T T T"
Li       1.94208336       1.37325982       3.36378653      -0.00000038      -0.00000129      -0.00000007
Li       5.82624954       4.11978043      10.09136025       0.00000050       0.00000072       0.00000010
V        0.00000009       0.00000017      -0.00000015      -0.00000199      -0.00000122       0.00000018
Cl       1.88498825       1.33288802       6.72757320      -0.00099158      -0.00070029       0.00000021
Cl       5.88334381       4.16015252       6.72757318       0.00099549       0.00070244      -0.00000017
Cl       4.88375515       1.33288774       4.99623487       0.00049669      -0.00070140      -0.00086212
Cl       2.88457726       4.16015280       8.45891164      -0.00049786       0.00070095       0.00086218
Cl       2.88457727       4.16015279       4.99623487      -0.00049770       0.00070123      -0.00086230
Cl       4.88375531       1.33288762       8.45891179       0.00049683      -0.00070129       0.00086239
