9
Lattice="6.840508980172764 -4.500012051058438e-08 3.949369757867019 2.2801696878557673 6.449293591680044 3.9493696362341906 8.82717996394464e-08 -8.655158397499268e-08 7.898739362842661" Properties=species:S:1:pos:R:3:forces:R:3 energy=-29.408077239990234 free_energy=-29.408077239990234 stress="0.00021767347061540931 4.4665210419125856e-10 -8.281452190672667e-10 4.4665210419125856e-10 0.00021768739679828286 -2.4061048709000943e-09 -8.281452190672667e-10 -2.4061048709000943e-09 0.00021767722500953823" pbc="T T T"
Li       2.28016981       1.61232345       3.94936983      -0.00000013      -0.00000004       0.00000025
Li       6.84050891       4.83696999      11.84810882      -0.00000030      -0.00000085      -0.00000027
W        0.00000022       0.00000039       0.00000008      -0.00000009      -0.00000967      -0.00000452
I        2.24407937       1.58680392       7.89873965      -0.00483023      -0.00341642      -0.00000113
I        6.87659880       4.86248961       7.89873952       0.00483643       0.00341916      -0.00000045
I        5.71846952       1.58680351       5.89279953       0.00241400      -0.00341441      -0.00418153
I        3.40220969       4.86248933       9.90467880      -0.00241891       0.00342163       0.00419049
I        3.40220971       4.86248960       5.89279989      -0.00241732       0.00341792      -0.00418770
I        5.71846898       1.58680401       9.90467891       0.00241648      -0.00341733       0.00418489
