9
Lattice="5.981535670094903 -2.4588491348961983e-08 3.453441361348105 1.993845244638355 5.639445976265913 3.4534412843487226 7.2361450192272005e-09 -8.918795030105791e-08 6.906882710162792" Properties=species:S:1:pos:R:3:forces:R:3 energy=-37.095375061035156 free_energy=-37.095375061035156 stress="9.417109686182812e-05 1.1512034880922783e-08 1.8541259194648774e-08 1.1512034880922783e-08 9.416592365596443e-05 -2.429273493476103e-08 1.8541259194648774e-08 -2.429273493476103e-08 9.415095701115206e-05" pbc="T T T"
Li       1.99384563       1.40986221       3.45344160       0.00000019       0.00000097       0.00000041
Li       5.98153509       4.22958463      10.36032450      -0.00000045       0.00000014       0.00000101
W        0.00000004       0.00000001       0.00000013       0.00000232      -0.00000307      -0.00000354
Cl       1.94733576       1.37697449       6.90688268      -0.00121499      -0.00086071      -0.00000079
Cl       6.02804523       4.26247141       6.90688270       0.00121504       0.00085952      -0.00000085
Cl       5.00786821       1.37697399       5.13988307       0.00060440      -0.00085554      -0.00104832
Cl       2.96751293       4.26247124       8.67388156      -0.00060756       0.00086001       0.00105309
Cl       2.96751296       4.26247119       5.13988364      -0.00060665       0.00085899      -0.00105364
Cl       5.00786783       1.37697431       8.67388154       0.00060773      -0.00086031       0.00105264
