9
Lattice="4.942358100362624 -1.2374513953141526e-07 2.8534719092310703 1.6474525937871904 4.659699876372119 2.8534718913315626 -4.738887208322973e-08 -5.5431433174464565e-08 5.706943900542185" Properties=species:S:1:pos:R:3:forces:R:3 energy=-45.34188461303711 free_energy=-45.34188461303711 stress="-2.1789139282191172e-05 -8.74588010901789e-08 4.709318268680818e-09 -8.74588010901789e-08 -2.170622792618815e-05 -8.094638292988066e-10 4.709318268680818e-09 -8.094638292988066e-10 -2.164498255297076e-05" pbc="T T T"
Li       1.64745327       1.16492476       2.85347118       0.00000071       0.00000005      -0.00000094
Li       4.94235759       3.49477517       8.56041567      -0.00000113       0.00000091      -0.00000049
W       -0.00000026      -0.00000001       0.00000034       0.00001552       0.00000271      -0.00002818
F        1.63512714       1.15620854       5.70694404      -0.00093182      -0.00065938       0.00000004
F        4.95468355       3.50349091       5.70694406       0.00092017       0.00065253       0.00000074
F        4.12479473       1.15620892       4.26953387       0.00046163      -0.00065356      -0.00079988
F        2.46501587       3.50349028       7.14435429      -0.00047128       0.00066584       0.00081583
F        2.46501633       3.50349051       4.26953292      -0.00046303       0.00065434      -0.00080201
F        4.12479432       1.15620941       7.14435450       0.00046917      -0.00066343       0.00081477
