9
Lattice="6.315021282843881 2.5058428030817017e-08 3.6459792057413583 2.1050070884006002 5.953859171352317 3.645979256847225 -5.824383297146978e-08 2.1407097382441062e-08 7.291958512363978" Properties=species:S:1:pos:R:3:forces:R:3 energy=-33.17081832885742 free_energy=-33.17081832885742 stress="0.00010077706247102469 -1.7134833996124144e-08 -9.54085876969657e-09 -1.7134833996124144e-08 0.00010078431660076603 1.2743938349046857e-08 -9.54085876969657e-09 1.2743938349046857e-08 0.00010079614003188908" pbc="T T T"
Li       2.10500697       1.48846449       3.64597935      -0.00000052      -0.00000041      -0.00000013
Li       6.31502116       4.46539449      10.93793808       0.00000006       0.00000008       0.00000022
W       -0.00000046       0.00000018       0.00000007       0.00000659      -0.00000303      -0.00000495
Br       2.06646001       1.46120808       7.29195845      -0.00126071      -0.00089244      -0.00000072
Br       6.35356850       4.49265167       7.29195863       0.00125835       0.00088914      -0.00000054
Br       5.28179157       1.46120758       5.43558589       0.00062888      -0.00088917      -0.00108934
Br       3.13823714       4.49265119       9.14833017      -0.00063367       0.00089595       0.00109753
Br       3.13823697       4.49265142       5.43558621      -0.00062914       0.00089117      -0.00109237
Br       5.28179141       1.46120777       9.14833106       0.00063014      -0.00089126       0.00109030
