9
Lattice="5.99789464890082 9.888105359493452e-08 3.462886057071306 1.999298171688084 5.6548694672508 3.4628862958139854 -1.0218832453893746e-07 2.2014082253203156e-07 6.9257722911380215" Properties=species:S:1:pos:R:3:forces:R:3 energy=-37.46963882446289 free_energy=-37.46963882446289 stress="0.00014739343896508217 -1.933329585313004e-08 -4.0824264857519665e-08 -1.933329585313004e-08 0.00014742680650670081 5.076427811445683e-08 -4.0824264857519665e-08 5.076427811445683e-08 0.00014745605585630983" pbc="T T T"
Li       1.99929807       1.41371736       3.46288564      -0.00000024      -0.00000078      -0.00000154
Li       5.99789435       4.24115265      10.38865832      -0.00000131       0.00000105      -0.00000026
Zr       0.00000018      -0.00000023       0.00000003      -0.00000458       0.00000193       0.00000040
Cl       2.00870555       1.42036954       6.92577256      -0.00183906      -0.00130040       0.00000049
Cl       5.98848695       4.23450018       6.92577263       0.00184166       0.00130287      -0.00000010
Cl       4.99354142       1.42036997       5.20247675       0.00092303      -0.00130517      -0.00159894
Cl       3.00365164       4.23449979       8.64906783      -0.00092159       0.00130359       0.00159750
Cl       3.00365106       4.23450039       5.20247653      -0.00091972       0.00129999      -0.00159227
Cl       4.99354172       1.42036955       8.64906823       0.00092182      -0.00130310       0.00159454
