9
Lattice="6.994287674143363 1.0286173751703474e-08 4.038153829400294 2.3314292230355256 6.594277572319234 4.038153849105643 -3.1026976321448397e-09 2.1940056730567844e-08 8.076307664174712" Properties=species:S:1:pos:R:3:forces:R:3 energy=-29.491323471069336 free_energy=-29.491323471069336 stress="7.399496826110408e-05 2.8959226128222326e-09 4.126099906187619e-09 2.8959226128222326e-09 7.398765592370182e-05 -6.287468878873881e-10 4.126099906187619e-09 -6.287468878873881e-10 7.399010064546019e-05" pbc="T T T"
Li       2.33142909       1.64856921       4.03815377       0.00000155       0.00000008       0.00000042
Li       6.99428773       4.94570825      12.11446142      -0.00000137      -0.00000037       0.00000015
Zr      -0.00000007      -0.00000021      -0.00000065      -0.00000016       0.00000166       0.00000669
I        2.33644346       1.65211490       8.07630761      -0.00070555      -0.00049900      -0.00000004
I        6.98927371       4.94216280       8.07630768       0.00070466       0.00049809      -0.00000008
I        5.82606581       1.65211502       6.06157321       0.00035321      -0.00049930      -0.00061111
I        3.49965071       4.94216297      10.09104268      -0.00035102       0.00049605       0.00060718
I        3.49965106       4.94216260       6.06157323      -0.00035306       0.00049962      -0.00061169
I        5.82606614       1.65211488      10.09104240       0.00035175      -0.00049692       0.00060842
