9
Lattice="6.4178429496599785 8.646303196615088e-08 3.7053433591981926 2.1392809978677536 6.050800534661144 3.705343475021059 -3.170546078009897e-08 1.194343355766133e-07 7.410686773311876" Properties=species:S:1:pos:R:3:forces:R:3 energy=-33.32332229614258 free_energy=-33.32332229614258 stress="0.00015954246919136494 1.3262053677465246e-08 -1.7571078814171415e-08 1.3262053677465246e-08 0.00015954000991769135 2.7111401124102485e-08 -1.7571078814171415e-08 2.7111401124102485e-08 0.00015954917762428522" pbc="T T T"
Li       2.13928102       1.51270019       3.70534329      -0.00000025      -0.00000038      -0.00000049
Li       6.41784291       4.53810057      11.11603016       0.00000062       0.00000052      -0.00000004
Zr       0.00000027       0.00000036      -0.00000036      -0.00000221      -0.00000562       0.00000523
Br       2.14796508       1.51884098       7.41068645      -0.00162265      -0.00114870       0.00000072
Br       6.40915822       4.53195946       7.41068673       0.00162865       0.00115122       0.00000148
Br       5.34386008       1.51884152       5.56553621       0.00081397      -0.00115165      -0.00140951
Br       3.21326362       4.53196002       9.25583759      -0.00081258       0.00114902       0.00140951
Br       3.21326379       4.53195943       5.56553632      -0.00081433       0.00115081      -0.00140984
Br       5.34386064       1.51884047       9.25583807       0.00080885      -0.00114525       0.00140295
