9
Lattice="5.817627281900227 -4.661954736833162e-08 3.3588087013104126 1.9392090754862137 5.484911523075245 3.358808657190239 2.485459186546751e-08 -3.6461117075047284e-08 6.71761735957142" Properties=species:S:1:pos:R:3:forces:R:3 energy=-21.982967376708984 free_energy=-21.982967376708984 stress="0.00021001281857024878 1.2775074331727865e-08 -1.1445572489776623e-08 1.2775074331727865e-08 0.00021002220455557108 1.8236366583490593e-10 -1.1445572489776623e-08 1.8236366583490593e-10 0.00021000458218622953" pbc="T T T"
Mg       1.93920917       1.37122811       3.35880863       0.00000187       0.00000164      -0.00000055
Mg       5.81762736       4.11368380      10.07642585       0.00000172       0.00000101      -0.00000332
Ag       0.00000004       0.00000004      -0.00000002      -0.00000176       0.00000048      -0.00000159
Cl       1.99831200       1.41301980       6.71761750       0.00208268       0.00147428       0.00000016
Cl       5.75852443       4.07189146       6.71761740      -0.00208381      -0.00147428       0.00000024
Cl       4.81847117       1.41301959       5.08939770      -0.00104153       0.00147168       0.00180635
Cl       2.93836500       4.07189160       8.34583703       0.00104138      -0.00147302      -0.00180370
Cl       2.93836526       4.07189146       5.08939756       0.00104137      -0.00147521       0.00180571
Cl       4.81847118       1.41302000       8.34583722      -0.00104193       0.00147346      -0.00180331
