9
Lattice="6.113117646561231 -8.842860041920174e-09 3.529410240217676 2.0377059103817223 5.763502523821006 3.529410176942806 9.583347819280304e-08 -9.731070572187034e-09 7.05882031444687" Properties=species:S:1:pos:R:3:forces:R:3 energy=-19.29721450805664 free_energy=-19.29721450805664 stress="0.0003085282805841416 4.6721866375776244e-09 5.283823156787548e-09 4.6721866375776244e-09 0.0003085386997554451 -5.85743675785011e-09 5.283823156787548e-09 -5.85743675785011e-09 0.0003085425996687263" pbc="T T T"
Mg       2.03770584       1.44087571       3.52941016       0.00000015      -0.00000082       0.00000016
Mg       6.11311739       4.32262694      10.58823097      -0.00000155       0.00000072       0.00000189
Ag       0.00000022       0.00000004      -0.00000019      -0.00000111      -0.00000008       0.00000213
Br       2.10185760       1.48623745       7.05882030      -0.00291602      -0.00206161       0.00000007
Br       6.04896614       4.27726509       7.05882048       0.00291593       0.00206155      -0.00000125
Br       5.06218884       1.48623764       5.34967173       0.00145799      -0.00206037      -0.00252603
Br       3.08863462       4.27726481       8.76796878      -0.00145677       0.00206006       0.00252411
Br       3.08863473       4.27726501       5.34967222      -0.00145786       0.00206284      -0.00252487
Br       5.06218926       1.48623733       8.76796848       0.00145906      -0.00206240       0.00252384
