9
Lattice="6.619271089779665 5.857334075809924e-08 3.8216379103361793 2.2064237299200746 6.240708634484929 3.8216379482622815 -1.2336545074366585e-08 3.7726535264092166e-08 7.643275842039889" Properties=species:S:1:pos:R:3:forces:R:3 energy=-16.514942169189453 free_energy=-16.514942169189453 stress="0.00012754806084558368 9.846472970309605e-09 -2.7922621992360064e-09 9.846472970309605e-09 0.00012755175703205168 -4.013076093656309e-09 -2.7922621992360064e-09 -4.013076093656309e-09 0.00012755696661770344" pbc="T T T"
Mg       2.20642376       1.56017719       3.82163788      -0.00000010      -0.00000020      -0.00000030
Mg       6.61927108       4.68053139      11.46491386       0.00000024       0.00000027       0.00000123
Au      -0.00000021       0.00000005       0.00000033      -0.00000007      -0.00000031      -0.00000258
I        2.30719104       1.63143060       7.64327585      -0.00048926      -0.00034534       0.00000017
I        6.51850377       4.60927819       7.64327586       0.00048983       0.00034583      -0.00000045
I        5.46567572       1.63143042       5.81972387       0.00024413      -0.00034498      -0.00042303
I        3.36001940       4.60927823       9.46682763      -0.00024521       0.00034627       0.00042437
I        3.36001921       4.60927836       5.81972393      -0.00024396       0.00034498      -0.00042380
I        5.46567543       1.63143052       9.46682761       0.00024441      -0.00034653       0.00042444
