9
Lattice="4.677186562013638 6.142025483840483e-08 2.700374642237212 1.5590621921979526 4.40969433512383 2.7003747341181916 -2.3832692891568583e-08 9.567848781447422e-08 5.400749325753856" Properties=species:S:1:pos:R:3:forces:R:3 energy=-32.33815002441406 free_energy=-32.33815002441406 stress="7.537149940617383e-05 -3.2079969791709573e-09 -2.831901824151828e-08 -3.2079969791709573e-09 7.509232818847522e-05 1.8215982056091207e-09 -2.831901824151828e-08 1.8215982056091207e-09 7.55066066631116e-05" pbc="T T T"
Mg       1.55906223       1.10242438       2.70037472      -0.00000011       0.00000580       0.00000014
Mg       4.67718627       3.30726998       8.10112405      -0.00000156      -0.00000589       0.00000080
Au       0.00000004       0.00000051      -0.00000024      -0.00001416      -0.00001168       0.00002210
F        1.69635962       1.19950809       5.40074935      -0.00373339      -0.00263666       0.00000078
F        4.53988896       3.21018603       5.40074935       0.00375048       0.00265018       0.00000075
F        3.82900664       1.19950849       4.16946541       0.00187567      -0.00264936      -0.00324843
F        2.40724212       3.21018618       6.63203375      -0.00186798       0.00263709       0.00323507
F        2.40724226       3.21018585       4.16946491      -0.00187520       0.00264784      -0.00324842
F        3.82900669       1.19950846       6.63203353       0.00186660      -0.00263789       0.00323693
