9
Lattice="5.876128453441542 -3.647507632919003e-08 3.3925843840519496 1.9587095403720924 5.540066957910624 3.392584227681333 6.521297529652243e-08 -1.4540157195969121e-07 6.785168655151704" Properties=species:S:1:pos:R:3:forces:R:3 energy=-21.899587631225586 free_energy=-21.899587631225586 stress="0.00023614917881786823 -7.850506023032722e-09 1.960089335284465e-08 -7.850506023032722e-09 0.00023616955149918795 2.4492463168712675e-08 1.960089335284465e-08 2.4492463168712675e-08 0.0002361855295021087" pbc="T T T"
Mg       1.95870889       1.38501700       3.39258504      -0.00000242      -0.00000004       0.00000359
Mg       5.87612788       4.15505041      10.17775306      -0.00000349       0.00000129       0.00000083
Au      -0.00000000      -0.00000012       0.00000014       0.00000098      -0.00000198      -0.00000569
Cl       2.00626025       1.41863930       6.78516828       0.00394364       0.00278506      -0.00000195
Cl       5.82857821       4.12142735       6.78516843      -0.00394215      -0.00278757      -0.00000131
Cl       4.87299923       1.41863959       5.13005577      -0.00196948       0.00279068       0.00341585
Cl       2.96183940       4.12142657       8.44028131       0.00196811      -0.00278505      -0.00341040
Cl       2.96183909       4.12142700       5.13005602       0.00197155      -0.00278907       0.00341226
Cl       4.87299930       1.41863996       8.44028094      -0.00196674       0.00278656      -0.00341301
