9
Lattice="4.682112248096956 1.0617776673675651e-07 2.703218739394704 1.560704166819397 4.414337753852651 2.703218767081436 8.862995737960677e-08 9.658003247868947e-08 5.40643732527783" Properties=species:S:1:pos:R:3:forces:R:3 energy=-32.99959182739258 free_energy=-32.99959182739258 stress="0.0004004419897682965 1.243918923421461e-08 -1.6195139451724572e-08 1.243918923421461e-08 0.0004004398360848427 -1.3268406817701361e-08 -1.6195139451724572e-08 -1.3268406817701361e-08 0.00040042391628958285" pbc="T T T"
Mg       1.56070437       1.10358420       2.70321826       0.00000117      -0.00000140      -0.00000475
Mg       4.68211232       3.31075355       8.10965610      -0.00000057       0.00000081       0.00000025
Ag       0.00000004       0.00000001       0.00000013       0.00000278      -0.00000331      -0.00000434
F        1.68349112       1.19040815       5.40643769      -0.00255358      -0.00180627       0.00000214
F        4.55932524       3.22392979       5.40643746       0.00255385       0.00180566      -0.00000113
F        3.84036683       1.19040775       4.16116481       0.00127535      -0.00180456      -0.00220835
F        2.40244982       3.22392999       6.65170994      -0.00127839       0.00180966       0.00221425
F        2.40244991       3.22393016       4.16116478      -0.00127545       0.00180595      -0.00221112
F        3.84036657       1.19040821       6.65171030       0.00127457      -0.00180638       0.00221297
