9
Lattice="6.123270391837128 1.1064365128217448e-07 3.535271901358473 2.0410902022494115 5.773074785956817 3.535271957959816 -4.346709469108698e-10 6.901485210492433e-08 7.0705438034698505" Properties=species:S:1:pos:R:3:forces:R:3 energy=-19.294261932373047 free_energy=-19.294261932373047 stress="0.00016259939002338797 -9.234735642849046e-09 1.6724074347607143e-09 -9.234735642849046e-09 0.00016259685799013823 -7.029500981303727e-09 1.6724074347607143e-09 -7.029500981303727e-09 0.0001626091980142519" pbc="T T T"
Mg       2.04109017       1.44326884       3.53527187       0.00000119      -0.00000037      -0.00000075
Mg       6.12327049       4.32980635      10.60581597      -0.00000000       0.00000175       0.00000036
Au      -0.00000010       0.00000002       0.00000009      -0.00000111       0.00000075      -0.00000133
Br       2.10747268       1.49020811       7.07054386       0.00195774       0.00138331      -0.00000014
Br       6.05688789       4.28286679       7.07054382      -0.00195953      -0.00138390      -0.00000012
Br       5.06953434       1.49020815       5.36039662      -0.00097807       0.00138456       0.00169559
Br       3.09482633       4.28286663       8.78069087       0.00097882      -0.00138468      -0.00169601
Br       3.09482633       4.28286675       5.36039655       0.00097996      -0.00138569       0.00169741
Br       5.06953426       1.49020823       8.78069107      -0.00097893       0.00138421      -0.00169501
