9
Lattice="5.480999421813905 -7.2106933943429315e-09 3.164456450218764 1.826999810768203 5.167535678122963 3.164456432386872 1.735189310225807e-08 -9.569832063986404e-09 6.328912870383124" Properties=species:S:1:pos:R:3:forces:R:3 energy=-26.990968704223633 free_energy=-26.990968704223633 stress="0.00022923058713786304 7.638910837215462e-09 4.2710926462241616e-10 7.638910837215462e-09 0.00022925228404346853 -1.0327555699518598e-08 4.2710926462241616e-10 -1.0327555699518598e-08 0.00022921258641872555" pbc="T T T"
Mg       1.82700006       1.29188429       3.16445613       0.00000202       0.00000141      -0.00000214
Mg       5.48099924       3.87565165       9.49336793       0.00000093      -0.00000051      -0.00000530
Be       0.00000005      -0.00000013      -0.00000006      -0.00000013       0.00000057       0.00000240
Cl       1.77009876       1.25164898       6.32891302       0.00151117       0.00107111       0.00000205
Cl       5.53790042       3.91588673       6.32891300      -0.00151367      -0.00107013       0.00000090
Cl       4.59594975       1.25164865       4.69740735      -0.00075723       0.00106803       0.00130906
Cl       2.71204956       3.91588697       7.96041944       0.00075753      -0.00107066      -0.00131095
Cl       2.71204905       3.91588678       4.69740721       0.00075619      -0.00106993       0.00131288
Cl       4.59595013       1.25164873       7.96041903      -0.00075672       0.00107003      -0.00130888
