9
Lattice="4.233942496899416 5.46281447626715e-08 2.444467824987996 1.4113141779391432 3.9917993520387802 2.444467892880746 -6.212282816338463e-08 3.922382017015006e-08 4.888935757575882" Properties=species:S:1:pos:R:3:forces:R:3 energy=-43.60790252685547 free_energy=-43.60790252685547 stress="-3.138386819045991e-05 4.3072059696669385e-08 1.493304857547173e-08 4.3072059696669385e-08 -3.109251338173635e-05 -5.2218222634792255e-08 1.493304857547173e-08 -5.2218222634792255e-08 -3.142122659482993e-05" pbc="T T T"
Mg       1.41131410       0.99794991       2.44446790      -0.00000037       0.00000186       0.00000075
Mg       4.23394255       2.99384982       7.33340370       0.00000002      -0.00000089      -0.00000068
Be       0.00000011       0.00000019      -0.00000025       0.00000032      -0.00000112       0.00000401
F        1.37324995       0.97103493       4.88893549       0.00133613       0.00093850       0.00000188
F        4.27200679       3.02076439       4.88893575      -0.00134107      -0.00093937      -0.00000249
F        3.54731759       0.97103462       3.63373720      -0.00066911       0.00094068       0.00115705
F        2.09793904       3.02076480       6.14413459       0.00067250      -0.00094125      -0.00116134
F        2.09793883       3.02076425       3.63373721       0.00067021      -0.00093731       0.00115731
F        3.54731750       0.97103486       6.14413424      -0.00066875       0.00093892      -0.00115657
