9
Lattice="5.865237623002332 6.377394217776101e-08 3.3862964457441764 1.95507930424779 5.529799187064049 3.386296382604409 3.28715361997847e-08 -5.408635708399625e-08 6.772592834553138" Properties=species:S:1:pos:R:3:forces:R:3 energy=-22.856094360351562 free_energy=-22.856094360351562 stress="-0.00012156212324043736 -1.7100795224322951e-09 -3.5115699237309173e-09 -1.7100795224322951e-09 -0.0001215956945088692 -1.5022962429611653e-08 -3.5115699237309173e-09 -1.5022962429611653e-08 -0.00012155951117165387" pbc="T T T"
Mg       1.95507956       1.38244925       3.38629624       0.00000061      -0.00000198      -0.00000044
Mg       5.86523737       4.14734903      10.15888893      -0.00000180      -0.00000114      -0.00000059
Be      -0.00000012       0.00000015      -0.00000000      -0.00000072       0.00000096       0.00000062
Br       1.91852968       1.35660505       6.77259259      -0.00744518      -0.00526138       0.00000189
Br       5.90178706       4.17319400       6.77259279       0.00744471       0.00526707       0.00000155
Br       4.90597264       1.35660589       5.04779182       0.00372585      -0.00526646      -0.00645258
Br       2.91434415       4.17319392       8.49739412      -0.00372065       0.00526050       0.00644445
Br       2.91434435       4.17319379       5.04779209      -0.00372488       0.00526719      -0.00644515
Br       4.90597309       1.35660564       8.49739402       0.00372204      -0.00526486       0.00645002
