9
Lattice="6.450746495364958 2.1011155134721145e-08 3.724340294339471 2.1502488556279653 6.081822185563404 3.7243402873590763 -9.510327621653855e-09 -1.527400064113826e-08 7.448680605151369" Properties=species:S:1:pos:R:3:forces:R:3 energy=-18.606098175048828 free_energy=-18.606098175048828 stress="-4.754359906655736e-06 -7.067267215887796e-09 1.0071522504873087e-09 -7.067267215887796e-09 -4.732312390842708e-06 -1.0146486983941827e-09 1.0071522504873087e-09 -1.0146486983941827e-09 -4.746998001792235e-06" pbc="T T T"
Mg       2.15024918       1.52045585       3.72433994       0.00000048       0.00000119      -0.00000108
Mg       6.45074679       4.56136597      11.17302101       0.00000166      -0.00000200       0.00000088
Be      -0.00000010       0.00000015      -0.00000004      -0.00000029      -0.00000077       0.00000066
I        2.10917897       1.49141511       7.44868058      -0.00209695      -0.00148268      -0.00000039
I        6.49181621       4.59040705       7.44868050       0.00209786       0.00148374      -0.00000069
I        5.39615708       1.49141514       5.55094314       0.00104839      -0.00148216      -0.00181598
I        3.20483826       4.59040700       9.34641812      -0.00104999       0.00148331       0.00181676
I        3.20483822       4.59040727       5.55094328      -0.00104901       0.00148361      -0.00181608
I        5.39615677       1.49141525       9.34641821       0.00104780      -0.00148420       0.00181594
