9
Lattice="6.1663006452608595 1.3392507447357665e-09 3.5601152693398537 2.055433583685184 5.813643978985539 3.5601152104462197 -5.890420917953988e-08 -1.1378124551023068e-07 7.120230640704803" Properties=species:S:1:pos:R:3:forces:R:3 energy=-18.8592529296875 free_energy=-18.8592529296875 stress="0.000171672974829562 9.3493168762393e-09 -3.436970152925767e-10 9.3493168762393e-09 0.00017166437464766204 3.4824512162856536e-09 -3.436970152925767e-10 3.4824512162856536e-09 0.00017165894678328186" pbc="T T T"
Mg       2.05543329       1.45341102       3.56011513       0.00000030       0.00000090      -0.00000052
Mg       6.16630069       4.36023263      10.68034586       0.00000017       0.00000023      -0.00000088
Cd      -0.00000001       0.00000006      -0.00000019       0.00000081      -0.00000111       0.00000130
Br       2.14752854       1.51853189       7.12023071       0.00134633       0.00095217      -0.00000031
Br       6.07420563       4.29511202       7.12023060      -0.00134581      -0.00095218       0.00000071
Br       5.09253665       1.51853197       5.41992953      -0.00067343       0.00095291       0.00116709
Br       3.12919779       4.29511187       8.82053175       0.00067224      -0.00095317      -0.00116622
Br       3.12919786       4.29511208       5.41992930       0.00067259      -0.00095251       0.00116631
Br       5.09253631       1.51853191       8.82053179      -0.00067306       0.00095278      -0.00116771
