9
Lattice="6.46708579979505 -2.9854699282701744e-08 3.733773683372771 2.155695231567017 6.097226967915041 3.73377369529628 -1.685827030849152e-08 2.682674470822852e-09 7.467547395944917" Properties=species:S:1:pos:R:3:forces:R:3 energy=-17.877777099609375 free_energy=-17.877777099609375 stress="0.00017888203728944063 1.8376898891503402e-09 -1.1128903354418185e-09 1.8376898891503402e-09 0.00017888615548145026 3.905295198336489e-09 -1.1128903354418185e-09 3.905295198336489e-09 0.00017887953436002135" pbc="T T T"
Mg       2.15569529       1.52430666       3.73377379      -0.00000053       0.00000038       0.00000031
Mg       6.46708569       4.57292025      11.20132091       0.00000008      -0.00000017      -0.00000114
Cu       0.00000001       0.00000019       0.00000017      -0.00000027      -0.00000098       0.00000055
I        2.18715428       1.54655168       7.46754728      -0.00466913      -0.00330123       0.00000035
I        6.43562659       4.55067506       7.46754732       0.00466983       0.00330199       0.00000075
I        5.37350851       1.54655176       5.62790497       0.00233531      -0.00330300      -0.00404343
I        3.24927243       4.55067548       9.30718984      -0.00233464       0.00330168       0.00404340
I        3.24927258       4.55067506       5.62790502      -0.00233541       0.00330254      -0.00404420
I        5.37350869       1.54655162       9.30718977       0.00233480      -0.00330129       0.00404336
