9
Lattice="5.815803137983798 -2.1176550499039603e-08 3.3577555939364703 1.9386010438239674 5.483191792424496 3.3577555631149445 5.6096489877683736e-08 1.9177061581094905e-09 6.71551109071094" Properties=species:S:1:pos:R:3:forces:R:3 energy=-21.971040725708008 free_energy=-21.971040725708008 stress="0.00020558630058076233 -1.4968216888178176e-08 4.116038621049256e-09 -1.4968216888178176e-08 0.00020547299936879426 -1.0369748615346452e-08 4.116038621049256e-09 -1.0369748615346452e-08 0.00020551163470372558" pbc="T T T"
Mg       1.93860087       1.37079873       3.35775562      -0.00000052       0.00000387      -0.00000007
Mg       5.81580354       4.11239339      10.07326653       0.00000163      -0.00000170       0.00000108
Cd       0.00000004      -0.00000015       0.00000006       0.00000016       0.00000105      -0.00000012
Cl       2.00985876       1.42118479       6.71551115       0.00185625       0.00131357       0.00000146
Cl       5.74454552       4.06200659       6.71551115      -0.00185639      -0.00131526      -0.00000053
Cl       4.81087349       1.42118492       5.09834447      -0.00092849       0.00131227       0.00160617
Cl       2.94353040       4.06200694       8.33267783       0.00092740      -0.00131406      -0.00160966
Cl       2.94353042       4.06200685       5.09834446       0.00092804      -0.00131346       0.00160857
Cl       4.81087389       1.42118502       8.33267772      -0.00092790       0.00131374      -0.00160678
