9
Lattice="4.8187291035725455 1.2123735834052118e-08 2.7820948159268926 1.6062430468877262 4.543141619816035 2.782094814310596 -2.4123376296881413e-09 -3.6853464239678544e-09 5.564189636032075" Properties=species:S:1:pos:R:3:forces:R:3 energy=-33.080421447753906 free_energy=-33.080421447753906 stress="7.296448984561721e-06 -4.681962906261106e-08 3.5172266876770664e-08 -4.681962906261106e-08 7.155354069254827e-06 3.3232026908081025e-08 3.5172266876770664e-08 3.3232026908081025e-08 7.319270025618607e-06" pbc="T T T"
Mg       1.60624281       1.13578491       2.78209497      -0.00000192      -0.00000176      -0.00000101
Mg       4.81872959       3.40735558       8.34628389       0.00000277      -0.00000590      -0.00000349
Cd       0.00000006      -0.00000007      -0.00000009      -0.00000006       0.00000330       0.00000587
F        1.71818469       1.21494047       5.56418901       0.00020657       0.00014779      -0.00000386
F        4.70678694       3.32820203       5.56419050      -0.00021283      -0.00014497       0.00000471
F        3.95963721       1.21494060       4.27008703      -0.00009599       0.00014488       0.00017746
F        2.46533466       3.32820084       6.85829251       0.00010148      -0.00014889      -0.00018249
F        2.46533562       3.32820150       4.27008695       0.00010350      -0.00014335       0.00017954
F        3.95963654       1.21494068       6.85829264      -0.00010377       0.00014873      -0.00017670
