9
Lattice="4.451010658572374 -3.374041484824426e-08 2.5697922294111826 1.4836702056772932 4.196453034364181 2.569792198296736 -9.517797658200664e-09 -4.483736033676612e-08 5.1395844753076725" Properties=species:S:1:pos:R:3:forces:R:3 energy=-37.2594108581543 free_energy=-37.2594108581543 stress="0.00023446457635145634 8.422431641008643e-09 1.8304012527892155e-08 8.422431641008643e-09 0.0002344457752769813 -3.675185311635687e-08 1.8304012527892155e-08 -3.675185311635687e-08 0.00023441306257154793" pbc="T T T"
Mg       1.48367005       1.04911329       2.56979205      -0.00000073      -0.00000016      -0.00000036
Mg       4.45101077       3.14733976       7.70937659       0.00000028       0.00000004       0.00000012
Cu       0.00000003      -0.00000001      -0.00000003       0.00000028       0.00000145      -0.00000354
F        1.54385585       1.09167081       5.13958447      -0.00004278      -0.00002965       0.00000022
F        4.39082524       3.10478206       5.13958464       0.00004061       0.00002857      -0.00000005
F        3.67908300       1.09167080       3.90681057       0.00002097      -0.00002794      -0.00003321
F        2.25559798       3.10478222       6.37235846      -0.00002054       0.00002931       0.00003421
F        2.25559811       3.10478199       3.90681049      -0.00001936       0.00002873      -0.00003572
F        3.67908245       1.09167089       6.37235831       0.00002131      -0.00003037       0.00003822
