9
Lattice="6.032178602301764 -1.67174349090083e-08 3.482679958302409 2.0107261915426298 5.687192302366774 3.482679946980526 1.549508408825819e-08 -2.9097264834791284e-09 6.965359889766531" Properties=species:S:1:pos:R:3:forces:R:3 energy=-20.85870933532715 free_energy=-20.85870933532715 stress="-2.7364907509763725e-05 -1.3190580183675138e-08 1.6771708466478685e-09 -1.3190580183675138e-08 -2.739621777436696e-05 7.367532361968188e-09 1.6771708466478685e-09 7.367532361968188e-09 -2.7408264941186644e-05" pbc="T T T"
Mg       2.01072682       1.42179829       3.48268027       0.00000343       0.00000157       0.00000150
Mg       6.03217832       4.26539393      10.44804040      -0.00000120      -0.00000278       0.00000129
C        0.00000079      -0.00000026      -0.00000004       0.00000042      -0.00000042       0.00000077
Br       2.02012974       1.42844758       6.96535992      -0.00122046      -0.00086297       0.00000045
Br       6.02277442       4.25874484       6.96535963       0.00122124       0.00086395      -0.00000215
Br       5.02211295       1.42844777       5.23216351       0.00060920      -0.00086428      -0.00105685
Br       3.02079142       4.25874442       8.69855565      -0.00061183       0.00086406       0.00105649
Br       3.02079155       4.25874444       5.23216340      -0.00061107       0.00086421      -0.00105748
Br       5.02211321       1.42844803       8.69855632       0.00061028      -0.00086340       0.00105596
