9
Lattice="6.461702389043032 3.5784734767687997e-08 3.73066569042113 2.1539008166111624 6.092151560844119 3.7306657137599957 -1.8403379017375823e-08 1.5570992932318976e-08 7.461331412717846" Properties=species:S:1:pos:R:3:forces:R:3 energy=-18.27338409423828 free_energy=-18.27338409423828 stress="-0.00011533455108292401 3.554144312190033e-09 -2.1132262606471386e-10 3.554144312190033e-09 -0.0001153292105300352 -6.339861080562059e-09 -2.1132262606471386e-10 -6.339861080562059e-09 -0.0001153305420302786" pbc="T T T"
Mg       2.15390083       1.52303800       3.73066593      -0.00000017      -0.00000029       0.00000075
Mg       6.46170230       4.56911334      11.19199721      -0.00000017      -0.00000219       0.00000105
C        0.00000012      -0.00000024      -0.00000010      -0.00000023       0.00000071       0.00000052
I        2.17661781       1.53910143       7.46133132      -0.00583360      -0.00412419      -0.00000055
I        6.43898529       4.55305033       7.46133134       0.00583324       0.00412434      -0.00000057
I        5.37339323       1.53910137       5.61567215       0.00291646      -0.00412470      -0.00505236
I        3.24220971       4.55305025       9.30699063      -0.00291714       0.00412512       0.00505170
I        3.24220984       4.55305042       5.61567219      -0.00291598       0.00412562      -0.00505242
I        5.37339359       1.53910157       9.30699061       0.00291759      -0.00412440       0.00505212
