9
Lattice="5.6691047008548505 4.570481666725335e-08 3.273059050826229 1.8897016295926128 5.344883111360842 3.2730590169644374 -4.656236683866448e-08 -7.439659281092503e-08 6.546118182300857" Properties=species:S:1:pos:R:3:forces:R:3 energy=-27.904163360595703 free_energy=-27.904163360595703 stress="0.00041060097282752395 2.4005336385357623e-08 1.8254381117799312e-08 2.4005336385357623e-08 0.00041059768409468234 3.775423529361888e-09 1.8254381117799312e-08 3.775423529361888e-09 0.0004105661646462977" pbc="T T T"
Mg       1.88970194       1.33622108       3.27305908       0.00000062       0.00000253       0.00000027
Mg       5.66910386       4.00866224       9.81917768      -0.00000427      -0.00000095       0.00000203
Co       0.00000014       0.00000024      -0.00000025      -0.00000317      -0.00000621      -0.00000004
Cl       1.83846590       1.29999152       6.54611814      -0.00063710      -0.00045317      -0.00000063
Cl       5.72034021       4.04489105       6.54611800       0.00064443       0.00045541       0.00000006
Cl       4.74987223       1.29999158       4.86521651       0.00031750      -0.00045125      -0.00055339
Cl       2.80893431       4.04489176       8.22701938      -0.00031725       0.00045100       0.00055339
Cl       2.80893443       4.04489139       4.86521694      -0.00031894       0.00045209      -0.00055557
Cl       4.74987203       1.29999144       8.22701949       0.00031798      -0.00044949       0.00055412
