9
Lattice="5.6519807453917155 1.3973615840034089e-08 3.2631726603149573 1.8839935912664756 5.328738653813592 3.263172666732579 3.7858878682017675e-09 1.0536949853690293e-08 6.5263453140725485" Properties=species:S:1:pos:R:3:forces:R:3 energy=-24.2835750579834 free_energy=-24.2835750579834 stress="0.00025165374972857535 1.925332071550656e-08 1.755104328537982e-08 1.925332071550656e-08 0.0002516791573725641 -6.48492948229773e-09 1.755104328537982e-08 -6.48492948229773e-09 0.0002516791282687336" pbc="T T T"
Mg       1.88399371       1.33218437       3.26317271       0.00000243      -0.00000232      -0.00000031
Mg       5.65198111       3.99655352       9.78951858       0.00000071      -0.00000226       0.00000241
Cu       0.00000014      -0.00000008      -0.00000001      -0.00000300       0.00000222      -0.00000132
Cl       1.89223054       1.33800961       6.52634552      -0.00035647      -0.00025183      -0.00000021
Cl       5.64374359       3.99072932       6.52634515       0.00035605       0.00025320       0.00000007
Cl       4.70586539       1.33800956       4.90189280       0.00017799      -0.00025320      -0.00030985
Cl       2.83010874       3.99072974       8.15079771      -0.00017801       0.00025374       0.00030693
Cl       2.83010901       3.99072907       4.90189244      -0.00017796       0.00025335      -0.00030914
Cl       4.70586514       1.33800961       8.15079764       0.00017846      -0.00025278       0.00031099
