9
Lattice="6.088813780298762 -1.1824491555221459e-07 3.5153782834451737 2.0296045447364945 5.740588394761664 3.5153781746967345 1.00200651438185e-07 -6.233655761877556e-08 7.030756393337731" Properties=species:S:1:pos:R:3:forces:R:3 energy=-28.798355102539062 free_energy=-28.798355102539062 stress="0.0003325507859699428 -2.7665910451446507e-08 2.0503772901747652e-08 -2.7665910451446507e-08 0.00033255270682275295 -2.7246500167166232e-08 2.0503772901747652e-08 -2.7246500167166232e-08 0.0003325616999063641" pbc="T T T"
Mg       2.02960554       1.43514750       3.51537815       0.00000321       0.00000134       0.00000018
Mg       6.08881382       4.30544139      10.54613454       0.00000013       0.00000091       0.00000013
Cr       0.00000005      -0.00000026      -0.00000003      -0.00000016       0.00000583      -0.00000081
Br       1.99026909       1.40733254       7.03075644       0.00020751       0.00014879       0.00000006
Br       6.12814920       4.33325542       7.03075642      -0.00021027      -0.00014770      -0.00000062
Br       5.09367891       1.40733237       5.23900192      -0.00010486       0.00014564       0.00017832
Br       3.02473895       4.33325576       8.82251151       0.00010414      -0.00015035      -0.00018336
Br       3.02473924       4.33325536       5.23900160       0.00010283      -0.00014746       0.00018069
Br       5.09367888       1.40733279       8.82251094      -0.00010259       0.00014298      -0.00017463
