9
Lattice="4.398851864227538 -4.290301516492344e-09 2.5396783171608663 1.4662839479560592 4.147277320196445 2.5396783219092898 -9.305251577388558e-10 5.157637826482195e-09 5.079356635933438" Properties=species:S:1:pos:R:3:forces:R:3 energy=-44.123077392578125 free_energy=-44.123077392578125 stress="0.00026964902644976974 5.266283054083942e-08 2.9026796521947063e-09 5.266283054083942e-08 0.0002696368028409779 -8.010675678349344e-09 2.9026796521947063e-09 -8.010675678349344e-09 0.00026956413057632744" pbc="T T T"
Mg       1.46628385       1.03681950       2.53967841       0.00000021       0.00000015      -0.00000017
Mg       4.39885188       3.11045786       7.61903499      -0.00000010       0.00000020      -0.00000028
Cr       0.00000014      -0.00000003       0.00000015      -0.00000535       0.00000160      -0.00000233
F        1.52555893       1.07873303       5.07935660      -0.00035110      -0.00024709       0.00000010
F        4.33957685       3.06854425       5.07935670       0.00035480       0.00024983       0.00000089
F        3.63607249       1.07873309       3.86085096       0.00017510      -0.00024825      -0.00030416
F        2.22906325       3.06854439       6.29786210      -0.00017504       0.00024697       0.00030243
F        2.22906341       3.06854420       3.86085092      -0.00017422       0.00024518      -0.00030094
F        3.63607243       1.07873299       6.29786227       0.00017586      -0.00024840       0.00030488
