9
Lattice="5.819643638914751 9.192767695003772e-08 3.359972923143025 1.9398813106286703 5.486812435604721 3.3599729041132247 9.915886231442854e-08 4.6809247560960866e-08 6.719945674537835" Properties=species:S:1:pos:R:3:forces:R:3 energy=-32.05947494506836 free_energy=-32.05947494506836 stress="2.1175008441787213e-05 4.95280350065741e-09 -1.3099642259817301e-08 4.95280350065741e-09 2.1157909941393882e-05 1.298526086657148e-08 -1.3099642259817301e-08 1.298526086657148e-08 2.1170819309190847e-05" pbc="T T T"
Mg       1.93988232       1.37170381       3.35997233       0.00000329       0.00000120      -0.00000230
Mg       5.81964380       4.11510921      10.07991827       0.00000190       0.00000059      -0.00000319
Cr      -0.00000017      -0.00000021       0.00000030       0.00000129       0.00000147      -0.00000290
Cl       1.86791449       1.32081482       6.71994587       0.00112568       0.00079620       0.00000211
Cl       5.89161022       4.16599789       6.71994601      -0.00112677      -0.00079654      -0.00000053
Cl       4.88568641       1.32081463       4.97763457      -0.00056446       0.00079805       0.00097580
Cl       2.87383880       4.16599733       8.46225735       0.00055989      -0.00079636      -0.00097219
Cl       2.87383797       4.16599778       4.97763428       0.00056278      -0.00079974       0.00097706
Cl       4.88568635       1.32081506       8.46225708      -0.00056365       0.00079519      -0.00097390
