9
Lattice="5.996469583808752 -2.0823330888045217e-08 3.4620631996371727 1.9988231660895266 5.653525727698481 3.4620632150194997 -7.342859273943887e-08 -3.308247284407049e-08 6.924126526456456" Properties=species:S:1:pos:R:3:forces:R:3 energy=-21.113082885742188 free_energy=-21.113082885742188 stress="0.00030080327996984124 -4.1266581263244007e-08 -3.272873883020111e-08 -4.1266581263244007e-08 0.00030085170874372125 -2.890059924709476e-08 -3.272873883020111e-08 -2.890059924709476e-08 0.00030081160366535187" pbc="T T T"
Mg       1.99882308       1.41338091       3.46206327      -0.00000166      -0.00000219      -0.00000159
Mg       5.99646969       4.24014359      10.38619034      -0.00000013      -0.00000275       0.00000329
Cu       0.00000014       0.00000014      -0.00000025      -0.00000119       0.00000111      -0.00000049
Br       2.01555729       1.42521443       6.92412645      -0.00221391      -0.00156443      -0.00000143
Br       5.97973514       4.22831152       6.92412609       0.00221571       0.00156705       0.00000119
Br       4.98869076       1.42521463       5.20758703       0.00110742      -0.00156525      -0.00191817
Br       3.00660165       4.22831175       8.64066588      -0.00110588       0.00156549       0.00191566
Br       3.00660208       4.22831139       5.20758689      -0.00110686       0.00156532      -0.00191592
Br       4.98869080       1.42521434       8.64066601       0.00110655      -0.00156440       0.00191759
