9
Lattice="6.477880594735953 2.3247082934494147e-08 3.7400061317986677 2.1592935537980327 6.107404484905854 3.740006131275829 4.163341195892247e-09 2.303587180893969e-09 7.480012256386258" Properties=species:S:1:pos:R:3:forces:R:3 energy=-20.80582046508789 free_energy=-20.80582046508789 stress="0.0002513154176995158 5.9412776920453325e-09 1.6526281454432024e-09 5.9412776920453325e-09 0.00025131783331744373 -4.450806390110529e-09 1.6526281454432024e-09 -4.450806390110529e-09 0.00025130875292234123" pbc="T T T"
Mg       2.15929364       1.52685120       3.74000592      -0.00000023      -0.00000033      -0.00000056
Mg       6.47788041       4.58055310      11.22001863       0.00000041      -0.00000030      -0.00000012
Co       0.00000004      -0.00000000      -0.00000000      -0.00000023      -0.00000032       0.00000011
I        2.15137686       1.52125316       7.48001230      -0.00797824      -0.00564157      -0.00000019
I        6.48579726       4.58615139       7.48001229       0.00797781       0.00564110       0.00000016
I        5.40219215       1.52125333       5.60315295       0.00398909      -0.00564060      -0.00690890
I        3.23498200       4.58615127       9.35687150      -0.00398922       0.00564181       0.00690983
I        3.23498209       4.58615138       5.60315304      -0.00398910       0.00564171      -0.00690909
I        5.40219216       1.52125322       9.35687146       0.00398964      -0.00564151       0.00690878
