9
Lattice="4.146371640378763 2.0246536547300188e-08 2.3939088567318656 1.3821238849445037 3.9092369488293848 2.3939088814488945 8.339967421796553e-08 8.924449634992505e-08 4.787817569011274" Properties=species:S:1:pos:R:3:forces:R:3 energy=-38.57558822631836 free_energy=-38.57558822631836 stress="-4.718542913906276e-05 -1.0016714213634259e-07 -8.99817891308885e-08 -1.0016714213634259e-07 -4.722878657048568e-05 -3.177810370402767e-08 -8.99817891308885e-08 -3.177810370402767e-08 -4.742850796901621e-05" pbc="T T T"
Mg       1.38212324       0.97730886       2.39390742      -0.00000835      -0.00000505       0.00000020
Mg       4.14637094       2.93192746       7.18172746      -0.00000790      -0.00000573      -0.00000255
C       -0.00000298      -0.00000185      -0.00000051      -0.00004326      -0.00002449      -0.00000925
F        1.22169604       0.86386946       4.78781726       0.00113940       0.00080746       0.00000025
F        4.30680279       3.04536984       4.78781764      -0.00109518      -0.00078183       0.00000509
F        3.53552495       0.86386853       3.45192719      -0.00055617       0.00079465       0.00097519
F        1.99297126       3.04536898       6.12370872       0.00056201      -0.00078839      -0.00097179
F        1.99297124       3.04536868       3.45192730       0.00056112      -0.00079292       0.00097620
F        3.53552500       0.86386822       6.12370870      -0.00055152       0.00079578      -0.00097275
