9
Lattice="6.574052980409267 -1.644038859213919e-09 3.7955313024033384 2.191350968871267 6.198076681371996 3.795531342324448 -3.903002713273138e-08 2.12947615149577e-08 7.5910626724086425" Properties=species:S:1:pos:R:3:forces:R:3 energy=-24.763652801513672 free_energy=-24.763652801513672 stress="9.826219320530072e-05 -6.067155222666543e-09 -1.174564667749678e-09 -6.067155222666543e-09 9.826968744164333e-05 5.1512181187263195e-09 -1.174564667749678e-09 5.1512181187263195e-09 9.826070163398981e-05" pbc="T T T"
Mg       2.19135086       1.54951889       3.79553134       0.00000008       0.00000043      -0.00000020
Mg       6.57405271       4.64855786      11.38659392      -0.00000027      -0.00000029      -0.00000038
Cr      -0.00000015      -0.00000023      -0.00000017       0.00000228       0.00000235       0.00000245
I        2.16931255       1.53393573       7.59106271       0.00042791       0.00030288       0.00000061
I        6.59609176       4.66414125       7.59106271      -0.00043130      -0.00030455       0.00000072
I        5.48939657       1.53393567       5.67421128      -0.00021368       0.00030169       0.00037006
I        3.27600733       4.66414102       9.50791414       0.00021539      -0.00030378      -0.00037306
I        3.27600733       4.66414103       5.67421121       0.00021431      -0.00030264       0.00037190
I        5.48939667       1.53393556       9.50791410      -0.00021483       0.00030395      -0.00037203
