9
Lattice="5.745796452517974 -1.880865112688495e-11 3.3173371167960704 1.9152655109853225 5.417188867450267 3.3173370703245144 1.9402670540954408e-08 -4.3196104334665e-08 6.634674199985716" Properties=species:S:1:pos:R:3:forces:R:3 energy=-29.04660415649414 free_energy=-29.04660415649414 stress="-1.6838246665429324e-05 -2.232799722889922e-08 3.420094429884557e-08 -2.232799722889922e-08 -1.696576873655431e-05 -2.683434097150439e-08 3.420094429884557e-08 -2.683434097150439e-08 -1.691524994384963e-05" pbc="T T T"
Mg       1.91526666       1.35429741       3.31733718       0.00000618       0.00000188       0.00000084
Mg       5.74579613       4.06289314       9.95201271      -0.00000135       0.00000673       0.00000777
Fe       0.00000000       0.00000003      -0.00000005      -0.00000482      -0.00000396      -0.00000484
Cl       1.81775939       1.28534943       6.63467420       0.00031257       0.00022009      -0.00000059
Cl       5.84330233       4.13183857       6.63467397      -0.00030808      -0.00021999      -0.00000202
Cl       4.83691634       1.28534995       4.89156210      -0.00015831       0.00022151       0.00026999
Cl       2.82414505       4.13183836       8.37778546       0.00015420      -0.00022149      -0.00027075
Cl       2.82414542       4.13183893       4.89156297       0.00015440      -0.00022075       0.00026844
Cl       4.83691667       1.28534951       8.37778510      -0.00015456       0.00021628      -0.00026907
