9
Lattice="4.443653323886852 -3.992434882278739e-08 2.565544457613928 1.4812177293136477 4.189516603221649 2.565544470906152 -1.9553610687692523e-08 2.4530891032519096e-09 5.131088949095705" Properties=species:S:1:pos:R:3:forces:R:3 energy=-41.30065155029297 free_energy=-41.30065155029297 stress="0.0001746087073115632 -5.954904125360372e-09 2.6008507347796694e-08 -5.954904125360372e-09 0.00017463992116972804 -7.825595815802444e-08 2.6008507347796694e-08 -7.825595815802444e-08 0.0001745745976222679" pbc="T T T"
Mg       1.48121770       1.04737924       2.56554453      -0.00000041       0.00000109       0.00000001
Mg       4.44365325       3.14213730       7.69663335       0.00000038      -0.00000074       0.00000001
Fe       0.00000004       0.00000010      -0.00000005      -0.00000197       0.00000063       0.00000414
F        1.54244293       1.09067177       5.13108893      -0.00106150      -0.00075105      -0.00000050
F        4.38242819       3.09884459       5.13108887       0.00106332       0.00075404      -0.00000005
F        3.67243189       1.09067188       3.90133928       0.00053077      -0.00075227      -0.00092130
F        2.25243910       3.09884477       6.36083867      -0.00052836       0.00074786       0.00091634
F        2.25243912       3.09884478       3.90133934      -0.00053223       0.00075205      -0.00092021
F        3.67243198       1.09067194       6.36083851       0.00053018      -0.00075181       0.00092154
