9
Lattice="6.467233132844244 1.2095380836107553e-08 3.733858646073076 2.1557443626201516 6.097365795539019 3.7338586917961294 1.388034826269932e-09 5.698065309875786e-08 7.467717289741939" Properties=species:S:1:pos:R:3:forces:R:3 energy=-22.270999908447266 free_energy=-22.270999908447266 stress="2.2558482669410296e-05 -2.3028317031048573e-09 -1.19713066126792e-08 -2.3028317031048573e-09 2.255964500363916e-05 2.0120479504726063e-08 -1.19713066126792e-08 2.0120479504726063e-08 2.2555461328011006e-05" pbc="T T T"
Mg       2.15574444       1.52434165       3.73385848       0.00000047      -0.00000054      -0.00000095
Mg       6.46723328       4.57302462      11.20157536       0.00000005       0.00000037      -0.00000092
Fe       0.00000020      -0.00000003      -0.00000028      -0.00000122      -0.00000269       0.00000438
I        2.02868001       1.43449322       7.46771733       0.00133556       0.00094416       0.00000022
I        6.59429693       4.66287221       7.46771738      -0.00133163      -0.00094271       0.00000104
I        5.45289307       1.43449341       5.49074690      -0.00066574       0.00094176       0.00115598
I        3.17008442       4.66287245       9.44468819       0.00066597      -0.00094348      -0.00115499
I        3.17008448       4.66287277       5.49074681       0.00066532      -0.00094258       0.00115506
I        5.45289319       1.43449314       9.44468834      -0.00066883       0.00094579      -0.00115990
