9
Lattice="6.050626919103248 -2.5885888770226003e-08 3.4933312562652765 2.0168756270253816 5.704585873686197 3.4933312359488 1.7290842959100814e-08 -1.2656026265075188e-08 6.986662482581917" Properties=species:S:1:pos:R:3:forces:R:3 energy=-26.028953552246094 free_energy=-26.028953552246094 stress="-0.000288920447928831 3.76592694806277e-08 -1.9966035935681248e-08 3.76592694806277e-08 -0.00028891905094496906 4.112433416025851e-08 -1.9966035935681248e-08 4.112433416025851e-08 -0.00028891320107504725" pbc="T T T"
Mg       2.01687585       1.42614633       3.49333087      -0.00000006      -0.00000037       0.00000021
Mg       6.05062710       4.27843959      10.47999397       0.00000154       0.00000044      -0.00000036
Fe      -0.00000049      -0.00000005       0.00000033       0.00000908      -0.00000540      -0.00000983
Br       1.87430043       1.32533084       6.98666255       0.00146298       0.00103327      -0.00000054
Br       6.19320216       4.37925510       6.98666249      -0.00146548      -0.00103564       0.00000043
Br       5.11347667       1.32533051       5.11652335      -0.00073626       0.00103967       0.00127248
Br       2.95402608       4.37925491       8.85680143       0.00072888      -0.00103086      -0.00126144
Br       2.95402573       4.37925554       5.11652334       0.00073465      -0.00103940       0.00127062
Br       5.11347666       1.32533050       8.85680160      -0.00073522       0.00103815      -0.00127151
