9
Lattice="6.162030630666802 4.524424168723481e-08 3.5576499999351907 2.0540102635894444 5.809618133479447 3.5576499813841025 2.507400810750082e-08 -4.9903643743380564e-09 7.1152999564409" Properties=species:S:1:pos:R:3:forces:R:3 energy=-22.479320526123047 free_energy=-22.479320526123047 stress="0.00017913423653226346 -4.5777364121590836e-09 3.9842951160551365e-09 -4.5777364121590836e-09 0.00017912359908223152 3.086148225861507e-09 3.9842951160551365e-09 3.086148225861507e-09 0.00017911351460497826" pbc="T T T"
Mg       2.05401022       1.45240484       3.55765055       0.00000002       0.00000071       0.00000130
Mg       6.16203071       4.35721334      10.67295006       0.00000011      -0.00000040      -0.00000015
Ge       0.00000006       0.00000005      -0.00000017       0.00000121      -0.00000001      -0.00000163
Br       2.03851432       1.44144716       7.11529993       0.00085368       0.00060295      -0.00000012
Br       6.17752645       4.36817090       7.11529982      -0.00085355      -0.00060305       0.00000142
Br       5.14277346       1.44144763       5.32305493      -0.00042682       0.00060219       0.00073952
Br       3.07326731       4.36817077       8.90754470       0.00042678      -0.00060385      -0.00073929
Br       3.07326732       4.36817060       5.32305512       0.00042504      -0.00060213       0.00073874
Br       5.14277382       1.44144740       8.90754480      -0.00042646       0.00060358      -0.00073970
