9
Lattice="5.932507940325461 7.72284029961348e-08 3.425134942722073 1.9775027476508877 5.593222228231966 3.42513489411362 1.982304875861635e-08 -4.551593316631117e-08 6.85026985110966" Properties=species:S:1:pos:R:3:forces:R:3 energy=-26.116727828979492 free_energy=-26.116727828979492 stress="1.5115504538698588e-05 3.336941034604024e-08 4.094202310511719e-08 3.336941034604024e-08 1.5127611732168589e-05 -3.51715740976033e-08 4.094202310511719e-08 -3.51715740976033e-08 1.5076414456416387e-05" pbc="T T T"
Mg       1.97750237       1.39830533       3.42513462      -0.00000113       0.00000038      -0.00000129
Mg       5.93250765       4.19491680      10.27540444      -0.00000152       0.00000108      -0.00000121
Ge      -0.00000012      -0.00000000       0.00000011       0.00000262       0.00000525      -0.00000092
Cl       1.89045998       1.33675655       6.85026990      -0.00057450      -0.00040703      -0.00000025
Cl       6.01955159       4.25646558       6.85026969       0.00056928       0.00040396       0.00000087
Cl       4.98727890       1.33675664       5.06232074       0.00028504      -0.00040127      -0.00049379
Cl       2.92273213       4.25646556       8.63821937      -0.00028084       0.00040014       0.00049108
Cl       2.92273205       4.25646577       5.06232081      -0.00028594       0.00040270      -0.00049268
Cl       4.98727824       1.33675682       8.63821906       0.00028697      -0.00040533       0.00049834
