9
Lattice="4.418375566735593 -1.3134882182628271e-08 2.550950258479463 1.472791834066737 4.165684443401712 2.550950274289798 -5.8911067041323e-08 -2.229276175386689e-08 5.101900618995865" Properties=species:S:1:pos:R:3:forces:R:3 energy=-43.062530517578125 free_energy=-43.062530517578125 stress="0.0003983367350883782 -5.721490392573969e-09 3.282208993482527e-08 -5.721490392573969e-09 0.00039829229353927076 -9.807774148384851e-09 3.282208993482527e-08 -9.807774148384851e-09 0.00039831013418734074" pbc="T T T"
Mg       1.47279173       1.04142127       2.55095031      -0.00000140      -0.00000040       0.00000063
Mg       4.41837538       3.12426334       7.65285061       0.00000046      -0.00000044      -0.00000065
Mn       0.00000000      -0.00000021       0.00000016       0.00000070       0.00001548      -0.00001045
F        1.56119181       1.10392922       5.10190042      -0.00780970      -0.00552183      -0.00000055
F        4.32997562       3.06175522       5.10190063       0.00780168       0.00551677      -0.00000039
F        3.63777964       1.10392934       3.90298214       0.00390294      -0.00551896      -0.00675969
F        2.25338776       3.06175504       6.30081914      -0.00390236       0.00551872       0.00675925
F        2.25338756       3.06175504       3.90298210      -0.00389960       0.00551419      -0.00675470
F        3.63777978       1.10392937       6.30081903       0.00390726      -0.00552357       0.00676667
