9
Lattice="6.559819392035372 -1.0793284153133982e-08 3.7873134491197975 2.186606456986154 6.184656861626787 3.7873134436631815 1.3613847144039765e-08 2.9435206536778084e-09 7.574626874659688" Properties=species:S:1:pos:R:3:forces:R:3 energy=-24.1105899810791 free_energy=-24.1105899810791 stress="8.481134864268824e-05 -7.968073312270008e-09 -8.086622926839482e-09 -7.968073312270008e-09 8.481613622279838e-05 7.532847234870133e-09 -8.086622926839482e-09 7.532847234870133e-09 8.482736302539706e-05" pbc="T T T"
Mg       2.18660646       1.54616420       3.78731347      -0.00000108      -0.00000086       0.00000002
Mg       6.55981926       4.63849238      11.36193972       0.00000029      -0.00000049      -0.00000253
Mn       0.00000010       0.00000021       0.00000067       0.00000103      -0.00000082      -0.00000552
I        2.19235443       1.55022861       7.57462688       0.00052446       0.00037158       0.00000010
I        6.55407132       4.63442827       7.57462710      -0.00052554      -0.00037102       0.00000082
I        5.46364232       1.55022841       5.68594817      -0.00026303       0.00037207       0.00045552
I        3.28278380       4.63442801       9.46330536       0.00026109      -0.00036868      -0.00045261
I        3.28278351       4.63442833       5.68594813       0.00026309      -0.00037196       0.00045598
I        5.46364224       1.55022901       9.46330556      -0.00026029       0.00037017      -0.00045174
