9
Lattice="5.76663592741847 8.261326151845868e-08 3.3293688471496368 1.9222120945999968 5.4368368805545035 3.3293687762995563 -1.6164897189610135e-08 -9.820357617688097e-08 6.658737722297689" Properties=species:S:1:pos:R:3:forces:R:3 energy=-31.403751373291016 free_energy=-31.403751373291016 stress="0.0002469629980623722 4.142337139967367e-09 -1.7534913965278065e-08 4.142337139967367e-09 0.0002469877654220909 -2.994487857677086e-08 -1.7534913965278065e-08 -2.994487857677086e-08 0.00024695388856343925" pbc="T T T"
Mg       1.92221221       1.35920826       3.32936943       0.00000115      -0.00000410       0.00000276
Mg       5.76663621       4.07762714       9.98810491       0.00000029      -0.00000332      -0.00000809
Mn      -0.00000001       0.00000052       0.00000026      -0.00000162      -0.00000273      -0.00000535
Cl       1.86891766       1.32152453       6.65873783       0.00222934       0.00157579       0.00000021
Cl       5.81992992       4.11531248       6.65873792      -0.00222899      -0.00157275      -0.00000009
Cl       4.83217728       1.32152431       4.94789908      -0.00111647       0.00157968       0.00193506
Cl       2.85667116       4.11531267       8.36957611       0.00111363      -0.00157248      -0.00192917
Cl       2.85667025       4.11531213       4.94789914       0.00111467      -0.00157620       0.00193204
Cl       4.83217736       1.32152544       8.36957663      -0.00111208       0.00157600      -0.00192752
