9
Lattice="6.093263890596681 6.263600803744196e-08 3.517947620097584 2.0310880237193656 5.7447844154378185 3.5179476181345533 -2.1367675258340068e-08 -1.7513422976308447e-08 7.035895277205052" Properties=species:S:1:pos:R:3:forces:R:3 energy=-27.84552574157715 free_energy=-27.84552574157715 stress="0.00021695565374102443 -3.8955647596594645e-09 6.458719337132379e-09 -3.8955647596594645e-09 0.00021690104040317237 -5.394667823566124e-09 6.458719337132379e-09 -5.394667823566124e-09 0.00021690467838197947" pbc="T T T"
Mg       2.03108847       1.43619501       3.51794784       0.00000093      -0.00000317       0.00000030
Mg       6.09326330       4.30858899      10.55384332      -0.00000227       0.00000210       0.00000131
Mn       0.00000014      -0.00000013       0.00000015      -0.00000303       0.00000081      -0.00000089
Br       1.96659018       1.39058859       7.03589534       0.00154342       0.00109012      -0.00000109
Br       6.15776189       4.35419567       7.03589516      -0.00154369      -0.00108997      -0.00000065
Br       5.10996898       1.39058897       5.22106423      -0.00077263       0.00109280       0.00133706
Br       3.01438286       4.35419569       8.85072591       0.00077321      -0.00109088      -0.00133786
Br       3.01438295       4.35419583       5.22106416       0.00077415      -0.00109248       0.00133770
Br       5.10996881       1.39058919       8.85072596      -0.00077022       0.00109070      -0.00133595
