9
Lattice="6.3623097673959395 -1.7944463838173857e-07 3.6732811674021253 2.120769809656012 5.998442455504033 3.6732810697616034 5.8147612927927275e-08 -7.846813470132254e-08 7.346562234089639" Properties=species:S:1:pos:R:3:forces:R:3 energy=-28.886737823486328 free_energy=-28.886737823486328 stress="-0.00017381389625370502 -9.958943891774652e-09 1.676811223205732e-08 -9.958943891774652e-09 -0.00017382466467097402 -1.9527842454181155e-08 1.676811223205732e-08 -1.9527842454181155e-08 -0.00017381073848810047" pbc="T T T"
Mg       2.12076996       1.49960946       3.67328099       0.00000026      -0.00000191      -0.00000015
Mg       6.36230984       4.49883154      11.01984316      -0.00000016      -0.00000020      -0.00000021
Nb       0.00000010       0.00000047       0.00000014      -0.00000211      -0.00000436      -0.00000015
Br       2.09554518       1.48177415       7.34656215       0.00061938       0.00043836      -0.00000009
Br       6.38753400       4.51666842       7.34656212      -0.00061530      -0.00043480       0.00000030
Br       5.31453703       1.48177419       5.48807667      -0.00030945       0.00043738       0.00053570
Br       3.16854282       4.51666810       9.20504796       0.00030856      -0.00043571      -0.00053421
Br       3.16854281       4.51666841       5.48807676       0.00030676      -0.00043447       0.00053224
Br       5.31453682       1.48177411       9.20504790      -0.00030795       0.00043577      -0.00053346
