9
Lattice="5.708032506455211 -3.357054557939919e-08 3.2955342295832124 1.9026774955070827 5.3815847064906555 3.29553418627155 -7.481825612735763e-09 -5.833614806061576e-08 6.59106847212532" Properties=species:S:1:pos:R:3:forces:R:3 energy=-25.953760147094727 free_energy=-25.953760147094727 stress="9.955169662134722e-05 1.020753925828899e-09 -1.992708575926372e-08 1.020753925828899e-09 9.95683585642837e-05 -7.130452228665263e-09 -1.992708575926372e-08 -7.130452228665263e-09 9.957365546142682e-05" pbc="T T T"
Mg       1.90267762       1.34539604       3.29553402       0.00000042      -0.00000025      -0.00000048
Mg       5.70803246       4.03618895       9.88660232       0.00000156       0.00000380      -0.00000095
Ni       0.00000008      -0.00000003      -0.00000007      -0.00000216      -0.00000129       0.00000114
Cl       1.88324448       1.33165500       6.59106836       0.00047657       0.00033645       0.00000066
Cl       5.72746487       4.04992924       6.59106874      -0.00047132      -0.00033323       0.00000091
Cl       4.76641058       1.33165485       4.92647224      -0.00023854       0.00033480       0.00041030
Cl       2.84429990       4.04992953       8.25566453       0.00023493      -0.00033718      -0.00041167
Cl       2.84429991       4.04992966       4.92647228       0.00023617      -0.00033730       0.00041047
Cl       4.76641009       1.33165519       8.25566513      -0.00023751       0.00033401      -0.00040996
