9
Lattice="6.825940754547574 6.549521464574871e-08 3.9409586950575046 2.27531363167572 6.435558617161744 3.940958720904825 3.1457299681019606e-08 5.390005177299357e-08 7.881917335629338" Properties=species:S:1:pos:R:3:forces:R:3 energy=-25.13068962097168 free_energy=-25.13068962097168 stress="0.000138992938445881 1.493799928198314e-08 3.5113791874152867e-09 1.493799928198314e-08 0.0001389941171510145 -3.5325711245093316e-09 3.5113791874152867e-09 -3.5325711245093316e-09 0.00013898531324230134" pbc="T T T"
Mg       2.27531372       1.60888983       3.94095863      -0.00000010       0.00000058       0.00000019
Mg       6.82594061       4.82666894      11.82287572      -0.00000014      -0.00000064      -0.00000052
Nb       0.00000020       0.00000016      -0.00000012       0.00000082      -0.00000192       0.00000197
I        2.27349802       1.60760593       7.88191740      -0.00015456      -0.00010969       0.00000012
I        6.82775630       4.82795271       7.88191753       0.00015513       0.00010912       0.00000024
I        5.68919186       1.60760566       5.90986554       0.00007617      -0.00010756      -0.00013212
I        3.41206256       4.82795289       9.85396930      -0.00007650       0.00010862       0.00013237
I        3.41206254       4.82795290       5.90986571      -0.00007766       0.00010949      -0.00013395
I        5.68919187       1.60760593       9.85396929       0.00007689      -0.00010803       0.00013164
