9
Lattice="4.5778574919163795 8.626097683059839e-08 2.6430273579222185 1.5259525333079305 4.316045901475107 2.6430274364276856 6.670014814828781e-08 1.4331329864400524e-07 5.286054600316385" Properties=species:S:1:pos:R:3:forces:R:3 energy=-44.75300216674805 free_energy=-44.75300216674805 stress="8.544766023987904e-05 1.8245034372199598e-09 -8.734381395925084e-08 1.8245034372199598e-09 8.521945710526779e-05 6.016584563894867e-08 -8.734381395925084e-08 6.016584563894867e-08 8.527950558345765e-05" pbc="T T T"
Mg       1.52595287       1.07901202       2.64302741       0.00000201       0.00000420       0.00000027
Mg       4.57785744       3.23703484       7.92908234      -0.00000162       0.00000178       0.00000543
Nb      -0.00000019       0.00000013      -0.00000016      -0.00000372      -0.00000420      -0.00000121
F        1.61808300       1.14415752       5.28605483       0.00582236       0.00411582      -0.00000029
F        4.48572749       3.17188816       5.28605473      -0.00581539      -0.00411558      -0.00000081
F        3.76881614       1.14415788       4.04432818      -0.00290915       0.00411633       0.00504059
F        2.33499398       3.17188847       6.52778115       0.00290903      -0.00411645      -0.00503999
F        2.33499380       3.17188804       4.04432810       0.00290856      -0.00411761       0.00503957
F        3.76881589       1.14415752       6.52778097      -0.00291193       0.00411558      -0.00504303
