9
Lattice="6.009928347384 9.054699959360461e-10 3.4698336808604124 2.0033094299308 5.666214797491205 3.46983371558954 -3.154869324119116e-08 2.0226016129259227e-08 6.939667416364737" Properties=species:S:1:pos:R:3:forces:R:3 energy=-23.09969139099121 free_energy=-23.09969139099121 stress="0.00011948204337386414 6.529833118662509e-09 -7.484912134536614e-10 6.529833118662509e-09 0.00011947185703320429 -8.90353035742919e-09 -7.484912134536614e-10 -8.90353035742919e-09 0.00011948142491746694" pbc="T T T"
Mg       2.00330939       1.41655354       3.46983361       0.00000037      -0.00000096      -0.00000127
Mg       6.00992824       4.24966132      10.40950103       0.00000054       0.00000178      -0.00000054
Ni       0.00000023       0.00000003       0.00000015      -0.00000207      -0.00000195       0.00000045
Br       1.99122558       1.40800932       6.93966746       0.00063685       0.00045213       0.00000042
Br       6.02201199       4.25820532       6.93966754      -0.00063476      -0.00045030      -0.00000015
Br       5.01431534       1.40800915       5.19428571      -0.00031823       0.00045063       0.00055192
Br       2.99892243       4.25820583       8.68504896       0.00031836      -0.00045164      -0.00055207
Br       2.99892248       4.25820568       5.19428572       0.00031954      -0.00045024       0.00055212
Br       5.01431533       1.40800908       8.68504906      -0.00032024       0.00045051      -0.00055100
