9
Lattice="4.4137583757732965 -2.717001459118775e-08 2.5482845775517093 1.4712527718751172 4.161331211772921 2.548284567909704 2.5755737592950778e-08 6.403051884785854e-09 5.096569110493187" Properties=species:S:1:pos:R:3:forces:R:3 energy=-38.11722946166992 free_energy=-38.11722946166992 stress="0.00028942941571585834 2.87828392231404e-08 -2.8643411198459034e-08 2.87828392231404e-08 0.00028935237787663937 -5.216107545891191e-10 -2.8643411198459034e-08 -5.216107545891191e-10 0.0002893545024562627" pbc="T T T"
Mg       1.47125288       1.04033291       2.54828453      -0.00000035       0.00000017      -0.00000010
Mg       4.41375843       3.12099866       7.64485367       0.00000058       0.00000066      -0.00000154
Ni      -0.00000005       0.00000002      -0.00000006       0.00000021      -0.00000166       0.00000226
F        1.50285664       1.06267988       5.09656908      -0.00032029      -0.00022744      -0.00000070
F        4.38215463       3.09865108       5.09656931       0.00032248       0.00022718      -0.00000049
F        3.66232994       1.06268013       3.84979632       0.00015990      -0.00022519      -0.00027740
F        2.22268108       3.09865095       6.34334194      -0.00016122       0.00022547       0.00027969
F        2.22268093       3.09865130       3.84979667      -0.00016034       0.00022703      -0.00027697
F        3.66233025       1.06267993       6.34334164       0.00015898      -0.00022577       0.00027539
