9
Lattice="6.528376670865158 -1.3879205593092947e-08 3.7691600475583193 2.176125569420938 6.155012507935169 3.769160003302117 1.74218986647929e-08 -4.188343354425879e-08 7.538320064941038" Properties=species:S:1:pos:R:3:forces:R:3 energy=-19.90127944946289 free_energy=-19.90127944946289 stress="7.372995605692267e-05 3.5047185154013505e-09 5.192726248992585e-09 3.5047185154013505e-09 7.372292020590976e-05 -7.473228702536971e-10 5.192726248992585e-09 -7.473228702536971e-10 7.371481478912756e-05" pbc="T T T"
Mg       2.17612572       1.53875325       3.76916019       0.00000010       0.00000082       0.00000024
Mg       6.52837657       4.61625937      11.30747985      -0.00000031       0.00000001      -0.00000031
Pd       0.00000001      -0.00000005       0.00000033       0.00000164      -0.00000049      -0.00000053
I        2.20788230       1.56120834       7.53832012       0.00012529       0.00008826       0.00000003
I        6.49661998       4.59380398       7.53832018      -0.00012568      -0.00008908      -0.00000026
I        5.42443560       1.56120839       5.68124196      -0.00006394       0.00008960       0.00010963
I        3.28006675       4.59380383       9.39539790       0.00006265      -0.00008808      -0.00010858
I        3.28006664       4.59380405       5.68124212       0.00006289      -0.00008972       0.00010853
I        5.42443546       1.56120866       9.39539781      -0.00006260       0.00008861      -0.00010875
