9
Lattice="4.53821778072697 -1.7602797575563752e-08 2.620141179214569 1.512739257467099 4.278672565429162 2.620141155276168 5.5565030541232406e-08 9.971940747769577e-09 5.240282262187715" Properties=species:S:1:pos:R:3:forces:R:3 energy=-36.414241790771484 free_energy=-36.414241790771484 stress="0.0006921691820025444 -2.1996239496502312e-08 -1.8733896212097534e-08 -2.1996239496502312e-08 0.0006921069580130279 1.0079824974695839e-08 -1.8733896212097534e-08 1.0079824974695839e-08 0.0006921507883816957" pbc="T T T"
Mg       1.51273918       1.06966850       2.62014093      -0.00000086       0.00000235      -0.00000119
Mg       4.53821786       3.20900439       7.86042363       0.00000055      -0.00000002       0.00000045
Pd       0.00000002      -0.00000009      -0.00000016       0.00000827      -0.00000167       0.00000297
F        1.61800798       1.14410440       5.24028233      -0.00194896      -0.00137721       0.00000059
F        4.43294897       3.13456803       5.24028234       0.00194573       0.00137477       0.00000007
F        3.72921388       1.14410451       4.02137750       0.00097553      -0.00137875      -0.00168679
F        2.32174314       3.13456805       6.45918712      -0.00097651       0.00137757       0.00168845
F        2.32174343       3.13456799       4.02137726      -0.00097551       0.00137761      -0.00168961
F        3.72921382       1.14410440       6.45918757       0.00097144      -0.00137459       0.00168476
