9
Lattice="5.839004738005457 5.332822731944076e-08 3.3711509959388977 1.946334952839354 5.505066477083372 3.3711510134455462 2.882832186619655e-08 4.182587873476196e-08 6.74230194194567" Properties=species:S:1:pos:R:3:forces:R:3 energy=-25.663042068481445 free_energy=-25.663042068481445 stress="6.489847146440297e-05 1.104263902540481e-09 1.8021033554305177e-09 1.104263902540481e-09 6.49110515951179e-05 -3.398298531465116e-08 1.8021033554305177e-09 -3.398298531465116e-08 6.49071007501334e-05" pbc="T T T"
Mg       1.94633468       1.37626713       3.37115104      -0.00000145       0.00000112      -0.00000041
Mg       5.83900521       4.12879962      10.11345203       0.00000059      -0.00000243      -0.00000542
Pd       0.00000002       0.00000012      -0.00000005       0.00000230      -0.00000036       0.00000565
Cl       1.92411873       1.36055741       6.74230212       0.00177082       0.00125197       0.00000033
Cl       5.86122086       4.14450909       6.74230210      -0.00177191      -0.00125206       0.00000010
Cl       4.87694530       1.36055721       5.03748676      -0.00088519       0.00125192       0.00153517
Cl       2.90839448       4.14450915       8.44711753       0.00088845      -0.00125410      -0.00153354
Cl       2.90839390       4.14450902       5.03748682       0.00088185      -0.00125110       0.00153254
Cl       4.87694568       1.36055755       8.44711746      -0.00088527       0.00125511      -0.00153438
