9
Lattice="6.230470237615529 2.4951481981833454e-09 3.597163752234654 2.0768234485733283 5.874143670229131 3.5971636938950686 6.761732456223624e-08 -2.3638441830744386e-08 7.1943273873526605" Properties=species:S:1:pos:R:3:forces:R:3 energy=-28.693838119506836 free_energy=-28.693838119506836 stress="0.00010520045907469466 3.008796412018455e-08 -3.0338709322563773e-09 3.008796412018455e-08 0.00010516875772736967 -5.0893844694144263e-11 -3.0338709322563773e-09 -5.0893844694144263e-11 0.00010514575842535123" pbc="T T T"
Mg       2.07682353       1.46853608       3.59716385      -0.00000002       0.00000042       0.00000065
Mg       6.23046999       4.40560731      10.79149115      -0.00000065      -0.00000109       0.00000041
Sc       0.00000007      -0.00000018      -0.00000013      -0.00000037       0.00000141       0.00000493
Br       2.09949108       1.48456421       7.19432743       0.00153528       0.00108586       0.00000101
Br       6.20780276       4.38957950       7.19432740      -0.00153539      -0.00108591      -0.00000044
Br       5.18072477       1.48456424       5.41537615      -0.00076775       0.00108664       0.00133026
Br       3.12656904       4.38957955       8.97327868       0.00077026      -0.00108980      -0.00133447
Br       3.12656876       4.38957951       5.41537618       0.00076881      -0.00108697       0.00133161
Br       5.18072505       1.48456435       8.97327853      -0.00077014       0.00108939      -0.00133371
