9
Lattice="5.981153211597532 8.518306300571364e-07 3.4532198571534867 1.9937186624589744 5.639087468213339 3.4532196455902247 9.886316543616037e-07 4.3995702254581525e-07 6.906438001946792" Properties=species:S:1:pos:R:3:forces:R:3 energy=-21.752843856811523 free_energy=-21.752843856811523 stress="-1.106175477616489e-05 -4.6176348855730964e-10 1.8064632456571417e-08 -4.6176348855730964e-10 -1.1104334589617793e-05 -5.708058470332844e-09 1.8064632456571417e-08 -5.708058470332844e-09 -1.1104368240921758e-05" pbc="T T T"
Mg       1.99372366       1.40976708       3.45321460       0.00001722      -0.00001845      -0.00001474
Mg       5.98115216       4.22931466      10.35966297      -0.00000687      -0.00000848       0.00001615
S       -0.00000045       0.00000034       0.00000016      -0.00000001       0.00000434       0.00000530
Cl       1.98796238       1.40570570       6.90643938      -0.00137973      -0.00097024       0.00000490
Cl       5.98690801       4.23338638       6.90643869       0.00137550       0.00098002      -0.00000399
Cl       4.98717280       1.40570302       5.17483955       0.00067854      -0.00096005      -0.00119007
Cl       2.98769963       4.23338831       8.63803712      -0.00068006       0.00096369       0.00118387
Cl       2.98770085       4.23339054       5.17484363      -0.00067645       0.00097758      -0.00118244
Cl       4.98717280       1.40569892       8.63803453       0.00067201      -0.00096828       0.00118119
