9
Lattice="5.012958496600157 2.6345456593468363e-07 2.894233394026504 1.6709862881180373 4.726260673720842 2.8942336119228376 8.28277691233796e-07 8.525484811886931e-07 5.78846535343371" Properties=species:S:1:pos:R:3:forces:R:3 energy=-45.28705978393555 free_energy=-45.28705978393555 stress="-3.035986992472317e-05 1.0520727755647385e-07 -2.0174518056137458e-07 1.0520727755647385e-07 -2.9949542295071296e-05 -3.287196648216195e-08 -2.0174518056137458e-07 -3.287196648216195e-08 -3.044743243663106e-05" pbc="T T T"
Mg       1.67098826       1.18154900       2.89422518       0.00000879      -0.00009405      -0.00003988
Mg       5.01295624       3.54470332       8.68270847      -0.00001610       0.00003351       0.00005361
Sc       0.00000022      -0.00000079       0.00000130      -0.00000401      -0.00000423      -0.00001553
F        1.64341691       1.16206470       5.78847031      -0.00005743      -0.00006720       0.00001967
F        5.04052607       3.56419980       5.78846350       0.00005642       0.00008994      -0.00001836
F        4.19125549       1.16207071       4.31747047       0.00004412      -0.00004140      -0.00005487
F        2.49269356       3.56419851       7.25945757      -0.00003834       0.00007245       0.00005078
F        2.49269757       3.56419781       4.31747226      -0.00000805       0.00007719      -0.00004756
F        4.19124873       1.16206289       7.25946029       0.00001444      -0.00006634       0.00005251
