9
Lattice="4.322122967501875 -2.6210196443186806e-08 2.495378814851154 1.4407076146897342 4.074936525105916 2.4953788433139685 -1.5234350981576344e-08 2.4087375610757358e-08 4.990757656088983" Properties=species:S:1:pos:R:3:forces:R:3 energy=-35.833473205566406 free_energy=-35.833473205566406 stress="0.00017121224664151669 -4.031822697925236e-08 -2.6097810135183863e-08 -4.031822697925236e-08 0.0001712693047011271 1.0330358790611172e-08 -2.6097810135183863e-08 1.0330358790611172e-08 0.00017121205746661872" pbc="T T T"
Mg       1.44070753       1.01873413       2.49537859       0.00000082      -0.00000030      -0.00000063
Mg       4.32212301       3.05620249       7.48613656       0.00000048       0.00000117       0.00000032
S        0.00000007      -0.00000003       0.00000002      -0.00000115      -0.00000114      -0.00000053
F        1.52725464       1.07993200       4.99075767       0.00214067       0.00151467      -0.00000033
F        4.23557604       2.99500451       4.99075767      -0.00214058      -0.00151525      -0.00000013
F        3.55849550       1.07993186       3.81802019      -0.00107048       0.00151350       0.00185372
F        2.20433497       2.99500453       6.16349524       0.00106984      -0.00151376      -0.00185314
F        2.20433486       2.99500449       3.81802017       0.00107022      -0.00151202       0.00185239
F        3.55849563       1.07993208       6.16349513      -0.00106947       0.00151297      -0.00185166
