9
Lattice="6.1636492572584896 -9.55590424992964e-08 3.558584645313281 2.0545496597022095 5.811144693070069 3.558584649856975 1.3094781117820034e-07 9.815897116672535e-08 7.117169063818337" Properties=species:S:1:pos:R:3:forces:R:3 energy=-19.203855514526367 free_energy=-19.203855514526367 stress="-2.4155091523425654e-05 -6.739428126678604e-09 -2.787758468514312e-09 -6.739428126678604e-09 -2.413140464341268e-05 6.222415027679062e-09 -2.787758468514312e-09 6.222415027679062e-09 -2.416057395748794e-05" pbc="T T T"
Mg       2.05454868       1.45278575       3.55858491      -0.00000142      -0.00000016       0.00000066
Mg       6.16364892       4.35835865      10.67575324      -0.00000144      -0.00000026      -0.00000068
S        0.00000018      -0.00000020       0.00000017       0.00000122       0.00000183       0.00000011
Br       2.09220734       1.47941422       7.11716899       0.00062293       0.00043991       0.00000080
Br       6.12599231       4.33173132       7.11716872      -0.00062492      -0.00044265      -0.00000037
Br       5.11754579       1.47941415       5.37048909      -0.00030974       0.00044057       0.00054157
Br       3.10065427       4.33173076       8.86384987       0.00031225      -0.00044030      -0.00054154
Br       3.10065328       4.33173011       5.37048865       0.00031200      -0.00044045       0.00054079
Br       5.11754548       1.47941421       8.86385003      -0.00031079       0.00044158      -0.00054133
