9
Lattice="6.587274151731227 7.212928103251287e-08 3.803164537424916 2.195758091764693 6.210541926029332 3.8031645838725083 -1.1561742216085152e-07 -2.486743015316558e-08 7.606329275105081" Properties=species:S:1:pos:R:3:forces:R:3 energy=-16.213708877563477 free_energy=-16.213708877563477 stress="-6.571201811311767e-05 1.6758491483415128e-08 -5.931146684901023e-09 1.6758491483415128e-08 -6.568279059138149e-05 1.3655617969732248e-08 -5.931146684901023e-09 1.3655617969732248e-08 -6.570732512045652e-05" pbc="T T T"
Mg       2.19575805       1.55263522       3.80316471       0.00000037      -0.00000056      -0.00000015
Mg       6.58727395       4.65790662      11.40949366      -0.00000120      -0.00000012       0.00000039
S       -0.00000128      -0.00000011       0.00000124      -0.00000377      -0.00000113       0.00000585
I        2.31515118       1.63705886       7.60632934      -0.00690281      -0.00488001      -0.00000109
I        6.46788136       4.57348298       7.60632914       0.00690451       0.00488114      -0.00000093
I        5.42969859       1.63705924       5.80814371       0.00345183      -0.00488213      -0.00597993
I        3.35333387       4.57348281       9.40451388      -0.00345135       0.00488159       0.00597813
I        3.35333419       4.57348294       5.80814397      -0.00345019       0.00488206      -0.00597879
I        5.42969856       1.63705933       9.40451394       0.00345261      -0.00488085       0.00597650
