9
Lattice="5.897795699222063 7.046985088388865e-10 3.405093900759952 1.965931892046943 5.5604950446562755 3.405093915236696 8.42601091644423e-09 2.3688383820672335e-08 6.810187786925634" Properties=species:S:1:pos:R:3:forces:R:3 energy=-32.25373840332031 free_energy=-32.25373840332031 stress="0.00014528186875395477 -7.173240668123526e-09 1.2667730864279747e-08 -7.173240668123526e-09 0.00014528016617987305 -1.3486178396249215e-08 1.2667730864279747e-08 -1.3486178396249215e-08 0.00014529196778312325" pbc="T T T"
Mg       1.96593138       1.39012393       3.40509326      -0.00000161      -0.00000107      -0.00000187
Mg       5.89779563       4.17037080      10.21528146       0.00000051      -0.00000126      -0.00000085
Sc      -0.00000007      -0.00000002       0.00000030       0.00000202       0.00000294      -0.00000208
Cl       1.98623516       1.40448036       6.81018769       0.00048684       0.00034495       0.00000045
Cl       5.87749296       4.15601490       6.81018792      -0.00049074      -0.00034691       0.00000103
Cl       4.90467845       1.40448033       5.12522419      -0.00024379       0.00034690       0.00042456
Cl       2.95904928       4.15601481       8.49515159       0.00024550      -0.00034578      -0.00042409
Cl       2.95904949       4.15601476       5.12522405       0.00024529      -0.00034554       0.00042410
Cl       4.90467807       1.40448041       8.49515185      -0.00024396       0.00034571      -0.00042138
