9
Lattice="6.743293926313673 6.639705706204505e-08 3.893242441619662 2.2477646617880205 6.3576385444090135 3.8932425159528847 -8.76732980642314e-08 2.9044832943610247e-08 7.786485035093992" Properties=species:S:1:pos:R:3:forces:R:3 energy=-24.41596221923828 free_energy=-24.41596221923828 stress="9.63944403338246e-05 -9.942488610192868e-09 -7.0881580604975625e-09 -9.942488610192868e-09 9.639265044825152e-05 1.1663431109809608e-08 -7.0881580604975625e-09 1.1663431109809608e-08 9.638629126129672e-05" pbc="T T T"
Mg       2.24776452       1.58940966       3.89324270      -0.00000087      -0.00000012      -0.00000025
Mg       6.74329381       4.76822901      11.67972770      -0.00000060       0.00000044       0.00000067
Ti       0.00000009      -0.00000009       0.00000022       0.00000156       0.00000044      -0.00000067
I        2.23745135       1.58211716       7.78648502       0.00056838       0.00040091      -0.00000056
I        6.75360705       4.77552156       7.78648482      -0.00056821      -0.00040188       0.00000019
I        5.62456827       1.58211729       5.83093217      -0.00028372       0.00040077       0.00049111
I        3.36649026       4.77552141       9.74203761       0.00028334      -0.00040019      -0.00049006
I        3.36649025       4.77552158       5.83093199       0.00028380      -0.00040183       0.00049183
I        5.62456837       1.58211696       9.74203777      -0.00028373       0.00040149      -0.00049221
