9
Lattice="4.447572680680374 1.1351486015546189e-07 2.5678073994813038 1.4825242556709177 4.193212329842469 2.5678075350062866 -4.5040457330316944e-08 1.3413510713751624e-07 5.13561487697498" Properties=species:S:1:pos:R:3:forces:R:3 energy=-45.33102798461914 free_energy=-45.33102798461914 stress="0.00011224537593079731 -6.250980533195616e-08 7.814788460791533e-08 -6.250980533195616e-08 0.00011211667879251763 -6.000100682967968e-08 7.814788460791533e-08 -6.000100682967968e-08 0.00011221376189496368" pbc="T T T"
Mg       1.48252406       1.04830320       2.56780748      -0.00000007       0.00000094      -0.00000048
Mg       4.44757287       3.14490927       7.70342252       0.00000216      -0.00000046       0.00000009
Ti       0.00000018      -0.00000001       0.00000005       0.00000036      -0.00000053      -0.00000027
F        1.55774722       1.10149408       5.13561498       0.00298876       0.00211331       0.00000020
F        4.37234964       3.09171888       5.13561485      -0.00298795      -0.00211447      -0.00000012
F        3.66869929       1.10149386       3.91685632      -0.00149284       0.00211394       0.00258768
F        2.26139764       3.09171871       6.35437330       0.00149241      -0.00211304      -0.00258705
F        2.26139754       3.09171850       3.91685641       0.00149082      -0.00211087       0.00258547
F        3.66869903       1.10149381       6.35437335      -0.00149360       0.00211176      -0.00258657
