9
Lattice="5.853664957663166 1.806714852397767e-08 3.3796151237026373 1.9512216754974114 5.518888204528345 3.3796151134676453 2.7077376778826356e-08 6.61137220114745e-09 6.759230200505902" Properties=species:S:1:pos:R:3:forces:R:3 energy=-31.469892501831055 free_energy=-31.469892501831055 stress="0.0001806869258871302 2.534243392915414e-08 6.033823440887431e-11 2.534243392915414e-08 0.0001807066728360951 -1.463974008686364e-08 6.033823440887431e-11 -1.463974008686364e-08 0.00018068529607262462" pbc="T T T"
Mg       1.95122126       1.37972193       3.37961565      -0.00000295      -0.00000130       0.00000264
Mg       5.85366459       4.13916675      10.13884513      -0.00000169       0.00000293       0.00000082
V       -0.00000008       0.00000020       0.00000003       0.00000068      -0.00000203      -0.00000076
Cl       1.91094575       1.35124242       6.75923006      -0.00032820      -0.00023429      -0.00000070
Cl       5.89394105       4.16764543       6.75922996       0.00033125       0.00023420      -0.00000108
Cl       4.89819230       1.35124252       5.03454275       0.00016407      -0.00023220      -0.00028478
Cl       2.90669498       4.16764543       8.48391764      -0.00016470       0.00023391       0.00028641
Cl       2.90669454       4.16764551       5.03454288      -0.00016418       0.00023337      -0.00028742
Cl       4.89819225       1.35124274       8.48391769       0.00016572      -0.00023465       0.00028493
