9
Lattice="6.135092829544721 -7.128673139707202e-08 3.542097453936294 2.0450308734610863 5.784221108881086 3.542097458284941 4.23108308201254e-08 3.5244264844351836e-08 7.084194834588061" Properties=species:S:1:pos:R:3:forces:R:3 energy=-27.989656448364258 free_energy=-27.989656448364258 stress="0.0001866735692601651 2.8386881734121516e-09 2.521981234959725e-10 2.8386881734121516e-09 0.00018670294957701117 -2.2255945975047098e-09 2.521981234959725e-10 -2.2255945975047098e-09 0.00018669226847123355" pbc="T T T"
Mg       2.04503090       1.44605568       3.54209689      -0.00000062       0.00000114      -0.00000185
Mg       6.13509306       4.33816623      10.62629078       0.00000124       0.00000124      -0.00000460
V       -0.00000011      -0.00000014       0.00000028      -0.00000110       0.00000190       0.00000018
Br       2.03021050       1.43557573       7.08419499       0.00024989       0.00017689       0.00000065
Br       6.14991343       4.34864504       7.08419525      -0.00025187      -0.00017668       0.00000168
Br       5.11998740       1.43557563       5.30031189      -0.00012500       0.00017474       0.00021628
Br       3.06013615       4.34864530       8.86807881       0.00012694      -0.00017788      -0.00021821
Br       3.06013599       4.34864516       5.30031161       0.00012485      -0.00017754       0.00022006
Br       5.11998761       1.43557568       8.86807853      -0.00012425       0.00017627      -0.00021429
