9
Lattice="4.451929702015301 2.9589487149882987e-08 2.570322800576322 1.4839765810777192 4.197319601847697 2.5703228250985966 -3.2126583126824407e-08 7.3166194649268296e-09 5.140645656797519" Properties=species:S:1:pos:R:3:forces:R:3 energy=-44.20720672607422 free_energy=-44.20720672607422 stress="0.0006491460953839123 7.948716529426747e-08 3.631356548794429e-09 7.948716529426747e-08 0.0006490614614449441 1.4291919647746454e-08 3.631356548794429e-09 1.4291919647746454e-08 0.0006490449886769056" pbc="T T T"
Mg       1.48397646       1.04933000       2.57032290       0.00000021       0.00000003       0.00000058
Mg       4.45192985       3.14798983       7.71096826       0.00000095      -0.00000036      -0.00000077
V       -0.00000014      -0.00000004       0.00000011       0.00000538      -0.00000148       0.00000344
F        1.55673406       1.10077733       5.14064563      -0.00778896      -0.00550759      -0.00000053
F        4.37917212       3.09654233       5.14064579       0.00778604       0.00550479       0.00000020
F        3.67356287       1.10077718       3.91849381       0.00389069      -0.00550199      -0.00673947
F        2.26234363       3.09654234       6.36279727      -0.00389212       0.00550357       0.00674021
F        2.26234336       3.09654258       3.91849402      -0.00389200       0.00550479      -0.00674000
F        3.67356279       1.10077703       6.36279736       0.00388989      -0.00550207       0.00673589
