9
Lattice="6.617813259287329 -7.063515170205306e-09 3.820796193163516 2.2059377674057514 6.23933406693989 3.820796156843241 -1.507527197453155e-08 -5.514290760322816e-08 7.641592412438163" Properties=species:S:1:pos:R:3:forces:R:3 energy=-24.339828491210938 free_energy=-24.339828491210938 stress="7.055008609313518e-05 3.2176228348390623e-09 -3.6281118109826593e-09 3.2176228348390623e-09 7.054911839077249e-05 -3.0832461028751368e-09 -3.6281118109826593e-09 -3.0832461028751368e-09 7.055039895931259e-05" pbc="T T T"
Mg       2.20593770       1.55983390       3.82079627       0.00000036       0.00000090       0.00000053
Mg       6.61781348       4.67950057      11.46238854       0.00000088       0.00000015       0.00000058
V        0.00000001      -0.00000021      -0.00000024      -0.00000057      -0.00000022       0.00000109
I        2.19332696       1.55091635       7.64159206       0.00052401       0.00037070       0.00000028
I        6.63042420       4.68841770       7.64159230      -0.00052396      -0.00037105       0.00000039
I        5.52114960       1.55091641       5.72027284      -0.00026044       0.00036938       0.00045316
I        3.30260102       4.68841783       9.56291209       0.00026172      -0.00037180      -0.00045411
I        3.30260130       4.68841747       5.72027311       0.00026075      -0.00036921       0.00045249
I        5.52114979       1.55091599       9.56291204      -0.00026280       0.00037118      -0.00045437
