9
Lattice="6.054604616744764 2.761906772843882e-08 3.4956275775151364 2.0182015538404605 5.708335970938426 3.495627596765062 5.696566480316587e-09 2.7604340030578355e-08 6.991255145163515" Properties=species:S:1:pos:R:3:forces:R:3 energy=-19.766887664794922 free_energy=-19.766887664794922 stress="8.957916725194082e-05 1.377683922498818e-08 6.786230466460097e-10 1.377683922498818e-08 8.957560203270987e-05 5.380437873014898e-09 6.786230466460097e-10 5.380437873014898e-09 8.959094702731818e-05" pbc="T T T"
Mg       2.01820163       1.42708378       3.49562754       0.00000046      -0.00000062      -0.00000046
Mg       6.05460447       4.28125186      10.48688351      -0.00000006      -0.00000031       0.00000154
Zn       0.00000010       0.00000010       0.00000034      -0.00000180      -0.00000003      -0.00000448
Br       2.04565723       1.44649813       6.99125516       0.00095285       0.00067349      -0.00000069
Br       6.02714890       4.26183779       6.99125475      -0.00094999      -0.00067112      -0.00000079
Br       5.03177608       1.44649836       5.26721863      -0.00047735       0.00067364       0.00082365
Br       3.04103019       4.26183791       8.71529142       0.00047465      -0.00067158      -0.00082208
Br       3.04103025       4.26183788       5.26721851       0.00047632      -0.00067492       0.00082467
Br       5.03177583       1.44649831       8.71529145      -0.00047512       0.00067145      -0.00082140
