9
Lattice="6.575530561206821 3.753077909630534e-08 3.7963843272151583 2.19184354077492 6.199469665354316 3.7963843532162143 -5.945693002553202e-08 -1.0197759006979324e-08 7.592768757412771" Properties=species:S:1:pos:R:3:forces:R:3 energy=-16.087295532226562 free_energy=-16.087295532226562 stress="6.698966171825305e-05 6.746178282668325e-09 -3.6612782250422526e-10 6.746178282668325e-09 6.69747096253559e-05 -1.5400416497612923e-09 -3.6612782250422526e-10 -1.5400416497612923e-09 6.697341450490057e-05" pbc="T T T"
Mg       2.19184360       1.54986724       3.79638430      -0.00000007      -0.00000069      -0.00000064
Mg       6.57553064       4.64960240      11.38915275      -0.00000008       0.00000021      -0.00000112
Zn       0.00000022       0.00000016       0.00000042      -0.00000051      -0.00000002       0.00000051
I        2.23270934       1.57876411       7.59276874       0.00038897       0.00027478      -0.00000008
I        6.53466454       4.62070558       7.59276887      -0.00038940      -0.00027470       0.00000045
I        5.45917590       1.57876396       5.72996749      -0.00019475       0.00027451       0.00033725
I        3.30819817       4.62070549       9.45556987       0.00019521      -0.00027498      -0.00033757
I        3.30819805       4.62070571       5.72996750       0.00019499      -0.00027446       0.00033745
I        5.45917569       1.57876411       9.45556982      -0.00019442       0.00027525      -0.00033638
