9
Lattice="5.67329530550251 2.4062315983318707e-08 3.2754784992758355 1.89109846391919 5.348833937191134 3.275478488770021 3.18777597118937e-08 9.674091216417296e-09 6.550956943337763" Properties=species:S:1:pos:R:3:forces:R:3 energy=-23.186281204223633 free_energy=-23.186281204223633 stress="0.00030035141389817 -5.968983085580248e-09 -6.209103897703017e-09 -5.968983085580248e-09 0.00030035871895961463 6.806254670976841e-09 -6.209103897703017e-09 6.806254670976841e-09 0.00030034544761292636" pbc="T T T"
Mg       1.89109835       1.33720875       3.27547871       0.00000085      -0.00000038       0.00000092
Mg       5.67329532       4.01162507       9.82643632       0.00000225      -0.00000064       0.00000381
Zn      -0.00000003      -0.00000002      -0.00000004      -0.00000020       0.00000033      -0.00000393
Cl       1.91222290       1.35214567       6.55095712      -0.00079419      -0.00055976      -0.00000092
Cl       5.65217128       3.99668842       6.55095666       0.00079399       0.00055835       0.00000034
Cl       4.71718398       1.35214576       4.93151161       0.00039397      -0.00055847      -0.00068603
Cl       2.84720984       3.99668851       8.17040186      -0.00039548       0.00056072       0.00068624
Cl       2.84720980       3.99668853       4.93151166      -0.00039677       0.00056003      -0.00068583
Cl       4.71718381       1.35214521       8.17040176       0.00039558      -0.00056042       0.00068529
