9
Lattice="4.468096125149286 4.0406385244635256e-08 2.5796565880687865 1.4893654389248876 4.212561371041388 2.5796565434171623 1.1058000176549366e-07 2.350503381468528e-08 5.159312984607384" Properties=species:S:1:pos:R:3:forces:R:3 energy=-36.221317291259766 free_energy=-36.221317291259766 stress="0.000254464743193239 2.021941192253962e-08 2.759188788559186e-08 2.021941192253962e-08 0.00025445979554206133 -1.949868533301924e-08 2.759188788559186e-08 -1.949868533301924e-08 0.00025447411462664604" pbc="T T T"
Mg       1.48936560       1.05314042       2.57965684      -0.00000016       0.00000132       0.00000351
Mg       4.46809598       3.15942142       7.73896986      -0.00000280       0.00000211       0.00000208
Zn       0.00000012       0.00000023       0.00000037      -0.00000348      -0.00000365      -0.00000672
F        1.55248902       1.09777512       5.15931276      -0.00350641      -0.00248275      -0.00000140
F        4.40497287       3.11478599       5.15931262       0.00351141       0.00248279      -0.00000103
F        3.69185181       1.09777529       3.92415081       0.00175110      -0.00247657      -0.00303468
F        2.26560968       3.11478633       6.39447524      -0.00175243       0.00248030       0.00303641
F        2.26560977       3.11478596       3.92415097      -0.00175282       0.00247952      -0.00303664
F        3.69185191       1.09777504       6.39447513       0.00175579      -0.00248337       0.00303803
