9
Lattice="6.562199280770633 -2.7281707157638597e-08 3.788687594920001 2.1873997358443473 6.186900829494889 3.788687592652879 -6.806731240414991e-09 -7.589707602768388e-09 7.577375201629576" Properties=species:S:1:pos:R:3:forces:R:3 energy=-26.675884246826172 free_energy=-26.675884246826172 stress="-0.00016079185297712684 -2.3064949061790685e-08 1.5332327074624175e-10 -2.3064949061790685e-08 -0.00016079920169431716 -8.453826083609783e-09 1.5332327074624175e-10 -8.453826083609783e-09 -0.0001607808517292142" pbc="T T T"
Mn       2.18739985       1.54672555       3.78868745      -0.00000127       0.00000038      -0.00000121
Mn       6.56219953       4.64017479      11.36606300       0.00000207      -0.00000343       0.00000214
Ag       0.00000015      -0.00000015       0.00000028      -0.00000068       0.00000190      -0.00000435
I        2.28258761       1.61403368       7.57737523      -0.00365900      -0.00258496       0.00000046
I        6.46701105       4.57286717       7.57737511       0.00365819       0.00258680       0.00000003
I        5.42090537       1.61403365       5.76546677       0.00182975      -0.00258570      -0.00316865
I        3.32869353       4.57286734       9.38928347      -0.00183014       0.00258749       0.00316890
I        3.32869377       4.57286746       5.76546674      -0.00182896       0.00258564      -0.00316782
I        5.42090514       1.61403366       9.38928351       0.00182999      -0.00258803       0.00317059
