9
Lattice="6.035079108768183 -5.820471445316307e-09 3.484354563556753 2.0116930303464087 5.689927231333462 3.4843545642877896 -1.5919986192536477e-08 -1.0361806762880144e-08 6.968709154687725" Properties=species:S:1:pos:R:3:forces:R:3 energy=-29.70412826538086 free_energy=-29.70412826538086 stress="-6.282449612626806e-05 2.5439117479209017e-09 3.2621212397998534e-09 2.5439117479209017e-09 -6.283314723987132e-05 -1.0876118894387332e-09 3.2621212397998534e-09 -1.0876118894387332e-09 -6.281166133703664e-05" pbc="T T T"
Mn       2.01169317       1.42248095       3.48435486       0.00000221      -0.00000631       0.00000189
Mn       6.03507917       4.26744359      10.45306274      -0.00000109      -0.00001317      -0.00000543
Au      -0.00000015       0.00000028       0.00000029       0.00000182       0.00000030      -0.00000411
Br       2.09656268       1.48249428       6.96870913      -0.00109617      -0.00076994      -0.00000097
Br       5.95020928       4.20743407       6.96870956       0.00109239       0.00077546       0.00000152
Br       4.98679765       1.48249395       5.30003094       0.00054600      -0.00076802      -0.00094642
Br       3.05997470       4.20743381       8.63738681      -0.00054667       0.00077645       0.00094900
Br       3.05997435       4.20743350       5.30003124      -0.00054717       0.00077414      -0.00094543
Br       4.98679764       1.48249441       8.63738758       0.00054870      -0.00076898       0.00094985
