9
Lattice="6.026285962990262 4.959127158803632e-08 3.47927789261919 2.008762040901517 5.681636953852341 3.479277881390311 4.835208854860751e-08 2.0437598490073267e-08 6.958555701490085" Properties=species:S:1:pos:R:3:forces:R:3 energy=-29.515920639038086 free_energy=-29.515920639038086 stress="-0.00016262943972833455 8.778649807084093e-09 -1.8448634619971926e-08 8.778649807084093e-09 -0.00016263779252767563 -7.3425230340262715e-09 -1.8448634619971926e-08 -7.3425230340262715e-09 -0.00016264292935375124" pbc="T T T"
Mn       2.00876134       1.42040991       3.47927747      -0.00000308       0.00000509      -0.00000230
Mn       6.02628728       4.26122731      10.43783502       0.00000842      -0.00000373       0.00000993
Ag      -0.00000020       0.00000021      -0.00000020       0.00000027      -0.00000009      -0.00000216
Br       2.10047236       1.48525903       6.95855592      -0.00549154      -0.00387820       0.00000000
Br       5.93457576       4.19637810       6.95855520       0.00548823       0.00387753      -0.00000380
Br       4.97604996       1.48525860       5.29834038       0.00274560      -0.00387811      -0.00475150
Br       3.05899782       4.19637836       8.61877068      -0.00274781       0.00387972       0.00475148
Br       3.05899833       4.19637829       5.29834048      -0.00274450       0.00388053      -0.00475243
Br       4.97604952       1.48525827       8.61877095       0.00274453      -0.00388277       0.00475101
