9
Lattice="5.668772411772451 2.6594733411913616e-08 3.2728673387051197 1.889590796808538 5.344570010659456 3.272867394458738 -5.39401372053577e-08 3.0142512816757764e-08 6.545734770837312" Properties=species:S:1:pos:R:3:forces:R:3 energy=-32.657142639160156 free_energy=-32.657142639160156 stress="-0.00013787760690320283 -3.3835050317065907e-09 1.846056463250534e-08 -3.3835050317065907e-09 -0.00013788860815111548 1.5139896447635692e-08 1.846056463250534e-08 1.5139896447635692e-08 -0.0001378860615659505" pbc="T T T"
Mn       1.88959034       1.33614239       3.27286766      -0.00000226      -0.00000046       0.00000170
Mn       5.66877230       4.00842777       9.81860136       0.00000010      -0.00000011      -0.00000468
Ag       0.00000010      -0.00000005       0.00000007      -0.00000105      -0.00000176      -0.00000272
Cl       1.96979377       1.39285446       6.54573482      -0.00207026      -0.00146434      -0.00000023
Cl       5.58856940       3.95171560       6.54573507       0.00207201       0.00146554       0.00000121
Cl       4.68387573       1.39285433       4.97875895       0.00103472      -0.00146484      -0.00179206
Cl       2.87448792       3.95171568       8.11271072      -0.00103471       0.00146672       0.00179511
Cl       2.87448727       3.95171538       4.97875858      -0.00103697       0.00146331      -0.00179237
Cl       4.68387574       1.39285470       8.11271082       0.00103832      -0.00146401       0.00179373
