9
Lattice="4.3877417891049015 -7.351403855429379e-08 2.5332639091154006 1.4625805951089519 4.136802336719541 2.5332637912487472 9.273462700484656e-08 -7.878328921041507e-08 5.066527657609728" Properties=species:S:1:pos:R:3:forces:R:3 energy=-52.079227447509766 free_energy=-52.079227447509766 stress="-0.00012817014066968113 6.017226894527994e-08 3.1619990181752655e-08 6.017226894527994e-08 -0.0001279215357499197 1.0799698912933309e-07 3.1619990181752655e-08 1.0799698912933309e-07 -0.00012802144919987768" pbc="T T T"
Mn       1.46258141       1.03420037       2.53326355       0.00000202       0.00000225      -0.00000500
Mn       4.38774190       3.10260194       7.59979108       0.00000398       0.00000177      -0.00000124
Be      -0.00000017       0.00000022       0.00000052       0.00000201      -0.00000052       0.00000095
F        1.40009901       0.99001957       5.06652813       0.00442603       0.00312743      -0.00000545
F        4.45022363       3.14678266       5.06652761      -0.00443083      -0.00312811       0.00000177
F        3.68769250       0.99001964       3.74578569      -0.00221699       0.00312877       0.00383115
F        2.16262979       3.14678162       6.38726958       0.00221111      -0.00312334      -0.00382906
F        2.16263038       3.14678256       3.74578558       0.00221470      -0.00313258       0.00383261
F        3.68769137       0.99001994       6.38726969      -0.00221185       0.00312403      -0.00382623
