9
Lattice="6.462309926082513 9.189007356584111e-08 3.731016399528419 2.1541033759415784 6.0927243007812635 3.731016433108401 4.969972391067367e-08 7.62699098873558e-08 7.462032712974336" Properties=species:S:1:pos:R:3:forces:R:3 energy=-28.980627059936523 free_energy=-28.980627059936523 stress="-9.730982856126502e-05 1.319854003867249e-09 -2.034505452996882e-09 1.319854003867249e-09 -9.732245234772563e-05 -3.90008070283443e-09 -2.034505452996882e-09 -3.90008070283443e-09 -9.730272722663358e-05" pbc="T T T"
Mn       2.15410369       1.52318061       3.73101703       0.00000116      -0.00000416       0.00000347
Mn       6.46231006       4.56954412      11.19304853      -0.00000034       0.00000564      -0.00000361
Be      -0.00000009      -0.00000005       0.00000017       0.00000019       0.00000016      -0.00000048
I        2.12454384       1.50227900       7.46203276      -0.00232332      -0.00164536      -0.00000069
I        6.49186941       4.59044554       7.46203306       0.00232259       0.00164392       0.00000109
I        5.40003782       1.50227895       5.57092519       0.00116031      -0.00164437      -0.00201231
I        3.21637525       4.59044538       9.35314020      -0.00116129       0.00164515       0.00201222
I        3.21637506       4.59044511       5.57092517      -0.00116165       0.00164291      -0.00201303
I        5.40003841       1.50227926       9.35314006       0.00116242      -0.00164383       0.00201325
