9
Lattice="5.459497170974166 -1.0850903249485441e-08 3.152042104263726 1.8198323841983577 5.1472633588097025 3.1520420971554275 -1.0019160614023907e-09 -9.41430517553464e-09 6.304084210262812" Properties=species:S:1:pos:R:3:forces:R:3 energy=-37.43438720703125 free_energy=-37.43438720703125 stress="0.00045163603499531746 8.646167337644783e-09 -3.5749202709212113e-08 8.646167337644783e-09 0.00045166799100115895 -8.716027011246297e-09 -3.5749202709212113e-08 -8.716027011246297e-09 0.00045165474875830114" pbc="T T T"
Mn       1.81983311       1.28681602       3.15204281       0.00000562       0.00000537       0.00000570
Mn       5.45949793       3.86044830       9.45612451       0.00000509       0.00000317      -0.00001454
Be      -0.00000010      -0.00000005       0.00000011       0.00000026       0.00000033      -0.00000011
Cl       1.79510332       1.26933022       6.30408383       0.00451924       0.00319625      -0.00000255
Cl       5.48422605       3.87793311       6.30408506      -0.00452377      -0.00319782       0.00000653
Cl       4.56194467       1.26932932       4.70664734      -0.00226601       0.00319193       0.00391716
Cl       2.71738397       3.87793314       7.90152146       0.00226138      -0.00319836      -0.00391603
Cl       2.71738379       3.87793326       4.70664721       0.00225969      -0.00319764       0.00391898
Cl       4.56194559       1.26933005       7.90152144      -0.00226139       0.00319667      -0.00391518
