9
Lattice="5.813401067708814 2.7357483202315887e-08 3.356368613157319 1.9378003687452288 5.480927355332276 3.3563686355883418 2.627332578013163e-08 4.605036363458719e-08 6.712737180807807" Properties=species:S:1:pos:R:3:forces:R:3 energy=-33.22740936279297 free_energy=-33.22740936279297 stress="-0.00010696946264943108 -2.2246415820603715e-10 -5.215476495123994e-09 -2.2246415820603715e-10 -0.0001070074358722195 1.5231906402846107e-08 -5.215476495123994e-09 1.5231906402846107e-08 -0.0001069890713552013" pbc="T T T"
Mn       1.93780038       1.37023132       3.35636822       0.00000101      -0.00000477      -0.00000233
Mn       5.81340019       4.11069751      10.06910848      -0.00000519       0.00001161       0.00001628
Be      -0.00000012       0.00000005       0.00000001       0.00000051      -0.00000101       0.00000140
Br       1.92613293       1.36198111       6.71273732      -0.00313233      -0.00222136      -0.00000003
Br       5.82506893       4.11894569       6.71273608       0.00313596       0.00221592      -0.00000556
Br       4.85033484       1.36198156       5.02444804       0.00156795      -0.00221764      -0.00271522
Br       2.90086674       4.11894585       8.40102574      -0.00156710       0.00221707       0.00271373
Br       2.90086757       4.11894595       5.02444825      -0.00156420       0.00222091      -0.00271764
Br       4.85033430       1.36198067       8.40102562       0.00156343      -0.00222055       0.00270965
