9
Lattice="5.640833928673696 -9.956714952449087e-09 3.2567369751003894 1.880277963886266 5.318229343285541 3.2567369802116914 -3.0653736407914073e-08 -1.5415443979786428e-08 6.5134740032946175" Properties=species:S:1:pos:R:3:forces:R:3 energy=-34.195579528808594 free_energy=-34.195579528808594 stress="8.770457498030737e-05 1.620393952350696e-08 -1.3447047031434067e-08 1.620393952350696e-08 8.769027044763789e-05 1.253923898048015e-08 -1.3447047031434067e-08 1.253923898048015e-08 8.772261935519055e-05" pbc="T T T"
Mn       1.88027724       1.32955777       3.25673703      -0.00000323       0.00000222      -0.00000032
Mn       5.64083351       3.98867244       9.77021289      -0.00000228       0.00000128       0.00001098
C       -0.00000021       0.00000005      -0.00000025       0.00000040       0.00000132      -0.00000042
Cl       1.89355819       1.33894773       6.51347397       0.00287674       0.00203267      -0.00000062
Cl       5.62755406       3.97928116       6.51347324      -0.00287433      -0.00203487      -0.00000480
Cl       4.69405513       1.33894782       4.89660611      -0.00143750       0.00203364       0.00249160
Cl       2.82705701       3.97928143       8.13034146       0.00143813      -0.00203352      -0.00249133
Cl       2.82705749       3.97928134       4.89660610       0.00144062      -0.00203435       0.00248926
Cl       4.69405500       1.33894753       8.13034134      -0.00143847       0.00203167      -0.00249438
