9
Lattice="6.4762179080587625 1.055895173362398e-07 3.7390461265914294 2.1587393684239813 6.105836899306654 3.7390461851573518 -2.2433576740463158e-08 5.5865371368295153e-08 7.478092292038927" Properties=species:S:1:pos:R:3:forces:R:3 energy=-31.034526824951172 free_energy=-31.034526824951172 stress="0.00020001997472718358 -9.46457689998681e-10 5.262560609509137e-09 -9.46457689998681e-10 0.00020001882512588054 -2.2303994207106825e-09 5.262560609509137e-09 -2.2303994207106825e-09 0.00020002738165203482" pbc="T T T"
Mn       2.15873926       1.52645991       3.73904574      -0.00000022       0.00000265      -0.00000128
Mn       6.47621787       4.57937736      11.21713852      -0.00000083      -0.00000226      -0.00000057
Co      -0.00000006       0.00000009       0.00000004      -0.00000024      -0.00000032       0.00000054
I        2.15412664       1.52319767       7.47809254       0.00484425       0.00342595       0.00000057
I        6.48083074       4.58263927       7.47809225      -0.00484472      -0.00342556      -0.00000013
I        5.39915474       1.52319762       5.60457455      -0.00242207       0.00342632       0.00419539
I        3.23580268       4.58263912       9.35161018       0.00242277      -0.00342618      -0.00419530
I        3.23580251       4.58263931       5.60457440       0.00242248      -0.00342681       0.00419533
I        5.39915462       1.52319790       9.35161018      -0.00242140       0.00342623      -0.00419476
