9
Lattice="5.186356490260086 -3.2572452222144284e-08 2.994344310470888 1.7287854522795763 4.889743851166882 2.994344334311141 -2.5588038307956268e-08 1.1104755598716582e-08 5.988688665261543" Properties=species:S:1:pos:R:3:forces:R:3 energy=-44.72284698486328 free_energy=-44.72284698486328 stress="-3.015527454408584e-06 1.75878227537396e-08 6.662439488991367e-09 1.75878227537396e-08 -3.0132239317026688e-06 -1.6625095966560366e-08 6.662439488991367e-09 -1.6625095966560366e-08 -2.9955563149997033e-06" pbc="T T T"
Mn       1.72878561       1.22243593       2.99434441      -0.00000055       0.00000058      -0.00000011
Mn       5.18635633       3.66730799       8.98303292       0.00000030      -0.00000065       0.00000098
C       -0.00000012      -0.00000017      -0.00000000       0.00000261       0.00000505       0.00001781
S        1.52803227       1.08048216       5.98868819       0.00005382       0.00003850      -0.00000439
S        5.38710986       3.80926157       5.98868820      -0.00005698      -0.00004134      -0.00000489
S        4.42234045       1.08048209       4.31765930      -0.00002590       0.00003666       0.00004703
S        2.49280160       3.80926149       7.65971829       0.00003213      -0.00004727      -0.00005400
S        2.49280138       3.80926183       4.31765947       0.00002635      -0.00003698       0.00004840
S        4.42234023       1.08048248       7.65971834      -0.00003144       0.00004536      -0.00005043
