9
Lattice="5.534622724834649 -3.40885515089645e-08 3.195415755326666 1.8448741720892563 5.218092285125801 3.195415820076443 9.436582273285892e-09 8.597459364293902e-08 6.390831494308645" Properties=species:S:1:pos:R:3:forces:R:3 energy=-38.298622131347656 free_energy=-38.298622131347656 stress="-0.00015490749501623213 -1.3113974794976002e-08 2.1234629332678168e-10 -1.3113974794976002e-08 -0.00015484374307561666 -6.9737988717122334e-09 2.1234629332678168e-10 -6.9737988717122334e-09 -0.00015485826588701457" pbc="T T T"
Mn       1.84487399       1.30452181       3.19541737      -0.00000233      -0.00000849       0.00001267
Mn       5.53462234       3.91357033       9.58624657      -0.00000145       0.00000654      -0.00000489
Co       0.00000013       0.00000003       0.00000011       0.00000123       0.00000190      -0.00000251
Cl       1.85374715       1.31079752       6.39083139       0.00247800       0.00174993      -0.00000374
Cl       5.52574963       3.90729536       6.39083210      -0.00248085      -0.00175281       0.00000100
Cl       4.60774862       1.31079674       4.80080806      -0.00124171       0.00174928       0.00214678
Cl       2.77174865       3.90729597       7.98085463       0.00124221      -0.00174345      -0.00214650
Cl       2.77174816       3.90729468       4.80080744       0.00124081      -0.00175169       0.00214384
Cl       4.60774893       1.31079701       7.98085464      -0.00123598       0.00174862      -0.00214671
