9
Lattice="4.519569295144463 -1.0228975708296966e-07 2.6093744116815047 1.506522989647735 4.261090293544764 2.609374432975413 -9.400020838571225e-08 -4.0388572426447023e-08 5.218748986176145" Properties=species:S:1:pos:R:3:forces:R:3 energy=-53.15058135986328 free_energy=-53.15058135986328 stress="-2.1299441868904978e-05 3.9328835299556886e-08 8.430204445630807e-08 3.9328835299556886e-08 -2.1425297745736316e-05 -1.086781775683221e-08 8.430204445630807e-08 -1.086781775683221e-08 -2.1303359972080216e-05" pbc="T T T"
Mn       1.50652373       1.06527206       2.60937392       0.00000340      -0.00000226      -0.00000296
Mn       4.51956825       3.19581753       7.82812285      -0.00000299      -0.00000052      -0.00000157
Co       0.00000002       0.00000005      -0.00000014      -0.00000071      -0.00000132      -0.00000073
O        1.46569186       1.03640044       5.21874843      -0.00067461      -0.00047708      -0.00000246
O        4.56040046       3.22468961       5.21874869       0.00067556       0.00047803       0.00000099
O        3.78672374       1.03640015       3.87870114       0.00033873      -0.00048000      -0.00058210
O        2.23936900       3.22469022       6.55879736      -0.00033647       0.00047946       0.00058442
O        2.23936905       3.22468992       3.87870064      -0.00033623       0.00047660      -0.00058568
O        3.78672231       1.03640085       6.55879825       0.00033325      -0.00047368       0.00058955
