9
Lattice="5.590454163435738 -5.0713440003916045e-08 3.227650235935652 1.8634846801450355 5.270730753866246 3.2276502241353944 8.392745320838606e-09 -8.517768276533236e-09 6.455300457334707" Properties=species:S:1:pos:R:3:forces:R:3 energy=-42.88096618652344 free_energy=-42.88096618652344 stress="-4.259320576238679e-06 1.4532234304809322e-09 1.3450558888905562e-08 1.4532234304809322e-09 -4.3047580220445525e-06 1.3968840306688435e-08 1.3450558888905562e-08 1.3968840306688435e-08 -4.272503701940877e-06" pbc="T T T"
Mn       1.86348481       1.31768263       3.22765020       0.00000196       0.00000241      -0.00000114
Mn       5.59045542       3.95304740       9.68295059       0.00001272      -0.00000620       0.00000168
Co      -0.00000015      -0.00000007      -0.00000001       0.00000156      -0.00000055       0.00000052
Se       1.88149285       1.33041680       6.45530046       0.00063623       0.00045621      -0.00000006
Se       5.57244584       3.94031529       6.45530084      -0.00064310      -0.00045077      -0.00000045
Se       4.64970818       1.33041599       4.85707100      -0.00031778       0.00045406       0.00055668
Se       2.80422999       3.94031426       8.05352962       0.00031250      -0.00045452      -0.00055869
Se       2.80423065       3.94031390       4.85707047       0.00031719      -0.00045442       0.00055498
Se       4.64970786       1.33041661       8.05353046      -0.00032127       0.00045375      -0.00055356
