9
Lattice="5.882527598796259 -1.0814314357078279e-07 3.396278839649957 1.9608424224503387 5.546100317498889 3.396278854413018 -1.7589856974808537e-07 -1.0629813022271184e-07 6.792557983965232" Properties=species:S:1:pos:R:3:forces:R:3 energy=-34.57575988769531 free_energy=-34.57575988769531 stress="2.2286263629212044e-05 1.2667830118218149e-09 4.1365218805822224e-08 1.2667830118218149e-09 2.2283817088464275e-05 2.831774281730759e-08 4.1365218805822224e-08 2.831774281730759e-08 2.231026883237064e-05" pbc="T T T"
Mn       1.96084333       1.38652345       3.39627906       0.00000662      -0.00001405       0.00000163
Mn       5.88252833       4.15957632      10.18884282       0.00000567       0.00001265       0.00004484
Co       0.00000018       0.00000001      -0.00000024      -0.00000204       0.00000031      -0.00000246
Br       1.98084339       1.40066733       6.79255778       0.00057954       0.00040863      -0.00000326
Br       5.86252623       4.14543291       6.79255538      -0.00058341      -0.00040616      -0.00001738
Br       4.89210578       1.40066833       5.11173887      -0.00028940       0.00041234       0.00049280
Br       2.95126314       4.14543258       8.47337510       0.00028256      -0.00040665      -0.00050856
Br       2.95126414       4.14543281       5.11173903       0.00029374      -0.00040756       0.00049993
Br       4.89210487       1.40066663       8.47337489      -0.00029334       0.00040048      -0.00050762
