9
Lattice="5.897411993812574 -3.6331352109359884e-08 3.404872487055175 1.9658039819738062 5.560133330956238 3.404872455376182 2.691101516229687e-08 -1.976972300745157e-08 6.809744927499076" Properties=species:S:1:pos:R:3:forces:R:3 energy=-31.630001068115234 free_energy=-31.630001068115234 stress="-0.00029172212816774845 -2.2846160518952274e-08 -1.4190072450404045e-09 -2.2846160518952274e-08 -0.00029175751842558384 3.1642923836727732e-09 -1.4190072450404045e-09 3.1642923836727732e-09 -0.00029175644158385694" pbc="T T T"
Mn       1.96580520       1.39003425       3.40487279       0.00000711       0.00000851       0.00000299
Mn       5.89741113       4.17009993      10.21461655      -0.00000671      -0.00000197      -0.00000712
Cu      -0.00000017      -0.00000019       0.00000023       0.00000052       0.00000017       0.00000218
Br       2.00475678       1.41757677       6.80974480      -0.00467850      -0.00330804      -0.00000045
Br       5.85845930       4.14255633       6.80974533       0.00467834       0.00330794       0.00000212
Br       4.89503333       1.41757696       5.14104255       0.00233755      -0.00330958      -0.00405405
Br       2.96818260       4.14255597       8.47844757      -0.00233761       0.00330618       0.00405331
Br       2.96818246       4.14255594       5.14104227      -0.00233997       0.00330517      -0.00405383
Br       4.89503343       1.41757715       8.47844742       0.00233925      -0.00330828       0.00405483
