9
Lattice="6.810155869698052 3.775731289763628e-08 3.931845240430704 2.2700520077265924 6.420676420583147 3.9318452134755257 7.914270746898103e-08 2.2949095971192552e-08 7.863690343782152" Properties=species:S:1:pos:R:3:forces:R:3 energy=-29.50951385498047 free_energy=-29.50951385498047 stress="7.672634819755331e-05 -3.4282445771083303e-09 2.533517617919756e-09 -3.4282445771083303e-09 7.675182860111818e-05 -1.4819201421545358e-09 2.533517617919756e-09 -1.4819201421545358e-09 7.673598156543449e-05" pbc="T T T"
Mn       2.27005271       1.60516832       3.93184498       0.00000329      -0.00000473      -0.00000063
Mn       6.81015626       4.81550854      11.79553622       0.00000013       0.00000446       0.00000150
Ca      -0.00000006      -0.00000006      -0.00000125      -0.00000028       0.00000059       0.00000850
I        2.43337223       1.72065383       7.86369021      -0.00400617      -0.00283501       0.00000110
I        6.64683550       4.70002258       7.86369015       0.00400574       0.00283617       0.00000077
I        5.59346948       1.72065389       6.03920732       0.00200468      -0.00283778      -0.00347350
I        3.48673749       4.70002313       9.68817413      -0.00200228       0.00283118       0.00346718
I        3.48673836       4.70002274       6.03920746      -0.00200479       0.00283802      -0.00347250
I        5.59346990       1.72065296       9.68817402       0.00199961      -0.00283296       0.00346760
