9
Lattice="4.121928487676795 -5.79326804379895e-08 2.3797963861944322 1.3739761648454216 3.8861911409862686 2.379796287630426 1.146460171832999e-07 -3.964878622574997e-08 4.759592573816133" Properties=species:S:1:pos:R:3:forces:R:3 energy=-57.120704650878906 free_energy=-57.120704650878906 stress="-5.0020906201098114e-05 -1.4211325449764445e-08 1.9559365682653151e-07 -1.4211325449764445e-08 -5.0691502110566944e-05 -9.000379463941499e-08 1.9559365682653151e-07 -9.000379463941499e-08 -5.0082788220606744e-05" pbc="T T T"
Mn       1.37397631       0.97154777       2.37979644      -0.00000067      -0.00000032      -0.00000108
Mn       4.12192832       2.91464338       7.13938909       0.00000277       0.00000043       0.00000104
C        0.00000004       0.00000011       0.00000016       0.00000325      -0.00000142      -0.00000568
O        1.20109989       0.84930563       4.75959231       0.00540090       0.00382346      -0.00000497
O        4.29480498       3.03688557       4.75959242      -0.00540185      -0.00382471       0.00000366
O        3.52137903       0.84930557       3.41997924      -0.00270700       0.00382680       0.00468135
O        1.97452612       3.03688526       6.09920608       0.00269932      -0.00381935      -0.00467527
O        1.97452613       3.03688549       3.41997922       0.00269979      -0.00382590       0.00467670
O        3.52137870       0.84930567       6.09920609      -0.00269717       0.00382346      -0.00467610
