9
Lattice="6.19284927749407 4.889827664015357e-08 3.575443052998233 2.064283128659056 5.838674108010274 3.5754430702159867 -3.9510676692369375e-08 -6.8509170733699455e-09 7.1508861744308785" Properties=species:S:1:pos:R:3:forces:R:3 energy=-33.08455276489258 free_energy=-33.08455276489258 stress="5.752791912527755e-05 2.2928084320028574e-08 -8.493631575845484e-09 2.2928084320028574e-08 5.7538745750207454e-05 7.865296858255988e-09 -8.493631575845484e-09 7.865296858255988e-09 5.750650598201901e-05" pbc="T T T"
Mn       2.06428366       1.45966796       3.57544352       0.00000393      -0.00000397       0.00000256
Mn       6.19284901       4.37900695      10.72632978      -0.00000196       0.00000834       0.00000473
Ca       0.00000010      -0.00000001      -0.00000084      -0.00000194      -0.00000088       0.00001179
Br       2.20077145       1.55617940       7.15088603      -0.00196953      -0.00139672      -0.00000010
Br       6.05636084       4.28249421       7.15088587       0.00197383       0.00139820      -0.00000107
Br       5.09246326       1.55618011       5.48136639       0.00098541      -0.00139795      -0.00171001
Br       3.16466834       4.28249457       8.82040609      -0.00098380       0.00139041       0.00170119
Br       3.16466887       4.28249398       5.48136635      -0.00098670       0.00139547      -0.00170976
Br       5.09246392       1.55617942       8.82040601       0.00098094      -0.00139296       0.00170074
