9
Lattice="4.825830602848833 -3.943462517051357e-08 2.78619461492173 1.6086101771619123 4.549836656644806 2.786194591726714 5.372257707817404e-08 9.579657620900454e-09 5.572389136793262" Properties=species:S:1:pos:R:3:forces:R:3 energy=-43.281803131103516 free_energy=-43.281803131103516 stress="0.0005666238139383495 -2.6112465079108915e-08 2.427543144278843e-08 -2.6112465079108915e-08 0.0005665909848175943 -6.48332987296385e-09 2.427543144278843e-08 -6.48332987296385e-09 0.0005665065837092698" pbc="T T T"
Mn       1.60860930       1.13745969       2.78619433      -0.00000579       0.00000193      -0.00000245
Mn       4.82583046       3.41237733       8.35858330      -0.00000048      -0.00000046      -0.00000259
Cd       0.00000006       0.00000003       0.00000019      -0.00000048      -0.00000070       0.00000432
F        1.71470903       1.21248219       5.57238913      -0.00505510      -0.00357600       0.00000051
F        4.71973194       3.33735412       5.57238952       0.00505731       0.00357409       0.00000219
F        3.96847674       1.21248252       4.27117630       0.00253165      -0.00357439      -0.00437710
F        2.46596465       3.33735397       6.87360243      -0.00252742       0.00357158       0.00437850
F        2.46596470       3.33735439       4.27117621      -0.00252810       0.00357717      -0.00437996
F        3.96847654       1.21248232       6.87360198       0.00252838      -0.00357313       0.00437662
