9
Lattice="5.790493860877191 -2.2054806527936567e-08 3.3431431601853814 1.9301646004130073 5.459330109052172 3.3431431586021367 -1.7970612613013174e-08 -1.4646220549199626e-08 6.686286351496793" Properties=species:S:1:pos:R:3:forces:R:3 energy=-36.615684509277344 free_energy=-36.615684509277344 stress="3.8289268559310585e-05 2.528370224297305e-08 -1.189015019775752e-08 2.528370224297305e-08 3.8279322325251997e-05 6.10826444980006e-10 -1.189015019775752e-08 6.10826444980006e-10 3.8282527384581044e-05" pbc="T T T"
Mn       1.93016325       1.36483255       3.34314319      -0.00000992      -0.00000093       0.00000040
Mn       5.79049321       4.09449741      10.02942958      -0.00000748      -0.00000191      -0.00000043
Ca      -0.00000012       0.00000012      -0.00000014      -0.00000151      -0.00000139      -0.00000074
Cl       2.05361383       1.45212405       6.68628623      -0.00391395      -0.00276836      -0.00000123
Cl       5.66704474       4.00720548       6.68628619       0.00392106       0.00277013       0.00000116
Cl       4.76368758       1.45212435       5.12162488       0.00196003      -0.00276725      -0.00339073
Cl       2.95697175       4.00720578       8.25094817      -0.00195482       0.00276953       0.00339052
Cl       2.95697187       4.00720602       5.12162449      -0.00195358       0.00276802      -0.00338962
Cl       4.76368764       1.45212463       8.25094804       0.00196032      -0.00276797       0.00339067
