9
Lattice="5.245089055412242 -3.0694532174922866e-08 3.0282535400724857 1.7483629951100523 4.945117032842169 3.028253530410413 1.4202302166572758e-09 -1.0829326359789077e-08 6.0565070776850645" Properties=species:S:1:pos:R:3:forces:R:3 energy=-47.681251525878906 free_energy=-47.681251525878906 stress="0.00018567941151559353 3.5074549487035256e-08 -2.0974786352212504e-08 3.5074549487035256e-08 0.00018569626263342798 -1.459196097286508e-10 -2.0974786352212504e-08 -1.459196097286508e-10 0.00018564231868367642" pbc="T T T"
Mn       1.74836273       1.23627957       3.02825360      -0.00000132       0.00000102      -0.00000024
Mn       5.24508913       3.70883751       9.08476063      -0.00000027      -0.00000098       0.00000072
Co       0.00000005       0.00000016       0.00000002       0.00000017      -0.00000342      -0.00000232
S        1.76481781       1.24791455       6.05650693      -0.00323617      -0.00228848      -0.00000014
S        5.22863385       3.69720214       6.05650686       0.00323977       0.00229099      -0.00000094
S        4.36268039       1.24791444       4.55663063       0.00161688      -0.00228742      -0.00280157
S        2.63077212       3.69720242       7.55638352      -0.00161912       0.00228904       0.00280486
S        2.63077188       3.69720264       4.55663082      -0.00161788       0.00228737      -0.00280316
S        4.36268028       1.24791450       7.55638358       0.00161798      -0.00228794       0.00280276
