9
Lattice="6.462252973082246 -2.57499759708173e-08 3.7309834410372944 2.1540842984426956 6.092670533796786 3.730983443879129 -1.2190239135753537e-08 -5.13929889291964e-09 7.461966903188747" Properties=species:S:1:pos:R:3:forces:R:3 energy=-28.973819732666016 free_energy=-28.973819732666016 stress="-3.658802233985625e-05 3.128301173660475e-09 -5.04858910232997e-09 3.128301173660475e-09 -3.6591194657376036e-05 -1.8619116248785872e-09 -5.04858910232997e-09 -1.8619116248785872e-09 -3.659267531475052e-05" pbc="T T T"
Mn       2.15408395       1.52316758       3.73098360      -0.00000252      -0.00000006       0.00000074
Mn       6.46225291       4.56950252      11.19294967       0.00000033      -0.00000218      -0.00000527
C       -0.00000003      -0.00000000       0.00000008       0.00000024      -0.00000019       0.00000049
I        2.16723953       1.53246987       7.46196693       0.00719044       0.00508560       0.00000039
I        6.44909788       4.56020071       7.46196712      -0.00719038      -0.00508504       0.00000145
I        5.37863314       1.53246971       5.60786808      -0.00359505       0.00508374       0.00622699
I        3.23770427       4.56020083       9.31606575       0.00359644      -0.00508361      -0.00622636
I        3.23770394       4.56020070       5.60786808       0.00359438      -0.00508420       0.00622800
I        5.37863345       1.53247007       9.31606576      -0.00359386       0.00508578      -0.00622630
