9
Lattice="6.703622178968449 -9.720508927141083e-08 3.870338083900139 2.234540648651698 6.3202355005661435 3.870338059695226 3.4317514596103275e-08 -5.3786894772522e-09 7.740676108360544" Properties=species:S:1:pos:R:3:forces:R:3 energy=-25.702911376953125 free_energy=-25.702911376953125 stress="-6.517002020700602e-06 8.82347439556952e-09 -1.1262855093008284e-09 8.82347439556952e-09 -6.516116172861075e-06 -3.1628759611379564e-09 -1.1262855093008284e-09 -3.1628759611379564e-09 -6.528167887154268e-06" pbc="T T T"
Mn       2.23454060       1.58005940       3.87033838       0.00000188       0.00000366       0.00000151
Mn       6.70362190       4.74017569      11.61101473      -0.00000282      -0.00000470       0.00000181
Cd       0.00000023       0.00000014       0.00000019      -0.00000046       0.00000005       0.00000017
I        2.36545570       1.67262990       7.74067615      -0.00410692      -0.00290364      -0.00000107
I        6.57270707       4.64760543       7.74067601       0.00410788       0.00290450      -0.00000086
I        5.52089444       1.67263024       5.91888250       0.00205313      -0.00290242      -0.00355776
I        3.41726850       4.64760549       9.56246921      -0.00205280       0.00290278       0.00355658
I        3.41726874       4.64760516       5.91888261      -0.00205341       0.00290331      -0.00355826
I        5.52089424       1.67263013       9.56246921       0.00205360      -0.00290357       0.00355798
