9
Lattice="4.577971984085815 1.0859974207603917e-08 2.6430933180959717 1.5259906653926862 4.31615347379781 2.643093328848797 -3.993258235978714e-08 -1.506716201512829e-08 5.286186705357222" Properties=species:S:1:pos:R:3:forces:R:3 energy=-46.70471954345703 free_energy=-46.70471954345703 stress="0.00013692448555957526 -2.7075154562794523e-08 7.802063883843857e-09 -2.7075154562794523e-08 0.00013691213098354638 -5.736826125257721e-08 7.802063883843857e-09 -5.736826125257721e-08 0.00013702068827115" pbc="T T T"
Mn       1.52599126       1.07903833       2.64309343       0.00000311       0.00000042       0.00000035
Mn       4.57797195       3.23711501       7.92928065       0.00000025      -0.00000183       0.00000405
Cu      -0.00000001      -0.00000010       0.00000014      -0.00000102      -0.00000074      -0.00000524
F        1.55926157       1.10256450       5.28618663      -0.00090390      -0.00064093      -0.00000013
F        4.54470088       3.21358914       5.28618650       0.00090380       0.00064096      -0.00000066
F        3.79834118       1.10256472       3.99345312       0.00045149      -0.00063591      -0.00078450
F        2.30562108       3.21358893       6.57891976      -0.00045428       0.00064012       0.00078417
F        2.30562138       3.21358901       3.99345320      -0.00045112       0.00063890      -0.00078277
F        3.79834110       1.10256431       6.57891984       0.00045174      -0.00064127       0.00078475
