9
Lattice="5.5518603347196365 -1.4671139572183676e-08 3.205368065171182 1.8506201183499782 5.234344029210387 3.205368029475711 7.832046404079617e-09 -3.8179781194313006e-08 6.410736116776935" Properties=species:S:1:pos:R:3:forces:R:3 energy=-35.1229248046875 free_energy=-35.1229248046875 stress="-0.00038864530506543815 9.308271486929698e-09 -3.194311037901798e-09 9.308271486929698e-09 -0.00038861535722389817 8.09237388210704e-09 -3.194311037901798e-09 8.09237388210704e-09 -0.0003886526683345437" pbc="T T T"
Mn       1.85061937       1.30858645       3.20536799      -0.00000322       0.00000254       0.00000030
Mn       5.55186026       3.92575928       9.61610368       0.00000044       0.00000855      -0.00000244
Cu      -0.00000000       0.00000023      -0.00000025       0.00000198      -0.00000548       0.00000493
Cl       1.88004224       1.32938987       6.41073617      -0.00133878      -0.00095206       0.00000077
Cl       5.52243857       3.90495346       6.41073626       0.00134453       0.00094602      -0.00000061
Cl       4.61183953       1.32938988       4.83353228       0.00067051      -0.00095093      -0.00115800
Cl       2.79064153       3.90495333       7.98793979      -0.00067109       0.00094900       0.00116509
Cl       2.79064089       3.90495355       4.83353264      -0.00067398       0.00095072      -0.00116670
Cl       4.61183947       1.32938988       7.98794017       0.00066976      -0.00094849       0.00115663
