9
Lattice="5.708761312760445 3.2017042030911875e-09 3.295954967582556 1.9029204383089169 5.382271841354678 3.295954971560217 -1.5915217100287026e-09 3.746236956865071e-09 6.591909937921689" Properties=species:S:1:pos:R:3:forces:R:3 energy=-32.4799919128418 free_energy=-32.4799919128418 stress="-0.00010850352555280551 -1.0902846625526763e-08 -2.775818863653967e-08 -1.0902846625526763e-08 -0.00010852551349671558 -3.680745042089484e-09 -2.775818863653967e-08 -3.680745042089484e-09 -0.00010853265121113509" pbc="T T T"
Mn       1.90292048       1.34556862       3.29595411      -0.00000017       0.00000354      -0.00000541
Mn       5.70876248       4.03670437       9.88786575       0.00000886       0.00000456       0.00000728
Cd      -0.00000002       0.00000002      -0.00000049      -0.00000038      -0.00000092       0.00001126
Cl       2.00445918       1.41736675       6.59191015      -0.00265658      -0.00187826       0.00000409
Cl       5.60722251       3.96490497       6.59190978       0.00265728       0.00187817      -0.00000113
Cl       4.70653160       1.41736690       5.03186822       0.00133161      -0.00188230      -0.00230339
Cl       2.90514922       3.96490500       8.15195202      -0.00133246       0.00187202       0.00229590
Cl       2.90515015       3.96490465       5.03186800      -0.00133196       0.00188150      -0.00230432
Cl       4.70653141       1.41736611       8.15195199       0.00132387      -0.00187859       0.00229560
