9
Lattice="5.6845289676538195 -9.293610331679863e-09 3.2819645979385874 1.8948429624330883 5.3594251239908 3.2819646291548383 -3.499620927159257e-08 1.3485905573296484e-08 6.563929256492367" Properties=species:S:1:pos:R:3:forces:R:3 energy=-42.869384765625 free_energy=-42.869384765625 stress="-6.237369234440848e-06 -7.319243433556721e-09 3.1038553949258585e-09 -7.319243433556721e-09 -6.206645593920257e-06 -1.2759157286268419e-08 3.1038553949258585e-09 -1.2759157286268419e-08 -6.17590376350563e-06" pbc="T T T"
Mn       1.89484254       1.33985650       3.28196456      -0.00000374      -0.00000073      -0.00000272
Mn       5.68452825       4.01956861       9.84589392      -0.00000195      -0.00000183       0.00000107
Cr       0.00000029      -0.00000006       0.00000061      -0.00000305      -0.00000079      -0.00000730
Cl       1.89220108       1.33798829       6.56392938      -0.00199484      -0.00140943       0.00000151
Cl       5.68717073       4.02143667       6.56392923       0.00200074       0.00141189      -0.00000046
Cl       4.73842840       1.33798803       4.92065901       0.00099678      -0.00140761      -0.00172532
Cl       2.84094387       4.02143699       8.20719916      -0.00099821       0.00141166       0.00173055
Cl       2.84094409       4.02143728       4.92065894      -0.00099520       0.00140900      -0.00172834
Cl       4.73842836       1.33798822       8.20719909       0.00099953      -0.00141228       0.00173097
