9
Lattice="6.462712014378984 -3.654802456692961e-08 3.731248532690949 2.1542373276730893 6.093103247226659 3.731248491113814 -1.761831827410286e-08 -6.337939916664758e-08 7.462497095897647" Properties=species:S:1:pos:R:3:forces:R:3 energy=-28.278966903686523 free_energy=-28.278966903686523 stress="-0.00015106247155927122 3.4352689581851337e-09 7.456581130327322e-09 3.4352689581851337e-09 -0.00015106520731933415 7.107421873264741e-10 7.456581130327322e-09 7.107421873264741e-10 -0.00015107924991752952" pbc="T T T"
Mn       2.15423752       1.52327602       3.73124866      -0.00000007       0.00000199       0.00000105
Mn       6.46271170       4.56982606      11.19374715      -0.00000082      -0.00000817       0.00001006
Cu       0.00000005      -0.00000004       0.00000000       0.00000051       0.00000013      -0.00000046
I        2.19115525       1.54938088       7.46249699      -0.00133682      -0.00094243      -0.00000061
I        6.42579398       4.54372266       7.46249664       0.00133520       0.00094436      -0.00000323
I        5.36713464       1.54938150       5.62884414       0.00066950      -0.00094000      -0.00115966
I        3.24981467       4.54372226       9.29614913      -0.00066984       0.00094401       0.00115576
I        3.24981513       4.54372237       5.62884446      -0.00066578       0.00094442      -0.00115871
I        5.36713435       1.54938087       9.29614931       0.00066813      -0.00094428       0.00115591
