9
Lattice="6.067648338777158 1.6343797305747308e-08 3.5031583727621736 2.022549471030836 5.72063340638745 3.503158356545501 6.502561619576734e-08 2.611877138931752e-08 7.006316632896702" Properties=species:S:1:pos:R:3:forces:R:3 energy=-40.60337829589844 free_energy=-40.60337829589844 stress="8.686300134286284e-05 -1.3129745290996198e-08 2.745735860898435e-10 -1.3129745290996198e-08 8.688376692589372e-05 7.527994227984891e-09 2.745735860898435e-10 7.527994227984891e-09 8.689561946084723e-05" pbc="T T T"
Mn       2.02255111       1.43015908       3.50315887       0.00001165       0.00000479       0.00000190
Mn       6.06764797       4.29047440      10.50947600      -0.00000306      -0.00000510       0.00000428
Co      -0.00000008       0.00000015      -0.00000033       0.00000061       0.00000097       0.00000113
Te       2.01040132       1.42156865       7.00631646       0.00050543       0.00035908      -0.00000087
Te       6.07979623       4.29906508       7.00631602      -0.00050620      -0.00035720      -0.00000292
Te       5.06244714       1.42156890       5.24421660      -0.00025623       0.00035965       0.00043120
Te       3.02775038       4.29906451       8.76841633       0.00025223      -0.00035974      -0.00043450
Te       3.02775030       4.29906464       5.24421690       0.00025257      -0.00035980       0.00043409
Te       5.06244714       1.42156840       8.76841657      -0.00025700       0.00035736      -0.00043436
