9
Lattice="4.360822826159287 1.2447671150896653e-07 2.517722039758328 1.4536076978694257 4.111423470271456 2.5177220886161353 7.539560192369825e-08 1.1315111767149185e-07 5.0354439489276395" Properties=species:S:1:pos:R:3:forces:R:3 energy=-47.08094024658203 free_energy=-47.08094024658203 stress="-5.753646473749541e-05 -1.6656443335705262e-07 -9.719900617710664e-08 -1.6656443335705262e-07 -5.7538280088920146e-05 -3.558311689744187e-08 -9.719900617710664e-08 -3.558311689744187e-08 -5.782410880783573e-05" pbc="T T T"
Mn       1.45360794       1.02785493       2.51772183       0.00000378      -0.00000328      -0.00000073
Mn       4.36082309       3.08356998       7.55316550       0.00000115       0.00000972      -0.00000462
C        0.00000181      -0.00000043      -0.00000095      -0.00000865      -0.00000191       0.00000030
F        1.27190866       0.89937555       5.03544401       0.00713658       0.00504059       0.00000262
F        4.54252092       3.21204727       5.03544410      -0.00713933      -0.00504711       0.00000051
F        3.72486741       0.89937611       3.61922849      -0.00356188       0.00503546       0.00618684
F        2.08956218       3.21204812       6.45166135       0.00356540      -0.00503552      -0.00618345
F        2.08956254       3.21204731       3.61922768       0.00356773      -0.00503531       0.00618303
F        3.72486792       0.89937612       6.45166043      -0.00356463       0.00503704      -0.00618488
