9
Lattice="6.009103532781037 -1.0710428480157534e-07 3.4693577049021 2.0030343715388947 5.665437364759813 3.469357771428813 1.954366575388509e-08 9.529772357600808e-08 6.938715375953556" Properties=species:S:1:pos:R:3:forces:R:3 energy=-39.22782897949219 free_energy=-39.22782897949219 stress="-5.852190952282399e-05 -9.083677809940127e-08 -3.382590596512358e-10 -9.083677809940127e-08 -5.845786654390395e-05 -1.6553979520494977e-08 -3.382590596512358e-10 -1.6553979520494977e-08 -5.840550875291228e-05" pbc="T T T"
Mn       2.00303427       1.41636100       3.46935831      -0.00000239       0.00000833       0.00000242
Mn       6.00910302       4.24907898      10.40807105      -0.00000330       0.00000595      -0.00001079
Cr      -0.00000088      -0.00000011       0.00000205       0.00001895      -0.00000214      -0.00003046
Br       2.00335774       1.41658723       6.93871536      -0.00676858      -0.00479021      -0.00000064
Br       6.00878127       4.24884933       6.93871609       0.00676034       0.00477643       0.00000317
Br       5.00742479       1.41658699       5.20431675       0.00337946      -0.00478301      -0.00585243
Br       3.00471421       4.24884838       8.67311376      -0.00339085       0.00479671       0.00587825
Br       3.00471304       4.24884908       5.20431645      -0.00338461       0.00478237      -0.00586192
Br       5.00742422       1.41658854       8.67311364       0.00339105      -0.00479431       0.00587256
