9
Lattice="6.566432999696505 5.4991304401598805e-09 3.7911319430735757 2.1888110457292065 6.1908922762852985 3.7911318726731347 4.0556459552306735e-08 -5.754487885444033e-08 7.582263815901199" Properties=species:S:1:pos:R:3:forces:R:3 energy=-35.07062530517578 free_energy=-35.07062530517578 stress="-2.503753603377845e-05 -3.2666669369518786e-10 2.1113488735124974e-09 -3.2666669369518786e-10 -2.5064433430088684e-05 -2.5372133283241283e-09 2.1113488735124974e-09 -2.5372133283241283e-09 -2.5050074327737093e-05" pbc="T T T"
Mn       2.18881124       1.54772304       3.79113243       0.00000102       0.00000045       0.00000368
Mn       6.56643263       4.64317110      11.37339580      -0.00000240       0.00000793      -0.00000089
Cr      -0.00000008      -0.00000030       0.00000031      -0.00000020       0.00000223      -0.00000262
I        2.17802211       1.54009334       7.58226363       0.00283606       0.00200203      -0.00000165
I        6.57722252       4.65079829       7.58226375      -0.00283574      -0.00200501       0.00000013
I        5.47742198       1.54009334       5.67735414      -0.00141857       0.00200264       0.00245564
I        3.27782205       4.65079840       9.48717359       0.00141855      -0.00200576      -0.00245550
I        3.27782190       4.65079825       5.67735390       0.00141873      -0.00200640       0.00245628
I        5.47742200       1.54009343       9.48717295      -0.00141747       0.00200191      -0.00245508
