9
Lattice="6.064185757201253 -6.062632939792454e-08 3.501159266663386 2.021395187541927 5.717369328079249 3.5011592799992313 -9.769354472818361e-08 -5.274676426437088e-08 7.002318702536936" Properties=species:S:1:pos:R:3:forces:R:3 energy=-29.10973358154297 free_energy=-29.10973358154297 stress="-3.005270082212519e-05 -2.590690550974273e-09 1.5734380909293577e-08 -2.590690550974273e-09 -3.007730447279755e-05 8.805658424648755e-09 1.5734380909293577e-08 8.805658424648755e-09 -3.002861558343284e-05" pbc="T T T"
Mn       2.02139548       1.42934428       3.50115831       0.00000137       0.00001459      -0.00000723
Mn       6.06418512       4.28802563      10.50347660      -0.00000319      -0.00000868      -0.00001218
Cd       0.00000008      -0.00000017      -0.00000017      -0.00000087       0.00000134       0.00000329
Br       2.14835667       1.51911841       7.00231902      -0.00032341      -0.00022505       0.00000223
Br       5.93722422       4.19825064       7.00231908       0.00032364       0.00022291       0.00000569
Br       4.99000703       1.51911806       5.36169137       0.00016249      -0.00022905      -0.00028044
Br       3.09557401       4.19825077       8.64294672      -0.00015740       0.00022072       0.00028360
Br       3.09557386       4.19825113       5.36169145      -0.00016296       0.00022765      -0.00027876
Br       4.99000690       1.51911812       8.64294656       0.00016034      -0.00022458       0.00028388
