9
Lattice="4.570097980081757 9.93017326008776e-09 2.6385472897915534 1.5233660211224234 4.308729614620659 2.6385472579225815 5.281864259815213e-08 -1.68293878739981e-09 5.277094488098567" Properties=species:S:1:pos:R:3:forces:R:3 energy=-50.07481384277344 free_energy=-50.07481384277344 stress="0.00018279229698237032 -7.15498416070659e-08 -1.0876469502818509e-08 -7.15498416070659e-08 0.0001828485110308975 8.622768277177784e-09 -1.0876469502818509e-08 8.622768277177784e-09 0.00018290316802449524" pbc="T T T"
Mn       1.52336609       1.07718211       2.63854714      -0.00000068      -0.00000083       0.00000000
Mn       4.57009792       3.23154700       7.91564288       0.00000010      -0.00000011       0.00000520
Co      -0.00000015       0.00000015      -0.00000004       0.00000691      -0.00000561       0.00000322
F        1.51605694       1.07201393       5.27709451      -0.00109282      -0.00077166       0.00000038
F        4.57740729       3.23671562       5.27709400       0.00108975       0.00077166      -0.00000088
F        3.81206952       1.07201449       3.95149085       0.00054856      -0.00077374      -0.00095035
F        2.28139430       3.23671563       6.60269808      -0.00054765       0.00077510       0.00094853
F        2.28139478       3.23671570       3.95149100      -0.00054852       0.00077742      -0.00095069
F        3.81206957       1.07201384       6.60269771       0.00054443      -0.00077204       0.00094453
