9
Lattice="5.605741439629008 6.352878845950759e-09 3.236476323929587 1.8685804806113764 5.2851434880164305 3.236476333030629 2.1085943500582656e-09 1.2637480846221035e-08 6.4729526442070275" Properties=species:S:1:pos:R:3:forces:R:3 energy=-39.99116897583008 free_energy=-39.99116897583008 stress="-0.00015773865743540227 8.184798616639455e-09 6.536001961876536e-09 8.184798616639455e-09 -0.0001577184593770653 -3.3411358124624257e-09 6.536001961876536e-09 -3.3411358124624257e-09 -0.000157715636305511" pbc="T T T"
Mn       1.86858233       1.32128496       3.23647613       0.00001675      -0.00000979       0.00000088
Mn       5.60574130       3.96385528       9.70943323       0.00000214      -0.00001849       0.00003766
Fe      -0.00000056       0.00000001      -0.00000089       0.00000822       0.00000245       0.00001255
Cl       1.86254230       1.31701659       6.47295249       0.00782350       0.00553682      -0.00000118
Cl       5.61177918       3.96812874       6.47295075      -0.00784004      -0.00553294      -0.00001230
Cl       4.67447053       1.31701787       4.84948412      -0.00391392       0.00554673       0.00676852
Cl       2.79985030       3.96812770       8.09641980       0.00391117      -0.00554024      -0.00678721
Cl       2.79985209       3.96812716       4.84948517       0.00391559      -0.00553060       0.00677085
Cl       4.67447020       1.31701569       8.09642028      -0.00392345       0.00554600      -0.00678989
