9
Lattice="6.505313067097725 1.4525990411621066e-07 3.7558441739162 2.1684378136392333 6.133267903337922 3.755844195299443 9.623366540523913e-08 9.423651934073363e-08 7.511688181150704" Properties=species:S:1:pos:R:3:forces:R:3 energy=-32.632469177246094 free_energy=-32.632469177246094 stress="-7.361965253949165e-05 8.731149137020111e-09 -2.6681201248379693e-08 8.731149137020111e-09 -7.368135266005993e-05 4.161277988856682e-09 -2.6681201248379693e-08 4.161277988856682e-09 -7.372989784926176e-05" pbc="T T T"
Mn       2.16843917       1.53331701       3.75584377       0.00000517      -0.00000018      -0.00000018
Mn       6.50531254       4.59995136      11.26753039      -0.00000411       0.00000072      -0.00000713
Fe       0.00000131      -0.00000062      -0.00000072      -0.00002526       0.00000778       0.00002073
I        2.01000960       1.42129051       7.51168820       0.00353526       0.00249934       0.00000106
I        6.66374005       4.71197689       7.51168875      -0.00352158      -0.00248978       0.00000311
I        5.50030761       1.42129180       5.49656414      -0.00175960       0.00248631       0.00304851
I        3.17344235       4.71197759       9.52681458       0.00177225      -0.00250595      -0.00306762
I        3.17344257       4.71197667       5.49656269       0.00176509      -0.00249918       0.00306080
I        5.50030870       1.42129137       9.52681446      -0.00176717       0.00250092      -0.00305893
