9
Lattice="5.763801418754602 -1.36188750920431e-07 3.327732158878306 1.9212670355522834 5.434163728266154 3.327732116672738 -6.641478066646948e-08 -9.865338989973057e-08 6.655464432790407" Properties=species:S:1:pos:R:3:forces:R:3 energy=-39.82212829589844 free_energy=-39.82212829589844 stress="-0.00023489243176300079 -8.036476373263213e-09 5.248560341897246e-08 -8.036476373263213e-09 -0.00023482448887079954 5.1200682804619646e-08 5.248560341897246e-08 5.1200682804619646e-08 -0.00023487975704483688" pbc="T T T"
Mn       1.92126054       1.35854306       3.32774083      -0.00005615       0.00001728       0.00007697
Mn       5.76379800       4.07563012       9.98318883      -0.00002853       0.00006653      -0.00007214
Ge      -0.00000017       0.00000009       0.00000009      -0.00000186       0.00000429       0.00000419
Se       2.00382546       1.41691292       6.65546096       0.00292803       0.00202501      -0.00003420
Se       5.68124749       4.01724430       6.65546680      -0.00289316      -0.00207607       0.00002879
Se       4.76188907       1.41691349       5.06309582      -0.00145980       0.00202303       0.00253437
Se       2.92318262       4.01724871       8.24783588       0.00148922      -0.00204243      -0.00251234
Se       2.92317642       4.01724520       5.06309362       0.00144036      -0.00206956       0.00251471
Se       4.76189409       1.41691607       8.24783205      -0.00141814       0.00205198      -0.00254038
