9
Lattice="6.070394971499618 2.8343458221693518e-08 3.504744110891417 2.023465017354299 5.723223273648196 3.5047441106628985 -7.182028534589035e-09 -5.3583427271626335e-09 7.009488234222487" Properties=species:S:1:pos:R:3:forces:R:3 energy=-32.90923309326172 free_energy=-32.90923309326172 stress="-2.2401743535738206e-06 -7.488104358799319e-09 -5.976572570176586e-10 -7.488104358799319e-09 -2.2318449737213086e-06 -6.230175930710402e-09 -5.976572570176586e-10 -6.230175930710402e-09 -2.234545036117197e-06" pbc="T T T"
Mn       2.02346481       1.43080724       3.50474398      -0.00000084       0.00000826      -0.00000107
Mn       6.07039418       4.29241724      10.51423132      -0.00000543      -0.00000205      -0.00000347
Ge      -0.00000011       0.00000024      -0.00000016       0.00000118      -0.00000074       0.00000276
Br       2.06409968       1.45953885       7.00948835      -0.00278569      -0.00196968       0.00000207
Br       6.02976091       4.26368386       7.00948825       0.00278634       0.00196509       0.00000162
Br       5.03834476       1.45953882       5.29230723       0.00139432      -0.00197169      -0.00241312
Br       3.05551519       4.26368418       8.72667015      -0.00138949       0.00196763       0.00241365
Br       3.05551502       4.26368401       5.29230686      -0.00139332       0.00196996      -0.00241473
Br       5.03834549       1.45953874       8.72666987       0.00139292      -0.00196680       0.00241234
