9
Lattice="6.288324057288845 -1.6107638156575785e-08 3.6305655003288284 2.09610801810916 5.928688601241389 3.630565475734897 1.0467463493529862e-08 -2.271967147385883e-08 7.261130982527514" Properties=species:S:1:pos:R:3:forces:R:3 energy=-36.867530822753906 free_energy=-36.867530822753906 stress="0.00010170591849600896 3.42181771806338e-09 -4.953982710165228e-11 3.42181771806338e-09 0.00010170901077799499 -4.8509654071438035e-09 -4.953982710165228e-11 -4.8509654071438035e-09 0.00010170626046601683" pbc="T T T"
Mn       2.09610764       1.48217295       3.63056572      -0.00000226       0.00000580       0.00000083
Mn       6.28832392       4.44651493      10.89169660      -0.00000092      -0.00000936       0.00000196
Ge      -0.00000009      -0.00000014      -0.00000001      -0.00000008       0.00000054       0.00000183
Te       2.23534029       1.58062485       7.26113096       0.00245352       0.00173858       0.00000039
Te       6.14909180       4.34806412       7.26113071      -0.00245327      -0.00173877      -0.00000097
Te       5.17065402       1.58062489       5.56642675      -0.00122505       0.00173937       0.00212404
Te       3.21377830       4.34806395       8.95583501       0.00122786      -0.00173904      -0.00212568
Te       3.21377805       4.34806388       5.56642702       0.00122643      -0.00173700       0.00212452
Te       5.17065440       1.58062482       8.95583509      -0.00122619       0.00173989      -0.00212686
