9
Lattice="4.4973029974720555 -2.2559335148398602e-08 2.5965190890314207 1.4991009643394686 4.24009798099411 2.596519112498531 -4.17289617917217e-08 -7.656274784944833e-10 5.193038250339552" Properties=species:S:1:pos:R:3:forces:R:3 energy=-54.82147979736328 free_energy=-54.82147979736328 stress="0.000359088386176154 2.098803619787759e-08 6.259330120883533e-08 2.098803619787759e-08 0.00035877013579010963 -8.995641564979451e-08 6.259330120883533e-08 -8.995641564979451e-08 0.0003593166475184262" pbc="T T T"
Mn       1.49910125       1.06002516       2.59651905       0.00000056       0.00000191       0.00000018
Mn       4.49730268       3.18007331       7.78955732      -0.00000080       0.00000104      -0.00000045
Ge       0.00000013       0.00000002       0.00000005      -0.00000009       0.00000060       0.00000052
O        1.51822032       1.07354390       5.19303869       0.00559855       0.00395846       0.00000139
O        4.47818366       3.16655388       5.19303845      -0.00560045      -0.00396204      -0.00000004
O        3.73819260       1.07354379       3.91133595      -0.00279993       0.00396115       0.00484765
O        2.25821078       3.16655408       6.47474007       0.00279874      -0.00396007      -0.00484836
O        2.25821110       3.16655397       3.91133610       0.00280190      -0.00396043       0.00484824
O        3.73819313       1.07354372       6.47473991      -0.00279838       0.00395924      -0.00485086
