9
Lattice="4.8388504789203095 -1.5160754012188335e-07 2.793711588839394 1.612950143371948 4.562111268294073 2.7937113694424616 9.58445784911907e-08 -2.0093283403140073e-07 5.58742301167108" Properties=species:S:1:pos:R:3:forces:R:3 energy=-49.5959587097168 free_energy=-49.5959587097168 stress="0.00034358876291662455 -8.735552725624984e-09 -6.322677048586911e-09 -8.735552725624984e-09 0.00034347668406553566 7.212914709953111e-08 -6.322677048586911e-09 7.212914709953111e-08 0.0003435209218878299" pbc="T T T"
Mn       1.61295048       1.14052822       2.79371160       0.00000057       0.00000081      -0.00000069
Mn       4.83885040       3.42158303       8.38113397      -0.00000065       0.00000019      -0.00000062
Ge      -0.00000009      -0.00000018       0.00000024       0.00000562       0.00000182       0.00000142
F        1.49543010       1.05742808       5.58742309       0.00338742       0.00239709      -0.00000145
F        4.95637074       3.50468278       5.58742322      -0.00339186      -0.00240022       0.00000113
F        4.09113535       1.05742840       4.08879188      -0.00169459       0.00239640       0.00293532
F        2.36066525       3.50468245       7.08605393       0.00169422      -0.00239605      -0.00293452
F        2.36066541       3.50468291       4.08879129       0.00169514      -0.00240099       0.00293905
F        4.09113540       1.05742792       7.08605439      -0.00169580       0.00240090      -0.00293961
