9
Lattice="6.659661299546422 1.041723143119346e-07 3.844957236736747 2.219887175705714 6.27878890542059 3.8449572754613976 -5.776662968198971e-09 4.334313299007356e-08 7.689914483478985" Properties=species:S:1:pos:R:3:forces:R:3 energy=-29.088048934936523 free_energy=-29.088048934936523 stress="0.000139160780236125 2.52479837037356e-09 2.8955795539076234e-09 2.52479837037356e-09 0.00013915843737777323 -1.1758181095444797e-09 2.8955795539076234e-09 -1.1758181095444797e-09 0.00013917179603595287" pbc="T T T"
Mn       2.21988780       1.56969700       3.84495757       0.00000367      -0.00000189       0.00000156
Mn       6.65966050       4.70909189      11.53487210      -0.00000386      -0.00000001       0.00000091
Ge       0.00000002       0.00000000      -0.00000000      -0.00000063       0.00000010      -0.00000080
I        2.31296193       1.63551106       7.68991457      -0.00683883      -0.00483678      -0.00000084
I        6.56658659       4.64327809       7.68991433       0.00683949       0.00483794      -0.00000063
I        5.50318035       1.63551110       5.84804072       0.00341867      -0.00483563      -0.00592403
I        3.37636837       4.64327806       9.53178808      -0.00341873       0.00483721       0.00592331
I        3.37636810       4.64327781       5.84804064      -0.00341903       0.00483538      -0.00592460
I        5.50318024       1.63551123       9.53178795       0.00341931      -0.00483636       0.00592510
