9
Lattice="5.757641028114483 -9.799679820728113e-08 3.3241753365529663 1.9192135012270586 5.428355751410198 3.3241754793065343 -1.474322518547334e-07 7.058636142891339e-08 6.6483509284660816" Properties=species:S:1:pos:R:3:forces:R:3 energy=-36.8173942565918 free_energy=-36.8173942565918 stress="0.0001383939670631662 -3.6239494960454977e-08 -1.8471316920454228e-08 -3.6239494960454977e-08 0.00013841353938914835 5.673530267813476e-08 -1.8471316920454228e-08 5.673530267813476e-08 0.00013840847532264888" pbc="T T T"
Mn       1.91921350       1.35708853       3.32417566       0.00000071      -0.00000300       0.00000125
Mn       5.75764111       4.07126708       9.97252863       0.00000324       0.00000151       0.00001354
Ge      -0.00000008       0.00000019       0.00000017       0.00000424      -0.00000141      -0.00000261
Cl       1.92079957       1.35821027       6.64835046      -0.00153092      -0.00108193      -0.00000139
Cl       5.75605481       4.07014565       6.64835022       0.00152725       0.00107986      -0.00000379
Cl       4.79724062       1.35821086       4.98763665       0.00076848      -0.00108121      -0.00132729
Cl       2.87961336       4.07014537       8.30906388      -0.00077231       0.00108708       0.00132864
Cl       2.87961365       4.07014527       4.98763680      -0.00076517       0.00108364      -0.00132884
Cl       4.79724096       1.35820969       8.30906451       0.00076453      -0.00108458       0.00132056
