9
Lattice="6.149935658559749 2.699755217683306e-08 3.550667117670627 2.0499785994399096 5.798215024053673 3.5506670810669103 6.037743228025695e-08 -2.1369462437696374e-09 7.101334130764476" Properties=species:S:1:pos:R:3:forces:R:3 energy=-27.095256805419922 free_energy=-27.095256805419922 stress="3.754951831069775e-05 -1.0681915796340036e-08 -1.1269190913765215e-08 -1.0681915796340036e-08 3.756830483325757e-05 -1.7508404448474124e-10 -1.1269190913765215e-08 -1.7508404448474124e-10 3.755996294785291e-05" pbc="T T T"
Mn       2.04997841       1.44955400       3.55066622       0.00000028      -0.00000050      -0.00000492
Mn       6.14993585       4.34866136      10.65200132       0.00000013       0.00000335       0.00000082
Hg       0.00000040      -0.00000022       0.00000002      -0.00000476       0.00000286       0.00000081
Br       2.20004966       1.55566988       7.10133453      -0.00728476      -0.00515048       0.00000302
Br       5.99986448       4.24254512       7.10133408       0.00728755       0.00515124      -0.00000016
Br       5.04991071       1.55567001       5.45596634       0.00364471      -0.00515461      -0.00631128
Br       3.15000349       4.24254491       8.74670239      -0.00364308       0.00515029       0.00630862
Br       3.15000370       4.24254514       5.45596601      -0.00364225       0.00515182      -0.00630870
Br       5.04991065       1.55567000       8.74670243       0.00364228      -0.00515391       0.00631173
