9
Lattice="5.784703343668509 6.832762747966412e-08 3.3397999108821224 1.9282344982902857 5.453870753034925 3.3397999351638896 -7.137259180161598e-08 -2.072900505796581e-08 6.679599945385191" Properties=species:S:1:pos:R:3:forces:R:3 energy=-30.02489471435547 free_energy=-30.02489471435547 stress="3.307937367935665e-05 7.86573384203848e-09 -5.304505723557895e-09 7.86573384203848e-09 3.314649438834749e-05 -6.729512058711862e-09 -5.304505723557895e-09 -6.729512058711862e-09 3.309213570901193e-05" pbc="T T T"
Mn       1.92823546       1.36346771       3.33979915       0.00000658       0.00000065      -0.00000620
Mn       5.78470310       4.09040391      10.01939885      -0.00000013       0.00000613      -0.00000708
Hg      -0.00000022       0.00000010       0.00000029       0.00000079       0.00000015      -0.00000136
Cl       2.04471093       1.44582904       6.67960023      -0.00569041      -0.00402792       0.00000259
Cl       5.66822671       4.00804168       6.67960022       0.00569092       0.00402530       0.00000420
Cl       4.76234770       1.44582861       5.11057177       0.00284247      -0.00402583      -0.00492620
Cl       2.95058990       4.00804137       8.24862838      -0.00284579       0.00402342       0.00492910
Cl       2.95058996       4.00804175       5.11057153      -0.00284678       0.00402340      -0.00492582
Cl       4.76234753       1.44582899       8.24862877       0.00284230      -0.00402524       0.00493093
