9
Lattice="6.719046913307823 -4.290037399562663e-08 3.87924360209956 2.239682298386156 6.33477811679272 3.879243542522018 3.5570946612742725e-08 -4.781484127175848e-08 7.758487142588462" Properties=species:S:1:pos:R:3:forces:R:3 energy=-24.137468338012695 free_energy=-24.137468338012695 stress="-2.067380046355538e-05 -5.822673898592257e-09 -6.550354036960471e-09 -5.822673898592257e-09 -2.0653713363572024e-05 -3.042171403677685e-09 -6.550354036960471e-09 -3.042171403677685e-09 -2.066528395516798e-05" pbc="T T T"
Mn       2.23968227       1.58369476       3.87924381      -0.00000028       0.00000101       0.00000059
Mn       6.71904682       4.75108338      11.63773035       0.00000014       0.00000020      -0.00000046
Hg      -0.00000003      -0.00000015       0.00000014       0.00000120       0.00000127      -0.00000073
I        2.39092771       1.69064116       7.75848719      -0.00094360      -0.00066689      -0.00000006
I        6.56780177       4.64413683       7.75848725       0.00094165       0.00066489      -0.00000045
I        5.52358303       1.69064101       5.94984775       0.00047125      -0.00066622      -0.00081663
I        3.43514641       4.64413700       9.56712663      -0.00047091       0.00066741       0.00081727
I        3.43514587       4.64413695       5.94984754      -0.00047105       0.00066556      -0.00081661
I        5.52358313       1.69064117       9.56712649       0.00047161      -0.00066721       0.00081712
