9
Lattice="5.798403348797385 2.286289166327648e-07 3.3477096856015223 1.9328013417715986 5.46678737661306 3.347709668363438 1.31909535557953e-07 7.216188799761401e-08 6.6954191427290155" Properties=species:S:1:pos:R:3:forces:R:3 energy=-35.43309020996094 free_energy=-35.43309020996094 stress="9.233168384525925e-05 5.276753967109471e-08 -1.185916964629996e-08 5.276753967109471e-08 9.229950956068933e-05 1.6056791452001562e-08 -1.185916964629996e-08 1.6056791452001562e-08 9.23632105696015e-05" pbc="T T T"
Mn       1.93280199       1.36669680       3.34771032       0.00000165       0.00000162       0.00000681
Mn       5.79840254       4.10009055      10.04313102      -0.00000735      -0.00000156       0.00001504
In      -0.00000011       0.00000017       0.00000005       0.00000205      -0.00000185      -0.00000050
Cl       2.01258057       1.42310965       6.69541896      -0.00564583      -0.00399464      -0.00000207
Cl       5.71862402       4.04367815       6.69541832       0.00564444       0.00399248      -0.00000523
Cl       4.79211335       1.42310965       5.09065446       0.00282075      -0.00398673      -0.00489111
Cl       2.93909113       4.04367831       8.30018307      -0.00281989       0.00399120       0.00488560
Cl       2.93909224       4.04367830       5.09065455      -0.00281566       0.00398849      -0.00489198
Cl       4.79211358       1.42310910       8.30018318       0.00281978      -0.00398900       0.00488339
