9
Lattice="6.747312124174951 4.0975524837229146e-08 3.8955624735362324 2.2491040691870596 6.361426936147242 3.8955624923059453 8.805614730387836e-09 2.921459533568084e-08 7.791124931820709" Properties=species:S:1:pos:R:3:forces:R:3 energy=-27.98615074157715 free_energy=-27.98615074157715 stress="-0.0001683797308942303 -1.696259688266366e-09 -3.954554461671478e-09 -1.696259688266366e-09 -0.00016838520241435617 -1.8989880778974566e-09 -3.954554461671478e-09 -1.8989880778974566e-09 -0.00016838623560033739" pbc="T T T"
Mn       2.24910381       1.59035658       3.89556248      -0.00000124       0.00000031      -0.00000116
Mn       6.74731205       4.77107014      11.68668793      -0.00000052      -0.00000060       0.00000126
In      -0.00000007      -0.00000005       0.00000005       0.00000087       0.00000073       0.00000126
I        2.34907676       1.66104810       7.79112499      -0.00736826      -0.00520983       0.00000015
I        6.64733959       4.70037900       7.79112476       0.00736740       0.00520901      -0.00000063
I        5.57277395       1.66104816       5.92992242       0.00368528      -0.00521027      -0.00638120
I        3.42364231       4.70037897       9.65232723      -0.00368370       0.00520939       0.00638065
I        3.42364249       4.70037904       5.92992243      -0.00368371       0.00521062      -0.00638062
I        5.57277392       1.66104807       9.65232728       0.00368385      -0.00520935       0.00638030
