9
Lattice="5.002578140101871 -8.48593067948864e-09 2.888239595780696 1.6675260518111892 4.716475527756507 2.888239573071443 -1.6712840302138982e-08 -3.963078325259894e-08 5.7764792205089135" Properties=species:S:1:pos:R:3:forces:R:3 energy=-47.355743408203125 free_energy=-47.355743408203125 stress="0.00019647199951577932 -1.5685257537256803e-08 -7.471516738633e-09 -1.5685257537256803e-08 0.0001964663970284164 -1.3788011621329588e-08 -7.471516738633e-09 -1.3788011621329588e-08 0.00019645087013486773" pbc="T T T"
Mn       1.66752588       1.17911880       2.88823971      -0.00000065      -0.00000074       0.00000177
Mn       5.00257805       3.53735691       8.66471866      -0.00000058       0.00000162      -0.00000036
In       0.00000008       0.00000008       0.00000033      -0.00000310       0.00000040      -0.00000426
F        1.68309049       1.19012452       5.77647900       0.00216908       0.00153387      -0.00000006
F        4.98701363       3.52635074       5.77647911      -0.00216607      -0.00153250       0.00000008
F        4.16103257       1.19012449       4.34583863      -0.00108422       0.00153247       0.00187731
F        2.50907125       3.52635119       7.20711992       0.00108375      -0.00153299      -0.00187743
F        2.50907158       3.52635087       4.34583842       0.00108482      -0.00153258       0.00187884
F        4.16103313       1.19012430       7.20711968      -0.00108310       0.00153040      -0.00187591
