9
Lattice="5.995506925394379 8.700125895201172e-09 3.4615076027144753 1.9985023209922828 5.652618204182487 3.4615075952234613 2.3294689452001415e-08 7.297285023409233e-09 6.92301516508128" Properties=species:S:1:pos:R:3:forces:R:3 energy=-32.16996765136719 free_energy=-32.16996765136719 stress="-0.00011728747631423175 7.53235251949036e-09 5.906992117665766e-10 7.53235251949036e-09 -0.00011728373647201806 -1.0451428167357335e-08 5.906992117665766e-10 -1.0451428167357335e-08 -0.00011729128891602159" pbc="T T T"
Mn       1.99850106       1.41315479       3.46150772      -0.00000898       0.00000315       0.00000198
Mn       5.99550721       4.23946313      10.38452219       0.00000392      -0.00000466      -0.00000279
Mg       0.00000002       0.00000007       0.00000032       0.00000197      -0.00000111      -0.00000083
Br       2.07438548       1.46681246       6.92301501      -0.00337733      -0.00238772      -0.00000023
Br       5.91962424       4.18580601       6.92301537       0.00337680       0.00238421       0.00000058
Br       4.95831439       1.46681210       5.25797820       0.00168942      -0.00238460      -0.00292074
Br       3.03569514       4.18580610       8.58805198      -0.00168804       0.00238979       0.00292431
Br       3.03569495       4.18580592       5.25797848      -0.00168821       0.00238819      -0.00292479
Br       4.95831459       1.46681233       8.58805220       0.00169052      -0.00238736       0.00292258
