9
Lattice="4.56349210913431 8.16406606894105e-08 2.634733447603147 1.521164091178839 4.302501662695149 2.634733486004125 -1.850015687728829e-08 3.394981212872718e-08 5.269466927249504" Properties=species:S:1:pos:R:3:forces:R:3 energy=-49.92168045043945 free_energy=-49.92168045043945 stress="0.00013103119272273034 -2.6020805066195862e-08 1.0418144569257493e-08 -2.6020805066195862e-08 0.00013104703975841403 1.0465313948770927e-08 1.0418144569257493e-08 1.0465313948770927e-08 0.000131104068714194" pbc="T T T"
Mn       1.52116451       1.07562516       2.63473368       0.00000249      -0.00000315      -0.00000007
Mn       4.56349186       3.22687635       7.90420022      -0.00000134       0.00000082      -0.00000139
Mg      -0.00000002       0.00000001      -0.00000000       0.00000129       0.00000175      -0.00000056
F        1.53513850       1.08550686       5.26946673      -0.00097486      -0.00068995       0.00000021
F        4.54951758       3.21699516       5.26946667       0.00097162       0.00068948       0.00000123
F        3.79592282       1.08550678       3.96420256       0.00048698      -0.00069037      -0.00084653
F        2.28873315       3.21699488       6.57473134      -0.00048684       0.00069051       0.00084584
F        2.28873336       3.21699496       3.96420264      -0.00048686       0.00069062      -0.00084632
F        3.79592300       1.08550702       6.57473154       0.00048776      -0.00068957       0.00084718
