9
Lattice="6.634711712686788 -7.750292975642977e-08 3.8305525632396544 2.211570508612611 6.255266084419434 3.830552544555193 -4.24380787790344e-09 -2.5884540758311274e-08 7.661105133829848" Properties=species:S:1:pos:R:3:forces:R:3 energy=-28.081052780151367 free_energy=-28.081052780151367 stress="-3.6106808693148196e-05 -4.490873450890831e-09 3.968303463608436e-09 -4.490873450890831e-09 -3.6098230339121073e-05 -5.5155058298339554e-09 3.968303463608436e-09 -5.5155058298339554e-09 -3.6102617741562426e-05" pbc="T T T"
Mn       2.21157024       1.56381593       3.83055254      -0.00000119      -0.00000384      -0.00000019
Mn       6.63471195       4.69145044      11.49165857       0.00000006       0.00000550       0.00000314
Mg      -0.00000032      -0.00000002      -0.00000016       0.00000162      -0.00000008       0.00000171
I        2.30077252       1.62689132       7.66110506      -0.00245251      -0.00173624       0.00000008
I        6.54550990       4.62837452       7.66110465       0.00245254       0.00173466      -0.00000066
I        5.48432557       1.62689176       5.82307983       0.00122644      -0.00173629      -0.00212432
I        3.36195650       4.62837441       9.49913007      -0.00122638       0.00173558       0.00212338
I        3.36195716       4.62837436       5.82308009      -0.00122652       0.00173631      -0.00212554
I        5.48432531       1.62689120       9.49913029       0.00122597      -0.00173556       0.00212242
