9
Lattice="5.66308490021067 -5.709369710228409e-08 3.2695836253865926 1.887694903828213 5.3392076857942135 3.2695836411139765 -5.569615853158013e-08 -2.012106332483485e-08 6.539167347241754" Properties=species:S:1:pos:R:3:forces:R:3 energy=-41.168148040771484 free_energy=-41.168148040771484 stress="-5.245069769443944e-05 -3.3641295971165164e-08 -1.0420885487860687e-08 -3.3641295971165164e-08 -5.240536484052427e-05 2.4451287661264587e-09 -1.0420885487860687e-08 2.4451287661264587e-09 -5.243779014563188e-05" pbc="T T T"
Mn       1.88769155       1.33480089       3.26957932      -0.00002968      -0.00001153      -0.00003990
Mn       5.66308182       4.00440967       9.80875187      -0.00002991       0.00003815       0.00000996
Ni       0.00000021      -0.00000029       0.00000019       0.00000250       0.00000350       0.00000023
Se       1.90608680       1.34780427       6.53916888       0.00606763       0.00426307       0.00001771
Se       5.64469449       3.99140208       6.53916727      -0.00605759      -0.00428158      -0.00000341
Se       4.71004361       1.34780541       4.92030375      -0.00301060       0.00427309       0.00525728
Se       2.84073780       3.99140022       8.15803335       0.00303219      -0.00428635      -0.00523749
Se       2.84073990       3.99140312       4.92030257       0.00304911      -0.00426677       0.00524709
Se       4.71004288       1.34780507       8.15803129      -0.00302337       0.00426862      -0.00525159
