9
Lattice="6.098840543617469 2.5896084327689263e-08 3.521167392294572 2.032946874668944 5.75004219852187 3.521167388169865 3.0738425358759786e-08 1.668362070035117e-08 7.042334731348611" Properties=species:S:1:pos:R:3:forces:R:3 energy=-38.94414138793945 free_energy=-38.94414138793945 stress="0.0001009481493383646 6.311392297675411e-09 -1.4209918797192245e-09 6.311392297675411e-09 0.0001009591796901077 1.6846282591131967e-08 -1.4209918797192245e-09 1.6846282591131967e-08 0.00010094806930283085" pbc="T T T"
Mn       2.03294834       1.43751171       3.52116666       0.00001131       0.00000713      -0.00000629
Mn       6.09883930       4.31253002      10.56350257      -0.00001070      -0.00001054       0.00000124
Ni       0.00000031       0.00000007      -0.00000001      -0.00000426       0.00000151       0.00000350
Te       2.07926660       1.47026401       7.04233509       0.00081441       0.00057850       0.00000305
Te       6.05252052       4.27977799       7.04233437      -0.00081317      -0.00057676      -0.00000160
Te       5.05920671       1.47026435       5.32186498      -0.00040790       0.00057913       0.00069822
Te       3.07258073       4.27977795       8.76280482       0.00041129      -0.00058189      -0.00070150
Te       3.07258064       4.27977827       5.32186486       0.00041119      -0.00057796       0.00070222
Te       5.05920663       1.47026460       8.76280472      -0.00041214       0.00058082      -0.00069880
