9
Lattice="4.4475269328704155 -1.8627234798872408e-08 2.567780994764317 1.482508915283895 4.193168808217099 2.567781072321522 -1.4719459498760645e-07 -9.094539873925636e-09 5.135562244477182" Properties=species:S:1:pos:R:3:forces:R:3 energy=-49.72932434082031 free_energy=-49.72932434082031 stress="0.00032075171475298703 6.19680262659017e-09 -2.9191323136501524e-08 6.19680262659017e-09 0.0003206979890819639 -1.554511186441232e-08 -2.9191323136501524e-08 -1.554511186441232e-08 0.000320676394039765" pbc="T T T"
Mn       1.48250885       1.04829227       2.56778089      -0.00000045      -0.00000008       0.00000050
Mn       4.44752693       3.14487647       7.70334324       0.00000084       0.00000011       0.00000027
Ni       0.00000008      -0.00000008       0.00000002      -0.00000185       0.00000454       0.00000017
O        1.47260521       1.04128908       5.13556244      -0.00265282      -0.00187711      -0.00000005
O        4.45743059       3.15187958       5.13556186       0.00265285       0.00187613       0.00000031
O        3.71122440       1.04128915       3.84309472       0.00132674      -0.00187662      -0.00229925
O        2.21881136       3.15187988       6.42802958      -0.00132643       0.00187556       0.00229707
O        2.21881136       3.15187943       3.84309482      -0.00132681       0.00187397      -0.00229838
O        3.71122422       1.04128937       6.42802967       0.00132746      -0.00187621       0.00229964
