9
Lattice="5.5520014204275 2.079710131800647e-08 3.205449547115637 1.8506671665662153 5.234477132894399 3.2054495353099726 2.3940274325991243e-08 2.4693413270689103e-09 6.410899052765561" Properties=species:S:1:pos:R:3:forces:R:3 energy=-37.10127258300781 free_energy=-37.10127258300781 stress="-3.4489956306060776e-05 1.428872020703409e-09 -1.0038546882640276e-08 1.428872020703409e-09 -3.450688745942898e-05 6.16457052071695e-10 -1.0038546882640276e-08 6.16457052071695e-10 -3.451185693847947e-05" pbc="T T T"
Mn       1.85066676       1.30861859       3.20544959      -0.00000273      -0.00000545       0.00000118
Mn       5.55200224       3.92585823       9.61634978       0.00000542       0.00000084       0.00000979
Ni      -0.00000012       0.00000012      -0.00000008       0.00000211      -0.00000281       0.00000189
Cl       1.86192701       1.31658137       6.41089890       0.00072280       0.00051220      -0.00000017
Cl       5.54074148       3.91789586       6.41089857      -0.00072229      -0.00051063      -0.00000439
Cl       4.62103794       1.31658143       4.81792551      -0.00036031       0.00051121       0.00062717
Cl       2.78163044       3.91789601       8.00387228       0.00035611      -0.00050840      -0.00062980
Cl       2.78163088       3.91789604       4.81792555       0.00036265      -0.00050707       0.00062573
Cl       4.62103774       1.31658096       8.00387243      -0.00036398       0.00051014      -0.00063144
