9
Lattice="6.460485996723206 -6.309107543192858e-09 3.7299633009846733 2.1534953143889854 6.09100448526094 3.7299633216026704 -2.6554750841625553e-08 6.474701713656838e-09 7.459926647963537" Properties=species:S:1:pos:R:3:forces:R:3 energy=-30.118698120117188 free_energy=-30.118698120117188 stress="-0.00012557825539261103 2.970402590563026e-09 6.26874507858588e-09 2.970402590563026e-09 -0.00012556943693198264 2.8440132471274637e-09 6.26874507858588e-09 2.8440132471274637e-09 -0.0001255756214959547" pbc="T T T"
Mn       2.15349502       1.52275100       3.72996343      -0.00000151      -0.00000035       0.00000054
Mn       6.46048648       4.56825315      11.18989047       0.00000265      -0.00000189       0.00000394
Ni      -0.00000002      -0.00000006      -0.00000009       0.00000085       0.00000064       0.00000022
I        2.16988767       1.53434260       7.45992661       0.00685255       0.00484804      -0.00000055
I        6.44409351       4.55666212       7.45992651      -0.00685498      -0.00484759      -0.00000127
I        5.37554216       1.53434249       5.60914130      -0.00342657       0.00484796       0.00593570
I        3.23843897       4.55666219       9.31071186       0.00342668      -0.00484623      -0.00593773
I        3.23843927       4.55666217       5.60914115       0.00342730      -0.00484663       0.00593650
I        5.37554210       1.53434227       9.31071183      -0.00342696       0.00484608      -0.00593734
