9
Lattice="5.88893260786298 -2.9076494705867337e-08 3.399976983129038 1.9629775143419774 5.552138828316122 3.3999769730809657 4.6874673797996595e-08 2.0839034073759814e-08 6.799953885068821" Properties=species:S:1:pos:R:3:forces:R:3 energy=-33.66654586791992 free_energy=-33.66654586791992 stress="6.586315430467948e-05 -2.8621011338714197e-08 -5.806707559230517e-09 -2.8621011338714197e-08 6.589863914996386e-05 -1.2764284740285348e-08 -5.806707559230517e-09 -1.2764284740285348e-08 6.587401003343984e-05" pbc="T T T"
Mn       1.96297810       1.38803511       3.39997631       0.00000347       0.00000499      -0.00000443
Mn       5.88893199       4.16410518      10.19992924      -0.00000334       0.00000856      -0.00001225
Ni      -0.00000009      -0.00000020      -0.00000037      -0.00000056       0.00000058       0.00000528
Br       1.97069559       1.39349190       6.79995400       0.00713910       0.00504433       0.00000161
Br       5.88121490       4.15864630       6.79995445      -0.00713918      -0.00504820       0.00000426
Br       4.90358435       1.39349203       5.10664988      -0.00356901       0.00504127       0.00617874
Br       2.94832597       4.15864631       8.49325944       0.00357203      -0.00505091      -0.00617753
Br       2.94832505       4.15864684       5.10665000       0.00356770      -0.00504470       0.00618373
Br       4.90358481       1.39349184       8.49325844      -0.00357021       0.00504409      -0.00617929
