9
Lattice="4.567720888164413 -5.9753318111646756e-09 2.6371748564198594 1.5225736089169504 4.306488645649762 2.6371748821192917 -5.6942829914122805e-08 -8.789386394168444e-09 5.274349811467566" Properties=species:S:1:pos:R:3:forces:R:3 energy=-47.49628829956055 free_energy=-47.49628829956055 stress="0.00013489567209035158 2.4707736301365912e-08 -1.888706524511008e-09 2.4707736301365912e-08 0.0001349536032648757 1.1541382072266515e-08 -1.888706524511008e-09 1.1541382072266515e-08 0.00013487698743119836" pbc="T T T"
Mn       1.52257400       1.07662195       2.63717497       0.00000348      -0.00000403      -0.00000002
Mn       4.56772127       3.22986634       7.91152450       0.00000210      -0.00000136      -0.00000174
Ni      -0.00000013      -0.00000000      -0.00000011       0.00000208      -0.00000015       0.00000169
F        1.54408348       1.09183248       5.27434981      -0.00073951      -0.00052092      -0.00000042
F        4.54621045       3.21465665       5.27434988       0.00073878       0.00052352       0.00000087
F        3.79567887       1.09183189       3.97439051       0.00036657      -0.00052330      -0.00063768
F        2.29461545       3.21465673       6.57430897      -0.00036941       0.00052263       0.00063812
F        2.29461541       3.21465655       3.97439050      -0.00037040       0.00052232      -0.00063840
F        3.79567894       1.09183189       6.57430916       0.00036645      -0.00051867       0.00063726
