9
Lattice="6.790823092204113 1.0536531198563486e-07 3.9206835291393833 2.263607826310613 6.402449211908746 3.920683477922853 3.857009181308496e-08 -3.545399615931594e-08 7.841366991473371" Properties=species:S:1:pos:R:3:forces:R:3 energy=-35.58720397949219 free_energy=-35.58720397949219 stress="0.0001558496296638623 1.8326733908224924e-08 4.866533398484307e-09 1.8326733908224924e-08 0.0001558283984195441 -1.3986038105429088e-08 4.866533398484307e-09 -1.3986038105429088e-08 0.00015582007472403347" pbc="T T T"
Mn       2.26360789       1.60061265       3.92068388      -0.00000065       0.00000049       0.00000063
Mn       6.79082292       4.80183703      11.76204962      -0.00000007       0.00000048      -0.00000216
Nb       0.00000052       0.00000014      -0.00000009      -0.00000386      -0.00000240      -0.00000140
I        2.26927196       1.60461736       7.84136704      -0.00330744      -0.00233830      -0.00000027
I        6.78515857       4.79783154       7.84136721       0.00331268       0.00234140       0.00000070
I        5.65618736       1.60461710       5.88593051       0.00165263      -0.00233776      -0.00286343
I        3.39824381       4.79783198       9.79680366      -0.00165331       0.00233781       0.00286470
I        3.39824366       4.79783192       5.88593063      -0.00165451       0.00233770      -0.00286489
I        5.65618713       1.60461740       9.79680351       0.00165453      -0.00233940       0.00286603
