9
Lattice="6.278785771740107 -5.7270203021194833e-08 3.6250586483756506 2.092928519373237 5.919696039999623 3.6250586781875715 -1.6534267277667402e-08 2.4820531875044797e-08 7.250117325389613" Properties=species:S:1:pos:R:3:forces:R:3 energy=-39.61927032470703 free_energy=-39.61927032470703 stress="4.721998266177252e-05 -3.0470054923625867e-08 9.242211440607662e-09 -3.0470054923625867e-08 4.7265169996535406e-05 -6.761647242115032e-09 9.242211440607662e-09 -6.761647242115032e-09 4.726369661511853e-05" pbc="T T T"
Mn       2.09292820       1.47992510       3.62505829      -0.00000178       0.00000526      -0.00000204
Mn       6.27878576       4.43977147      10.87517579       0.00000014      -0.00000145      -0.00000189
Nb      -0.00000000      -0.00000024       0.00000024       0.00000454       0.00000801       0.00000173
Br       2.09567299       1.48186483       7.25011739       0.00025143       0.00017951       0.00000094
Br       6.27604177       4.43783124       7.25011730      -0.00026079      -0.00018615       0.00000090
Br       5.23094904       1.48186483       5.43996507      -0.00012446       0.00017734       0.00021769
Br       3.14076513       4.43783104       9.06027002       0.00012867      -0.00018167      -0.00022145
Br       3.14076525       4.43783096       5.43996479       0.00012652      -0.00017862       0.00022033
Br       5.23094894       1.48186483       9.06026973      -0.00012420       0.00017777      -0.00021614
