9
Lattice="5.283559770627291 -5.5457994222357244e-08 3.0504646052681332 1.7611865365723351 4.981387649860437 3.0504646076072244 7.010878157546175e-09 7.822247925940253e-09 6.1009291983931" Properties=species:S:1:pos:R:3:forces:R:3 energy=-45.30936050415039 free_energy=-45.30936050415039 stress="0.0001429871772415936 -1.2226612611243581e-08 1.6711680927983252e-08 -1.2226612611243581e-08 0.00014301489864010364 -3.633568113059482e-08 1.6711680927983252e-08 -3.633568113059482e-08 0.00014299285248853266" pbc="T T T"
Mn       1.76118662       1.24534686       3.05046461      -0.00000027      -0.00000023      -0.00000002
Mn       5.28355973       3.73604097       9.15139355      -0.00000012       0.00000088      -0.00000015
Ni      -0.00000007       0.00000005       0.00000018       0.00000018       0.00000359      -0.00000027
S        1.76610156       1.24882211       6.10092923       0.00012428       0.00008725      -0.00000019
S        5.27864500       3.73256529       6.10092951      -0.00012714      -0.00008984       0.00000109
S        4.40050892       1.24882241       4.57995330      -0.00006241       0.00008881       0.00010744
S        2.64423735       3.73256543       7.62190510       0.00006364      -0.00008890      -0.00010923
S        2.64423729       3.73256515       4.57995326       0.00006311      -0.00008789       0.00010812
S        4.40050890       1.24882223       7.62190486      -0.00006127       0.00008634      -0.00010684
