9
Lattice="4.907643868463213 -8.84202313929104e-08 2.83342957869503 1.6358811896868577 4.6269710316884805 2.833429607165647 -1.9404158869824785e-09 3.349713002444813e-08 5.6668591607509695" Properties=species:S:1:pos:R:3:forces:R:3 energy=-56.44611740112305 free_energy=-56.44611740112305 stress="0.00041129309101961553 2.1661369586922774e-08 3.233382983580668e-08 2.1661369586922774e-08 0.0004113150353077799 -5.194482621817542e-09 3.233382983580668e-08 -5.194482621817542e-09 0.00041125883581116796" pbc="T T T"
Mn       1.63588125       1.15674205       2.83342977       0.00000061      -0.00000096      -0.00000052
Mn       4.90764457       3.47022752       8.50028839       0.00000127      -0.00000146      -0.00000085
Nb      -0.00000006       0.00000013      -0.00000008       0.00000315      -0.00000423       0.00000088
F        1.64394851       1.16244843       5.66685934      -0.00047049      -0.00033149      -0.00000028
F        4.89957577       3.46452370       5.66685941       0.00046954       0.00033218       0.00000092
F        4.08566915       1.16244739       4.25713041       0.00023225      -0.00032920      -0.00040358
F        2.45785573       3.46452341       7.07658758      -0.00023456       0.00033185       0.00040701
F        2.45785565       3.46452404       4.25713143      -0.00023593       0.00033411      -0.00040811
F        4.08566963       1.16244724       7.07658710       0.00023404      -0.00033087       0.00040457
