9
Lattice="6.074062583405638 -3.264354779519984e-08 3.5068616453873953 2.024687482453464 5.726680942986308 3.5068616706264484 -3.3884298934945904e-08 6.9515565749442154e-09 7.0137233494641364" Properties=species:S:1:pos:R:3:forces:R:3 energy=-33.76218795776367 free_energy=-33.76218795776367 stress="-5.137607877259143e-05 -2.0087192353912542e-08 -1.2629178591794243e-08 -2.0087192353912542e-08 -5.134530510986224e-05 1.3514220853494407e-08 -1.2629178591794243e-08 1.3514220853494407e-08 -5.134832099429332e-05" pbc="T T T"
Mn       2.02468678       1.43167088       3.50686197      -0.00000457       0.00000482       0.00000046
Mn       6.07406212       4.29501004      10.52058538      -0.00000289      -0.00000370      -0.00000010
Pt      -0.00000009       0.00000016       0.00000058       0.00000234      -0.00000137      -0.00001470
Br       2.01391581       1.42405340       7.01372328      -0.00362659      -0.00256346      -0.00000059
Br       6.08483434       4.30262726       7.01372326       0.00362870       0.00256227      -0.00000024
Br       5.06710484       1.42405374       5.25096375       0.00181341      -0.00256168      -0.00313942
Br       3.03164594       4.30262706       8.77648234      -0.00181659       0.00256864       0.00314899
Br       3.03164558       4.30262738       5.25096361      -0.00181153       0.00256167      -0.00313942
Br       5.06710479       1.42405375       8.77648246       0.00181773      -0.00256715       0.00314501
