9
Lattice="4.7109018840713 -5.959483499415817e-08 2.7198404577223116 1.5703005629710702 4.441481136508346 2.7198404730789405 -2.0206934081009304e-08 4.51949866918747e-09 5.4396809504440675" Properties=species:S:1:pos:R:3:forces:R:3 energy=-46.76798629760742 free_energy=-46.76798629760742 stress="0.00016096564650069922 8.7583465813168e-08 1.8642134946844635e-08 8.7583465813168e-08 0.00016082500224001706 4.5220961197856013e-08 1.8642134946844635e-08 4.5220961197856013e-08 0.0001608516031410545" pbc="T T T"
Mn       1.57030100       1.11036967       2.71984011       0.00000121      -0.00000046      -0.00000105
Mn       4.71090181       3.33110983       8.15952067      -0.00000044      -0.00000571      -0.00000205
Pt      -0.00000013       0.00000018       0.00000018       0.00000532      -0.00000495       0.00001488
F        1.62822145       1.15132700       5.43968054      -0.00199389      -0.00140956       0.00000080
F        4.65298069       3.29015455       5.43968103       0.00199229       0.00141081       0.00000104
F        3.89679102       1.15132740       4.12992153       0.00099537      -0.00140607      -0.00172579
F        2.38441123       3.29015429       6.74944082      -0.00099313       0.00140479       0.00172132
F        2.38441120       3.29015440       4.12992200      -0.00099713       0.00141078      -0.00172591
F        3.89679137       1.15132698       6.74944055       0.00099057      -0.00140002       0.00171679
