9
Lattice="6.537604253961795 5.657638758554787e-08 3.774487469531155 2.1792014602270036 6.163712352380468 3.7744874887586026 -1.2482308694169837e-08 1.4722400160418421e-08 7.548974960682309" Properties=species:S:1:pos:R:3:forces:R:3 energy=-29.974925994873047 free_energy=-29.974925994873047 stress="-0.0002454891218803823 -9.650565069296846e-11 -3.877773657734451e-09 -9.650565069296846e-11 -0.00024548012879677117 5.162462013430513e-09 -3.877773657734451e-09 5.162462013430513e-09 -0.00024548041983507574" pbc="T T T"
Mn       2.17920146       1.54092831       3.77448748       0.00000035       0.00000138      -0.00000037
Mn       6.53760396       4.62278429      11.32346227      -0.00000209      -0.00000064      -0.00000033
Pd       0.00000008      -0.00000003      -0.00000033       0.00000077      -0.00000113       0.00000331
I        2.21617994       1.56707564       7.54897496      -0.00440719      -0.00311649       0.00000025
I        6.50062563       4.59663657       7.54897506       0.00440825       0.00311611       0.00000013
I        5.42951438       1.56707601       5.69375539       0.00220500      -0.00311701      -0.00381806
I        3.28729144       4.59663654       9.40419478      -0.00220353       0.00311567       0.00381760
I        3.28729130       4.59663659       5.69375547      -0.00220427       0.00311693      -0.00381836
I        5.42951460       1.56707577       9.40419458       0.00220269      -0.00311486       0.00381583
