9
Lattice="5.665489393126516 -2.3474221093437197e-08 3.270971892081579 1.888496470935253 5.341474652058323 3.2709718423864587 5.728918923731121e-08 -2.0354204461272822e-08 6.5419436849352754" Properties=species:S:1:pos:R:3:forces:R:3 energy=-36.23887252807617 free_energy=-36.23887252807617 stress="-0.00013671784836333245 1.5100637185128107e-08 9.924398192140416e-09 1.5100637185128107e-08 -0.00013665709411725402 -2.968430123928556e-08 9.924398192140416e-09 -2.968430123928556e-08 -0.0001366382057312876" pbc="T T T"
Mn       1.88849581       1.33536848       3.27097239      -0.00000470      -0.00000261       0.00000543
Mn       5.66548896       4.00610566       9.81291685       0.00000002      -0.00000238       0.00000732
Pd       0.00000010      -0.00000012       0.00000078       0.00000433       0.00000496      -0.00003070
Cl       1.91256663       1.35238874       6.54194354      -0.00485739      -0.00343392      -0.00000186
Cl       5.64141964       3.98908614       6.54194294       0.00485212       0.00343034      -0.00000489
Cl       4.70920648       1.35238852       4.92730253       0.00242419      -0.00342391      -0.00419824
Cl       2.84477980       3.98908601       8.15658425      -0.00243207       0.00344031       0.00421076
Cl       2.84477972       3.98908620       4.92730230      -0.00242052       0.00342671      -0.00419889
Cl       4.70920654       1.35238881       8.15658406       0.00243403      -0.00343943       0.00421114
