9
Lattice="5.789833932013781 6.963164513384291e-08 3.34276239839603 1.9299447452332725 5.4587079827785425 3.3427623367708654 5.1281834501500635e-08 -3.9213368544045497e-08 6.685524707969323" Properties=species:S:1:pos:R:3:forces:R:3 energy=-36.72983169555664 free_energy=-36.72983169555664 stress="0.00020793922885786742 1.9355765878970033e-09 6.192202306465333e-09 1.9355765878970033e-09 0.0002079921105178073 -5.243927247988722e-08 6.192202306465333e-09 -5.243927247988722e-08 0.00020797147590201348" pbc="T T T"
Mn       1.92994394       1.36467657       3.34276295      -0.00000491      -0.00000282       0.00000295
Mn       5.78983427       4.09403166      10.02828598       0.00000425       0.00000386      -0.00000834
Pt       0.00000030       0.00000027       0.00000008      -0.00000937      -0.00001002      -0.00000311
Cl       1.91189763       1.35191587       6.68552445      -0.00442836      -0.00313358      -0.00000189
Cl       5.80788078       4.10679167       6.68552540       0.00443864       0.00313927       0.00000387
Cl       4.83388532       1.35191576       4.99851481       0.00221521      -0.00313488      -0.00383476
Cl       2.88589376       4.10679208       8.37253445      -0.00221553       0.00313761       0.00383949
Cl       2.88589345       4.10679194       4.99851499      -0.00222017       0.00313808      -0.00384013
Cl       4.83388546       1.35191626       8.37253468       0.00222012      -0.00313770       0.00384196
