9
Lattice="5.883548711035345 -1.6728905366706507e-09 3.3968685327308363 1.961182941632231 5.547062848414232 3.396868464261169 3.795583495081134e-08 -5.701903359659006e-08 6.793736999720254" Properties=species:S:1:pos:R:3:forces:R:3 energy=-34.999813079833984 free_energy=-34.999813079833984 stress="0.00023160080309025943 -1.572841590302687e-08 2.3053280173712665e-08 -1.572841590302687e-08 0.0002316080208402127 1.6642286437829057e-09 2.3053280173712665e-08 1.6642286437829057e-09 0.00023159202828537673" pbc="T T T"
Mn       1.96118282       1.38676522       3.39686869      -0.00000067      -0.00000339       0.00000085
Mn       5.88354859       4.16029795      10.19060543       0.00000031       0.00000698      -0.00000065
Pb       0.00000035      -0.00000008       0.00000005      -0.00000686       0.00000542      -0.00000069
Cl       2.07773514       1.46917989       6.79373681      -0.00552134      -0.00390522      -0.00000039
Cl       5.76699697       4.07788269       6.79373696       0.00552163       0.00390670       0.00000044
Cl       4.84468119       1.46918016       5.19624020       0.00276247      -0.00390860      -0.00478518
Cl       3.00005027       4.07788275       8.39123444      -0.00275896       0.00390439       0.00477901
Cl       3.00005042       4.07788235       5.19623970      -0.00276040       0.00390331      -0.00478098
Cl       4.84468102       1.46918021       8.39123377       0.00276376      -0.00390977       0.00478749
