9
Lattice="5.439564269547217 5.589441264769664e-08 3.1405338905533515 1.813188138976309 5.128470223428377 3.14053389673771 -1.2807359262036263e-08 -1.4819223436406267e-09 6.2810678032897" Properties=species:S:1:pos:R:3:forces:R:3 energy=-40.941707611083984 free_energy=-40.941707611083984 stress="0.0001074611718649976 1.4868298814363357e-09 4.038143597284716e-09 1.4868298814363357e-09 0.0001074253159458749 8.083159031002651e-09 4.038143597284716e-09 8.083159031002651e-09 0.00010746675252448767" pbc="T T T"
Mn       1.81318791       1.28211816       3.14053438      -0.00000093       0.00000497       0.00000194
Mn       5.43956380       3.84635283       9.42160142      -0.00000461       0.00000105      -0.00000146
P        0.00000008      -0.00000012       0.00000011       0.00000148       0.00000065      -0.00000201
Se       2.01555528       1.42521277       6.28106780       0.00316659       0.00223747      -0.00000238
Se       5.23719727       3.70325737       6.28106795      -0.00316429      -0.00223840       0.00000179
Se       4.43178684       1.42521262       4.88605574      -0.00158318       0.00223634       0.00274147
Se       2.82096582       3.70325735       7.67607982       0.00158365      -0.00223803      -0.00274057
Se       2.82096590       3.70325744       4.88605550       0.00158311      -0.00224042       0.00274044
Se       4.43178669       1.42521276       7.67607971      -0.00158184       0.00223640      -0.00273919
