9
Lattice="4.42094219397566 1.1983886718371781e-08 2.5524324067136153 1.4736474126208496 4.168104468378901 2.5524324009451798 -2.989936230572301e-08 -2.820692840934387e-08 5.104864865214495" Properties=species:S:1:pos:R:3:forces:R:3 energy=-60.142372131347656 free_energy=-60.142372131347656 stress="-6.641539130214369e-06 -7.347647823507941e-09 3.5962035127568015e-08 -7.347647823507941e-09 -6.2088620325084776e-06 2.2202325311582172e-08 3.5962035127568015e-08 2.2202325311582172e-08 -6.618935913138557e-06" pbc="T T T"
Mn       1.47364712       1.04202595       2.55243253       0.00000073       0.00000003      -0.00000083
Mn       4.42094234       3.12607886       7.65729750       0.00000060      -0.00000093       0.00000095
P        0.00000003      -0.00000020      -0.00000000      -0.00000235       0.00000544       0.00000235
O        1.38133993       0.97675458       5.10486479      -0.00128317      -0.00090778      -0.00000041
O        4.51324962       3.19135013       5.10486471       0.00127840       0.00090587       0.00000155
O        3.73027268       0.97675489       3.74870801       0.00064504      -0.00090718      -0.00111234
O        2.16431719       3.19134954       6.46102181      -0.00064147       0.00090313       0.00110734
O        2.16431728       3.19134933       3.74870752      -0.00064158       0.00090754      -0.00111175
O        3.73027234       0.97675475       6.46102157       0.00064433      -0.00090837       0.00111258
