9
Lattice="5.1018284057432455 3.850865431175448e-08 2.9455418175634813 1.7006095004587929 4.810049855096167 2.945541825234035 9.865086599281232e-08 7.915117983660411e-08 5.891083464258663" Properties=species:S:1:pos:R:3:forces:R:3 energy=-46.3414421081543 free_energy=-46.3414421081543 stress="-0.000269536511041224 3.2110467174106816e-08 1.7757532333462223e-08 3.2110467174106816e-08 -0.00026949928724206984 -2.141234745067777e-09 1.7757532333462223e-08 -2.141234745067777e-09 -0.00026950857136398554" pbc="T T T"
Mn       1.70061039       1.20251219       2.94554188       0.00000447       0.00000018      -0.00000012
Mn       5.10182820       3.60753754       8.83662531      -0.00000218      -0.00000004       0.00000033
Pb       0.00000013      -0.00000000       0.00000030       0.00000104       0.00000549      -0.00000756
F        1.75157393       1.23854976       5.89108352      -0.00655464      -0.00463555       0.00000001
F        5.05086405       3.57150044       5.89108349       0.00655011       0.00463357       0.00000040
F        4.22604130       1.23854940       4.46244849       0.00327336      -0.00463161      -0.00567352
F        2.57639634       3.57150058       7.31971817      -0.00327518       0.00463310       0.00567404
F        2.57639634       3.57150025       4.46244870      -0.00327334       0.00462928      -0.00567119
F        4.22604136       1.23854947       7.31971855       0.00327635      -0.00463446       0.00567751
