9
Lattice="4.670471944972468 9.261098074550503e-08 2.6964983437338756 1.5568240562835876 4.403363250713577 2.6964983657107937 1.0719009978843906e-08 3.449560684166185e-08 5.3929966689019055" Properties=species:S:1:pos:R:3:forces:R:3 energy=-46.234153747558594 free_energy=-46.234153747558594 stress="0.00028410227969288826 -5.0299133746989355e-09 3.737171283546559e-08 -5.0299133746989355e-09 0.00028408950311131775 -6.308868538695833e-09 3.737171283546559e-08 -6.308868538695833e-09 0.00028393929824233055" pbc="T T T"
Mn       1.55682398       1.10084032       2.69649877      -0.00000106      -0.00000192       0.00000267
Mn       4.67047284       3.30252304       8.08949525       0.00000442       0.00000264       0.00000077
Pd       0.00000001      -0.00000003      -0.00000015      -0.00000540       0.00000545       0.00000375
F        1.63805446       1.15827962       5.39299644      -0.00306610      -0.00216905      -0.00000156
F        4.58924144       3.24508378       5.39299683       0.00306676       0.00217057      -0.00000109
F        3.85144487       1.15827910       4.11509545       0.00153363      -0.00217118      -0.00265602
F        2.37585076       3.24508411       6.67089791      -0.00153273       0.00216603       0.00264944
F        2.37585102       3.24508375       4.11509541      -0.00153253       0.00216783      -0.00265424
F        3.85144468       1.15827980       6.67089773       0.00153297      -0.00217054       0.00265656
