9
Lattice="6.027821932853414 1.1141341076328979e-10 3.4801646594728504 2.009273981171686 5.68308497471728 3.480164653499237 2.9548872236040707e-08 1.357805303300542e-08 6.96032926776553" Properties=species:S:1:pos:R:3:forces:R:3 energy=-32.945213317871094 free_energy=-32.945213317871094 stress="-9.819139813771471e-05 5.175809114632557e-09 1.0211518741698455e-08 5.175809114632557e-09 -9.816935926210135e-05 -1.977606300940238e-09 1.0211518741698455e-08 -1.977606300940238e-09 -9.820095147006214e-05" pbc="T T T"
Mn       2.00927405       1.42077220       3.48016529       0.00000076       0.00000729       0.00000609
Mn       6.02782215       4.26231320      10.44049687      -0.00000022      -0.00000312       0.00002017
Pd       0.00000008      -0.00000017      -0.00000043      -0.00000241       0.00000069      -0.00000007
Br       2.03101709       1.43614628       6.96032909      -0.00302514      -0.00213753      -0.00000177
Br       6.00607896       4.24693871       6.96032812       0.00302581       0.00213787      -0.00000760
Br       5.01231311       1.43614666       5.23907674       0.00151303      -0.00213667      -0.00262503
Br       3.02478207       4.24693885       8.68158111      -0.00151361       0.00213606       0.00261538
Br       3.02478293       4.24693844       5.23907652      -0.00151191       0.00213737      -0.00262348
Br       5.01231332       1.43614578       8.68158100       0.00151366      -0.00214195       0.00261620
