9
Lattice="6.190073160776936 8.041816681297378e-08 3.5738403029257015 2.063357760547988 5.836057014087108 3.5738403644654224 1.1538082106672083e-09 7.61863276553477e-08 7.147680603852924" Properties=species:S:1:pos:R:3:forces:R:3 energy=-31.598438262939453 free_energy=-31.598438262939453 stress="-1.2826120837416966e-05 2.3899620060774396e-08 6.52002965506604e-11 2.3899620060774396e-08 -1.2842552678193897e-05 1.3590533143315042e-08 6.52002965506604e-11 1.3590533143315042e-08 -1.288439852942247e-05" pbc="T T T"
Mn       2.06335752       1.45901510       3.57384016      -0.00000181       0.00000513      -0.00000171
Mn       6.19007381       4.37704322      10.72152195       0.00000552       0.00000172       0.00000638
Pb       0.00000017      -0.00000016       0.00000033      -0.00000098       0.00000037      -0.00000917
Br       2.20244675       1.55736525       7.14768059      -0.00199693      -0.00141037      -0.00000077
Br       6.05098421       4.27869177       7.14768055       0.00199653       0.00140944      -0.00000292
Br       5.08885009       1.55736475       5.48121498       0.00099620      -0.00140788      -0.00172353
Br       3.16458061       4.27869176       8.81414605      -0.00100173       0.00141031       0.00172779
Br       3.16458095       4.27869216       5.48121448      -0.00099426       0.00140543      -0.00172395
Br       5.08884956       1.55736486       8.81414593       0.00099730      -0.00141421       0.00172779
