9
Lattice="6.873318192415285 6.386259674514419e-08 3.968312124405374 2.2911061396280092 6.480226719751775 3.968312097940755 -9.736116132933173e-09 -3.9296906057751084e-08 7.936624265674226" Properties=species:S:1:pos:R:3:forces:R:3 energy=-27.988399505615234 free_energy=-27.988399505615234 stress="9.021620644489303e-05 1.594226084478123e-08 8.493725722757972e-09 1.594226084478123e-08 9.020934521686286e-05 -3.612604659863905e-10 8.493725722757972e-09 -3.612604659863905e-10 9.018944547278807e-05" pbc="T T T"
Mn       2.29110551       1.62005744       3.96831224      -0.00000287       0.00000340       0.00000085
Mn       6.87331877       4.86017023      11.90493623       0.00000182       0.00000153      -0.00000161
Pb       0.00000030      -0.00000006      -0.00000028      -0.00000206      -0.00000052       0.00000317
I        2.48321208       1.75589629       7.93662423      -0.00272913      -0.00192912       0.00000023
I        6.68121221       4.72432994       7.93662426       0.00273196       0.00192828       0.00000088
I        5.63171217       1.75589589       6.11883711       0.00136466      -0.00193146      -0.00236249
I        3.53271194       4.72433087       9.75441178      -0.00136267       0.00192784       0.00236123
I        3.53271195       4.72433058       6.11883672      -0.00136586       0.00192892      -0.00236300
I        5.63171236       1.75589577       9.75441163       0.00136415      -0.00192894       0.00236078
