9
Lattice="5.475806185738892 6.945806911659956e-08 3.1614582252496732 1.8252687632732831 5.162639915511318 3.16145827858305 5.49097195064718e-08 1.0414681915207016e-07 6.322916355392906" Properties=species:S:1:pos:R:3:forces:R:3 energy=-45.37565994262695 free_energy=-45.37565994262695 stress="0.0002705066872294992 -5.327721197545543e-08 1.5707845690826616e-08 -5.327721197545543e-08 0.0002704941143747419 -2.986452196651612e-10 1.5707845690826616e-08 -2.986452196651612e-10 0.0002705987717490643" pbc="T T T"
Mn       1.82526881       1.29066017       3.16145800       0.00000135       0.00000132      -0.00000028
Mn       5.47580626       3.87198019       9.48437470      -0.00000079       0.00000093       0.00000140
P       -0.00000006       0.00000015      -0.00000012       0.00000293      -0.00000551      -0.00000154
S        1.76989712       1.25150613       6.32291685      -0.00230455      -0.00163150       0.00000279
S        5.53117809       3.91113406       6.32291668       0.00230610       0.00163126       0.00000007
S        4.59085726       1.25150636       4.69423400       0.00115198      -0.00163186      -0.00199920
S        2.71021721       3.91113350       7.95159875      -0.00115782       0.00163525       0.00200212
S        2.71021749       3.91113333       4.69423396      -0.00115496       0.00163412      -0.00200349
S        4.59085796       1.25150651       7.95159852       0.00115532      -0.00163394       0.00199741
