9
Lattice="6.565386328737492 -5.825303560196136e-09 3.790527547591161 2.188462117889954 6.189905589384027 3.7905275236838074 9.522015509276315e-09 -2.254736614625616e-08 7.581055078689775" Properties=species:S:1:pos:R:3:forces:R:3 energy=-30.736770629882812 free_energy=-30.736770629882812 stress="-0.00014291712432168424 -7.461426143606786e-09 6.339431646296134e-09 -7.461426143606786e-09 -0.0001429085386916995 -8.069535262222871e-09 6.339431646296134e-09 -8.069535262222871e-09 -0.0001429222320439294" pbc="T T T"
Mn       2.18846222       1.54747661       3.79052759       0.00000137       0.00000123      -0.00000015
Mn       6.56538648       4.64242902      11.37158306      -0.00000006      -0.00000107       0.00000145
Pt      -0.00000005      -0.00000007      -0.00000017      -0.00000042      -0.00000046      -0.00000027
I        2.20567284       1.55964636       7.58105511      -0.00689761      -0.00487655       0.00000028
I        6.54817543       4.63025916       7.58105480       0.00689828       0.00487707      -0.00000044
I        5.46254985       1.55964641       5.70069615       0.00344854      -0.00487728      -0.00597322
I        3.29129845       4.63025932       9.46141386      -0.00344886       0.00487681       0.00597300
I        3.29129871       4.63025924       5.70069633      -0.00344956       0.00487788      -0.00597446
I        5.46254991       1.55964620       9.46141388       0.00344839      -0.00487760       0.00597382
