9
Lattice="4.509446826492288 -2.8655751078422537e-08 2.6035305253290666 1.5031489987649114 4.2515468581811 2.6035303804989094 6.78545530743769e-08 -1.293995693375825e-07 5.207060933130597" Properties=species:S:1:pos:R:3:forces:R:3 energy=-53.812461853027344 free_energy=-53.812461853027344 stress="0.00036995793925598264 -4.317315216439965e-08 2.7282180070642426e-08 -4.317315216439965e-08 0.0003700782253872603 -2.2009350786333925e-08 2.7282180070642426e-08 -2.2009350786333925e-08 0.0003702824760694057" pbc="T T T"
Mn       1.50314946       1.06288628       2.60352951      -0.00000049      -0.00000065      -0.00000235
Mn       4.50944648       3.18866024       7.81058953      -0.00000027       0.00000130      -0.00000248
Se      -0.00000018       0.00000004      -0.00000036       0.00000025      -0.00000055       0.00000014
O        1.47437459       1.04253953       5.20706161      -0.00348544      -0.00246298      -0.00000059
O        4.53822177       3.20900670       5.20706168       0.00348473       0.00246334       0.00000116
O        3.77225988       1.04253957       3.88037640       0.00174189      -0.00246346      -0.00301671
O        2.24033646       3.20900734       6.53374623      -0.00174278       0.00246632       0.00301576
O        2.24033619       3.20900707       3.88037593      -0.00174159       0.00246119      -0.00301647
O        3.77225958       1.04253994       6.53374660       0.00174302      -0.00246346       0.00302017
