9
Lattice="5.853386610382295 1.5718140911246261e-07 3.3794543165589483 1.951129017106255 5.518625725512229 3.3794543186603025 4.902736763089416e-09 6.040416591873448e-09 6.758908624626098" Properties=species:S:1:pos:R:3:forces:R:3 energy=-32.780059814453125 free_energy=-32.780059814453125 stress="3.289859523647465e-05 3.318307761901451e-08 -5.683231316111481e-11 3.318307761901451e-08 3.2893130992306396e-05 8.381260130363444e-09 -5.683231316111481e-11 8.381260130363444e-09 3.28979040205013e-05" pbc="T T T"
Mn       1.95112809       1.37965663       3.37945414      -0.00000664       0.00000143      -0.00000124
Mn       5.85338708       4.13896932      10.13836310       0.00000180       0.00000052       0.00000162
Se       0.00000012      -0.00000011       0.00000021       0.00000129      -0.00000067      -0.00000229
Cl       1.96388184       1.38867416       6.75890879      -0.00074747      -0.00052932      -0.00000114
Cl       5.84063348       4.12995141       6.75890832       0.00074866       0.00052729       0.00000226
Cl       4.87144646       1.38867404       5.08022552       0.00037217      -0.00052401      -0.00064045
Cl       2.93306960       4.12995204       8.43759193      -0.00037165       0.00052461       0.00064303
Cl       2.93306994       4.12995219       5.08022544      -0.00037113       0.00052461      -0.00064351
Cl       4.87144594       1.38867391       8.43759161       0.00037296      -0.00052463       0.00064164
