9
Lattice="5.459553535958613 4.905165391827273e-08 3.1520745570406925 1.8198511816210026 5.147316693251299 3.1520746320007276 -8.406224885050932e-08 3.236594635082959e-08 6.304149259681462" Properties=species:S:1:pos:R:3:forces:R:3 energy=-41.63139343261719 free_energy=-41.63139343261719 stress="0.000298703380394727 1.5870078584612202e-08 2.34294611489716e-10 1.5870078584612202e-08 0.000298686238238588 1.1821772005760067e-08 2.34294611489716e-10 1.1821772005760067e-08 0.0002987095795106143" pbc="T T T"
Mn       1.81985123       1.28682919       3.15207439       0.00000076      -0.00000120      -0.00000137
Mn       5.45955355       3.86048784       9.45622402      -0.00000062       0.00000330       0.00000119
Se      -0.00000007      -0.00000011      -0.00000055      -0.00000622       0.00000852       0.00000748
S        1.81669559       1.28459781       6.30414972      -0.00225616      -0.00159502       0.00000249
S        5.46270865       3.86271882       6.30414953       0.00225571       0.00159594       0.00000115
S        4.55120578       1.28459779       4.72537927       0.00113115      -0.00160030      -0.00195876
S        2.72819909       3.86271874       7.88291931      -0.00112545       0.00158979       0.00194761
S        2.72819928       3.86271907       4.72537916      -0.00112543       0.00159517      -0.00195220
S        4.55120541       1.28459799       7.88291891       0.00112623      -0.00159599       0.00195241
