9
Lattice="6.134935430512961 -3.8794246965374225e-08 3.542006633012786 2.0449784545116807 5.784072586698152 3.54200660833178 1.45187626698237e-08 -1.9961621318525852e-08 7.084013240878335" Properties=species:S:1:pos:R:3:forces:R:3 energy=-39.147216796875 free_energy=-39.147216796875 stress="0.000310531206196174 -3.522762526131373e-08 8.697790043754594e-09 -3.522762526131373e-08 0.0003105404903180897 -8.516061744678893e-10 8.697790043754594e-09 -8.516061744678893e-10 0.0003105653158854693" pbc="T T T"
Mn       2.04497842       1.44601798       3.54200664       0.00000045      -0.00000091       0.00000077
Mn       6.13493543       4.33805453      10.62601973       0.00000047       0.00000179      -0.00000211
Sc       0.00000001       0.00000007       0.00000003       0.00000182       0.00000003      -0.00000436
Br       2.10560589       1.48888805       7.08401324       0.00161501       0.00114150      -0.00000084
Br       6.07430802       4.29518446       7.08401331      -0.00161626      -0.00114255       0.00000063
Br       5.08213245       1.48888813       5.36551484      -0.00080772       0.00114093       0.00139837
Br       3.09778146       4.29518436       8.80251163       0.00080437      -0.00113845      -0.00139447
Br       3.09778145       4.29518431       5.36551489       0.00080593      -0.00114044       0.00139701
Br       5.08213248       1.48888822       8.80251162      -0.00080406       0.00113799      -0.00139501
