9
Lattice="6.332747774235683 -1.0018489799821451e-07 3.6562137090621425 2.1109158519218534 5.970571857569844 3.6562136715945934 -1.2193113383063877e-08 -5.450997819760891e-08 7.31242743924337" Properties=species:S:1:pos:R:3:forces:R:3 energy=-31.958105087280273 free_energy=-31.958105087280273 stress="0.00011255009303567931 1.2968696339044072e-08 -2.5455828417397797e-11 1.2968696339044072e-08 0.00011257170990575105 2.7672674818290943e-08 -2.5455828417397797e-11 2.7672674818290943e-08 0.00011255186109337956" pbc="T T T"
Mn       2.11091607       1.49264296       3.65621387       0.00000222      -0.00000019       0.00000158
Mn       6.33274762       4.47793001      10.96863949      -0.00000161       0.00000829      -0.00001037
Sr       0.00000048      -0.00000048       0.00000008      -0.00000595       0.00000400      -0.00000262
Br       2.29662028       1.62395536       7.31242750      -0.00137958      -0.00097872       0.00000062
Br       6.14704315       4.34661625       7.31242817       0.00138197       0.00097815       0.00000358
Br       5.18443744       1.62395504       5.64514555       0.00068923      -0.00098220      -0.00119685
Br       3.25922605       4.34661606       8.97971006      -0.00068830       0.00097639       0.00119792
Br       3.25922555       4.34661607       5.64514495      -0.00069045       0.00097254      -0.00119209
Br       5.18443785       1.62395546       8.97970967       0.00069245      -0.00097822       0.00119836
