9
Lattice="5.832960832796975 4.919715816878799e-08 3.3676615658719125 1.9443203109968075 5.499368412872381 3.3676615883638714 1.3169713322110942e-08 3.685929728080585e-08 6.735323108933232" Properties=species:S:1:pos:R:3:forces:R:3 energy=-32.58991241455078 free_energy=-32.58991241455078 stress="-0.0001168698217952624 -2.008918364992951e-08 -2.1623931090175574e-08 -2.008918364992951e-08 -0.00011690847168210894 2.632025442039776e-08 -2.1623931090175574e-08 2.632025442039776e-08 -0.00011692267435137182" pbc="T T T"
Mn       1.94431997       1.37484201       3.36766125      -0.00000338       0.00000075      -0.00000033
Mn       5.83296119       4.12452630      10.10298465       0.00000380       0.00000087      -0.00000220
S       -0.00000026       0.00000025       0.00000026       0.00000230      -0.00000186      -0.00000178
Cl       1.94071483       1.37229268       6.73532326       0.00513756       0.00363126       0.00000133
Cl       5.83656629       4.12707559       6.73532338      -0.00513673      -0.00363243      -0.00000026
Cl       4.86260367       1.37229311       5.04836994      -0.00256929       0.00363323       0.00445130
Cl       2.91467751       4.12707550       8.42227571       0.00256768      -0.00363240      -0.00444922
Cl       2.91467752       4.12707538       5.04837046       0.00256675      -0.00363180       0.00444829
Cl       4.86260386       1.37229304       8.42227617      -0.00256878       0.00363237      -0.00444725
