9
Lattice="6.951549772325079 -1.1750381501947383e-07 4.013479264602362 2.3171831602853787 6.553984017342017 4.013479240999037 1.6627939066617367e-08 -1.715029861645064e-08 8.026958500404323" Properties=species:S:1:pos:R:3:forces:R:3 energy=-28.905107498168945 free_energy=-28.905107498168945 stress="0.00012732262257486582 8.025215492146742e-10 1.0955680807001045e-08 8.025215492146742e-10 0.00012731128663290292 -1.4382696811310325e-08 1.0955680807001045e-08 -1.4382696811310325e-08 0.00012729616719298065" pbc="T T T"
Mn       2.31718309       1.63849580       4.01347880      -0.00000131      -0.00000072      -0.00000075
Mn       6.95154958       4.91548777      12.04043808      -0.00000032       0.00000021      -0.00000024
Sr       0.00000009      -0.00000024       0.00000072      -0.00000092       0.00000141      -0.00000796
I        2.53389985       1.79173728       8.02695877      -0.00421145      -0.00297783      -0.00000036
I        6.73483316       4.76224683       8.02695837       0.00421121       0.00297768      -0.00000018
I        5.68460039       1.79173738       6.20790084       0.00210575      -0.00297694      -0.00364617
I        3.58413313       4.76224612       9.84601596      -0.00210719       0.00298024       0.00364963
I        3.58413262       4.76224669       6.20790108      -0.00210470       0.00297701      -0.00364593
I        5.68459989       1.79173788       9.84601541       0.00210888      -0.00298106       0.00365195
