9
Lattice="6.592051380744003 -1.7706401191514922e-08 3.805922582018794 2.197350464514924 6.215045549217256 3.805922545713765 5.896081009429993e-09 -4.0295237696055754e-08 7.611845153825335" Properties=species:S:1:pos:R:3:forces:R:3 energy=-26.888097763061523 free_energy=-26.888097763061523 stress="-2.526275920899934e-06 -4.581457879737627e-09 1.0078737844310126e-08 -4.581457879737627e-09 -2.557382003942621e-06 1.073379518601314e-08 1.0078737844310126e-08 1.073379518601314e-08 -2.5496412945358315e-06" pbc="T T T"
Mn       2.19735031       1.55376088       3.80592230      -0.00000085      -0.00000360      -0.00000109
Mn       6.59205193       4.66128370      11.41776678       0.00000239      -0.00000218      -0.00000527
S        0.00000019      -0.00000008       0.00000011      -0.00000185       0.00000250       0.00000269
I        2.32316826       1.64272837       7.61184522      -0.00611662      -0.00432327       0.00000070
I        6.46623312       4.57231749       7.61184543       0.00611573       0.00432564       0.00000125
I        5.43046713       1.64272799       5.81784571       0.00305850      -0.00432542      -0.00529655
I        3.35893476       4.57231746       9.40584463      -0.00305728       0.00432499       0.00529599
I        3.35893454       4.57231764       5.81784594      -0.00305838       0.00432549      -0.00529512
I        5.43046716       1.64272853       9.40584496       0.00305837      -0.00432416       0.00529741
