9
Lattice="4.4049122631531725 1.1531697809473697e-07 2.5431771696745815 1.468304177752148 4.152991189847358 2.5431772020421843 7.091675019653681e-08 8.978777456002238e-08 5.086354216517757" Properties=species:S:1:pos:R:3:forces:R:3 energy=-56.979583740234375 free_energy=-56.979583740234375 stress="-0.00019929044356103987 2.1240520453602585e-08 1.7236050098290434e-07 2.1240520453602585e-08 -0.00019962614169344306 -3.876075282960301e-08 1.7236050098290434e-07 -3.876075282960301e-08 -0.00020005321130156517" pbc="T T T"
Mn       1.46830427       1.03824765       2.54317723      -0.00000052       0.00000140       0.00000042
Mn       4.40491236       3.11474358       7.62953146      -0.00000067       0.00000037       0.00000036
S       -0.00000001       0.00000001      -0.00000001      -0.00000101      -0.00000049       0.00000174
O        1.33906363       0.94686065       5.08635438       0.00197482       0.00139618       0.00000068
O        4.53415308       3.20613076       5.08635436      -0.00197721      -0.00139987      -0.00000062
O        3.73538055       0.94686086       3.70284008      -0.00098693       0.00140035       0.00171328
O        2.13783569       3.20613045       6.46986858       0.00098979      -0.00140035      -0.00171566
O        2.13783578       3.20613054       3.70284013       0.00098789      -0.00139606       0.00171196
O        3.73538077       0.94686108       6.46986842      -0.00098753       0.00139832      -0.00171196
