9
Lattice="5.745888059526116 -6.506736706062076e-08 3.3173899149618307 1.91529595509301 5.417275162461138 3.3173899208558377 -6.826458799588504e-08 -4.1051686608166845e-08 6.634779948161378" Properties=species:S:1:pos:R:3:forces:R:3 energy=-43.2115478515625 free_energy=-43.2115478515625 stress="-3.298613228253089e-05 2.4361670014627634e-08 -4.071167225561112e-08 2.4361670014627634e-08 -3.302955155959353e-05 -6.063273882972453e-09 -4.071167225561112e-08 -6.063273882972453e-09 -3.298220326541923e-05" pbc="T T T"
Mn       1.91529530       1.35431807       3.31739037      -0.00000621      -0.00000420       0.00000385
Mn       5.74588851       4.06295596       9.95216889       0.00000377      -0.00000071      -0.00001170
Sc      -0.00000002       0.00000001      -0.00000049      -0.00000299       0.00000387       0.00001119
Cl       1.98568707       1.40409331       6.63478006      -0.00273003      -0.00192573       0.00000044
Cl       5.67549685       4.01318221       6.63478054       0.00272769       0.00192831       0.00000482
Cl       4.75304419       1.40409286       5.03704580       0.00136676      -0.00193375      -0.00236315
Cl       2.90813979       4.01318241       8.23251408      -0.00135921       0.00192761       0.00235430
Cl       2.90813936       4.01318229       5.03704560      -0.00136384       0.00192858      -0.00235981
Cl       4.75304470       1.40409313       8.23251430       0.00136398      -0.00192399       0.00235990
