9
Lattice="6.187262435787116 -6.613187350579648e-08 3.572217594710184 2.0624207361425095 5.833407019308086 3.572217617983388 -5.281049238369151e-08 -8.838936417768561e-09 7.144435280890835" Properties=species:S:1:pos:R:3:forces:R:3 energy=-33.0218620300293 free_energy=-33.0218620300293 stress="0.00013715717068407685 -7.499910026353973e-09 3.2205481337310715e-11 -7.499910026353973e-09 0.00013717019464820623 8.332023959667367e-09 3.2205481337310715e-11 8.332023959667367e-09 0.00013715705426875502" pbc="T T T"
Mn       2.06242068       1.45835174       3.57221773      -0.00000078      -0.00000020       0.00000052
Mn       6.18726215       4.37505552      10.71665215      -0.00000171       0.00000064      -0.00000439
Sn       0.00000019      -0.00000000       0.00000051      -0.00000258       0.00000216      -0.00000928
Br       2.13346004       1.50858414       7.14443527      -0.00450528      -0.00318670       0.00000023
Br       6.11622332       4.32482291       7.14443541       0.00450511       0.00318637       0.00000230
Br       5.12053208       1.50858387       5.41984861       0.00225289      -0.00318697      -0.00390096
Br       3.12915098       4.32482266       8.86902219      -0.00225288       0.00318875       0.00390489
Br       3.12915071       4.32482268       5.41984818      -0.00225087       0.00318369      -0.00389893
Br       5.12053229       1.50858422       8.86902199       0.00225610      -0.00318763       0.00390558
