9
Lattice="5.937422314873172 3.5649678762475694e-08 3.4279724242660863 1.979140785990675 5.597855621359903 3.4279724575986816 -1.8350822237640364e-08 2.7847921263415527e-08 6.855944880316649" Properties=species:S:1:pos:R:3:forces:R:3 energy=-35.034786224365234 free_energy=-35.034786224365234 stress="9.202946239383891e-05 2.3866983056564095e-08 2.630908646494845e-08 2.3866983056564095e-08 9.187198884319514e-05 1.6929153190403667e-08 2.630908646494845e-08 1.6929153190403667e-08 9.202380897477269e-05" pbc="T T T"
Mn       1.97914273       1.39946503       3.42797232       0.00001363       0.00000724       0.00000104
Mn       5.93742294       4.19839006      10.28391673       0.00000542      -0.00001393      -0.00000695
Sr       0.00000014       0.00000020       0.00000044      -0.00000226      -0.00000020      -0.00000572
Cl       2.15032363       1.52050969       6.85594480      -0.00070673      -0.00049157      -0.00000074
Cl       5.76623837       4.07734708       6.85594460       0.00070191       0.00050144      -0.00000248
Cl       4.86225999       1.52050871       5.29020761       0.00034762      -0.00049224      -0.00060703
Cl       3.05430261       4.07734618       8.42168213      -0.00035341       0.00049335       0.00061181
Cl       3.05430210       4.07734623       5.29020765      -0.00035742       0.00048641      -0.00060786
Cl       4.86225985       1.52050956       8.42168281       0.00035090      -0.00049048       0.00061768
