9
Lattice="6.084681264524177 6.240446695549862e-08 3.512992333514273 2.0282271516153334 5.73669239399288 3.512992325538033 -4.5531174224226094e-08 -4.196431117903522e-08 7.025984745890837" Properties=species:S:1:pos:R:3:forces:R:3 energy=-29.860326766967773 free_energy=-29.860326766967773 stress="8.793636516202241e-05 1.3041262514335017e-09 3.693735317611413e-09 1.3041262514335017e-09 8.794849418336526e-05 5.257480673037662e-09 3.693735317611413e-09 5.257480673037662e-09 8.795315807219595e-05" pbc="T T T"
Mn       2.02822713       1.43417281       3.51299189      -0.00000134      -0.00000201      -0.00000202
Mn       6.08468061       4.30251915      10.53897532      -0.00000393      -0.00000015      -0.00000880
S       -0.00000004      -0.00000004       0.00000058       0.00000022       0.00000040      -0.00000157
Br       2.08048797       1.47112712       7.02598472      -0.00338158      -0.00239277       0.00000114
Br       6.03242083       4.26556548       7.02598543       0.00338235       0.00239235       0.00000354
Br       5.04443733       1.47112704       5.31474793       0.00169182      -0.00239223      -0.00292838
Br       3.06847145       4.26556525       8.73722186      -0.00168902       0.00239271       0.00293201
Br       3.06847088       4.26556533       5.31474790      -0.00169112       0.00239280      -0.00292787
Br       5.04443735       1.47112753       8.73722195       0.00169273      -0.00239101       0.00293210
