9
Lattice="5.9214429626171095 3.608034030403018e-08 3.4187466531349915 1.973814302655196 5.582789965218437 3.4187467436070094 6.332769254917969e-08 1.5558459359926817e-07 6.837493196583206" Properties=species:S:1:pos:R:3:forces:R:3 energy=-36.5416259765625 free_energy=-36.5416259765625 stress="9.290248999604955e-05 -4.838681455510141e-09 -4.893110983061888e-08 -4.838681455510141e-09 9.292601316701621e-05 -1.2756506961864034e-08 -4.893110983061888e-08 -1.2756506961864034e-08 9.291111200582236e-05" pbc="T T T"
Mn       1.97381415       1.39569736       3.41874694      -0.00000306      -0.00000187       0.00000363
Mn       5.92144187       4.18709209      10.25624238      -0.00000481      -0.00000333       0.00001366
Sn       0.00000010      -0.00000011      -0.00000010       0.00000249       0.00000381      -0.00000093
Cl       2.00685539       1.41906131       6.83749332       0.00006746       0.00004689      -0.00000014
Cl       5.88840203       4.16372894       6.83749249      -0.00006914      -0.00004999      -0.00000635
Cl       4.91801535       1.41906241       5.15673388      -0.00003120       0.00005211       0.00005420
Cl       2.97724223       4.16372885       8.51825178       0.00003217      -0.00004584      -0.00005862
Cl       2.97724296       4.16372885       5.15673407       0.00003937      -0.00004783       0.00005658
Cl       4.91801525       1.41906091       8.51825164      -0.00003324       0.00004606      -0.00006215
