9
Lattice="4.956070182333928 1.4804108112420624e-07 2.8613881557071807 1.652023537855402 4.672627481794192 2.861388148485343 -5.357046031742764e-09 -1.2632960604017592e-08 5.722776320693111" Properties=species:S:1:pos:R:3:forces:R:3 energy=-43.85857009887695 free_energy=-43.85857009887695 stress="-1.225125652126735e-05 7.642553256914653e-09 2.1250547987961e-09 7.642553256914653e-09 -1.2229435924382415e-05 5.2387463256309275e-09 2.1250547987961e-09 5.2387463256309275e-09 -1.2258901733730454e-05" pbc="T T T"
Mn       1.65202434       1.16815714       2.86138816       0.00000415       0.00000011       0.00000070
Mn       4.95607084       3.50447115       8.58416475       0.00000293       0.00000291      -0.00000129
Se      -0.00000013      -0.00000014      -0.00000039       0.00000410       0.00000688       0.00000477
F        1.64862202       1.16575151       5.72277655       0.00192817       0.00136283      -0.00000117
F        4.95947148       3.50687616       5.72277666      -0.00193242      -0.00136550      -0.00000084
F        4.13175874       1.16575111       4.28913598      -0.00096754       0.00136260       0.00166981
F        2.47633445       3.50687567       7.15641590       0.00096374      -0.00136570      -0.00167240
F        2.47633420       3.50687610       4.28913647       0.00096346      -0.00136591       0.00167134
F        4.13175884       1.16575150       7.15641603      -0.00096664       0.00136176      -0.00167091
