9
Lattice="6.763629524530559 -1.0328173434715212e-07 3.9049833735703237 2.2545430932818973 6.376811122404279 3.9049833461809103 3.392246672878409e-09 -3.1146399336541514e-08 7.80996674126523" Properties=species:S:1:pos:R:3:forces:R:3 energy=-28.90414047241211 free_energy=-28.90414047241211 stress="3.007741725014057e-05 -7.947922320283851e-09 3.4999496634213756e-09 -7.947922320283851e-09 3.008472231158521e-05 8.440630416828299e-10 3.4999496634213756e-09 8.440630416828299e-10 3.0090810469118878e-05" pbc="T T T"
Mn       2.25454312       1.59420287       3.90498352      -0.00000005       0.00000043      -0.00000001
Mn       6.76362931       4.78260726      11.71494997      -0.00000029      -0.00000430      -0.00000095
Sn      -0.00000026      -0.00000036       0.00000002       0.00000188       0.00000234       0.00000079
I        2.35901307       1.66807432       7.80996681      -0.00389528      -0.00275279      -0.00000031
I        6.65915965       4.70873705       7.80996687       0.00389254       0.00275245       0.00000042
I        5.58412293       1.66807444       5.94794867       0.00194741      -0.00275213      -0.00337294
I        3.43404993       4.70873686       9.67198461      -0.00194648       0.00275356       0.00337268
I        3.43404972       4.70873690       5.94794881      -0.00194735       0.00275328      -0.00337223
I        5.58412300       1.66807462       9.67198457       0.00194759      -0.00275281       0.00337254
