9
Lattice="4.923075140252905 -4.6733485477400724e-08 2.842338564109554 1.6410251515704442 4.641519233974074 2.8423383062414076 1.9887355165494578e-07 -1.751978056116555e-07 5.684676783760047" Properties=species:S:1:pos:R:3:forces:R:3 energy=-56.657108306884766 free_energy=-56.657108306884766 stress="1.7854450561571866e-05 7.691129155773524e-08 2.8617016312182386e-08 7.691129155773524e-08 1.772504583641421e-05 -1.625494228107982e-08 2.8617016312182386e-08 -1.625494228107982e-08 1.7824266251409426e-05" pbc="T T T"
Mn       1.64102526       1.16038053       2.84233852      -0.00000178      -0.00000129      -0.00000118
Mn       4.92307415       3.48113756       8.52701455      -0.00000226      -0.00000310      -0.00000136
Sc       0.00000015      -0.00000004      -0.00000010      -0.00000529      -0.00000036      -0.00000144
F        1.62897790       1.15186093       5.68467702       0.00224461       0.00158855      -0.00000068
F        4.93512225       3.48965793       5.68467698      -0.00223845      -0.00158465       0.00000078
F        4.10858707       1.15186097       4.25307455      -0.00112405       0.00159213       0.00194506
F        2.45551446       3.48965837       7.11627915       0.00112488      -0.00159022      -0.00194393
F        2.45551401       3.48965851       4.25307451       0.00112357      -0.00159122       0.00194348
F        4.10858688       1.15186135       7.11627938      -0.00112131       0.00159034      -0.00194058
