9
Lattice="6.713800016289681 -5.300245892434827e-08 3.8762143106763074 2.237933323093767 6.329831408894267 3.8762142512639803 2.7181861814952034e-08 -5.3544466498823495e-08 7.752428574272235" Properties=species:S:1:pos:R:3:forces:R:3 energy=-26.6026668548584 free_energy=-26.6026668548584 stress="3.49680231011007e-05 -5.327472241134501e-09 -2.503023122102377e-09 -5.327472241134501e-09 3.496470890240744e-05 4.470585013294226e-10 -2.503023122102377e-09 4.470585013294226e-10 3.497518991935067e-05" pbc="T T T"
Mn       2.23793319       1.58245778       3.87621444      -0.00000067      -0.00000001       0.00000158
Mn       6.71380026       4.74737354      11.62864239       0.00000201       0.00000002      -0.00000285
Se       0.00000017      -0.00000002       0.00000013      -0.00000045      -0.00000052      -0.00000016
I        2.35728312       1.66685097       7.75242852      -0.00701156      -0.00495743      -0.00000048
I        6.59445006       4.66298038       7.75242874       0.00701143       0.00495780       0.00000145
I        5.53515834       1.66685088       5.91768151       0.00350580      -0.00495867      -0.00607189
I        3.41657499       4.66298035       9.58717568      -0.00350578       0.00495831       0.00607202
I        3.41657482       4.66298029       5.91768155      -0.00350727       0.00495791      -0.00607193
I        5.53515853       1.66685105       9.58717557       0.00350648      -0.00495741       0.00607230
