9
Lattice="5.650236347745837 8.572763180139695e-09 3.262165578284549 1.8834120998213826 5.327093950697306 3.2621656201592826 -9.4761998535869e-09 4.458517200081344e-08 6.524331172982365" Properties=species:S:1:pos:R:3:forces:R:3 energy=-41.722415924072266 free_energy=-41.722415924072266 stress="2.466454702698684e-07 -2.0829622471296716e-08 -3.756577271474271e-09 -2.0829622471296716e-08 2.4588194946773e-07 6.8800125596624184e-09 -3.756577271474271e-09 6.8800125596624184e-09 2.087481760781884e-07" pbc="T T T"
Mn       1.88341048       1.33177337       3.26216451      -0.00001255       0.00000099      -0.00000883
Mn       5.65023662       3.99532228       9.78649819       0.00000293       0.00001263       0.00001065
Si       0.00000014       0.00000016       0.00000026       0.00000111      -0.00000245      -0.00000957
Se       1.92423261       1.36063746       6.52433143      -0.00085220      -0.00060778       0.00000343
Se       5.60941625       3.96645599       6.52433069       0.00085730       0.00060260      -0.00000529
Se       4.68812079       1.36063724       4.92860068       0.00043203      -0.00060720      -0.00073194
Se       2.84552789       3.96645594       8.12006224      -0.00043486       0.00060926       0.00074255
Se       2.84552885       3.96645611       4.92859945      -0.00042369       0.00060488      -0.00074071
Se       4.68812008       1.36063752       8.12006201       0.00043003      -0.00061298       0.00073972
