9
Lattice="5.112114399806627 2.434719281927538e-07 2.9514801638653285 1.7040381761121657 4.819747856420975 2.9514804872467324 -2.986212723086688e-07 1.849023749323913e-07 5.902960844957924" Properties=species:S:1:pos:R:3:forces:R:3 energy=-48.16803741455078 free_energy=-48.16803741455078 stress="-2.8930249754921533e-05 8.417396202275995e-08 -8.52035775267268e-09 8.417396202275995e-08 -2.8988566555199213e-05 -3.0081142909921255e-08 -8.52035775267268e-09 -3.0081142909921255e-08 -2.9031005396973342e-05" pbc="T T T"
Mn       1.70403726       1.20493707       2.95148043      -0.00000302       0.00000003       0.00000039
Mn       5.11211472       3.61481059       8.85444176       0.00000238      -0.00000238       0.00000221
Sn       0.00000014      -0.00000016      -0.00000002      -0.00000706       0.00000521       0.00001142
F        1.63952730       1.15932193       5.90296087      -0.00008187      -0.00005564       0.00000022
F        5.17662469       3.66042630       5.90296038       0.00008479       0.00005823      -0.00000144
F        4.29235033       1.15932166       4.37135288       0.00004108      -0.00005680      -0.00006953
F        2.52380207       3.66042698       7.43456846      -0.00003591       0.00004983       0.00005913
F        2.52380219       3.66042671       4.37135310      -0.00003855       0.00005519      -0.00006646
F        4.29235042       1.15932206       7.43456827       0.00003825      -0.00005355       0.00006405
