9
Lattice="4.455929013832435 -5.397406578798281e-08 2.5726317006437025 1.4853095465723394 4.201090157872664 2.5726318285000307 -1.9296102930878788e-07 2.0147359220253574e-08 5.145263735505684" Properties=species:S:1:pos:R:3:forces:R:3 energy=-59.698486328125 free_energy=-59.698486328125 stress="-0.0001393222191836685 -1.1689833989692033e-08 -1.2096864843158528e-08 -1.1689833989692033e-08 -0.0001388736127410084 1.1599689209162989e-08 -1.2096864843158528e-08 1.1599689209162989e-08 -0.0001391747937304899" pbc="T T T"
Mn       1.48530951       1.05027227       2.57263185      -0.00000134      -0.00000017      -0.00000093
Mn       4.45592800       3.15081772       7.71789478      -0.00000183      -0.00000121      -0.00000137
Si      -0.00000002      -0.00000003       0.00000010       0.00000591       0.00000115       0.00000048
O        1.42874476       1.01027536       5.14526361       0.00700343       0.00495338       0.00000013
O        4.51249396       3.19081464       5.14526380      -0.00701034      -0.00495750       0.00000034
O        3.74155596       1.01027508       3.80996118      -0.00350392       0.00495011       0.00606561
O        2.19968206       3.19081495       6.48056609       0.00350511      -0.00495166      -0.00606465
O        2.19968240       3.19081515       3.80996135       0.00350684      -0.00494909       0.00606656
O        3.74155656       1.01027545       6.48056592      -0.00350356       0.00495440      -0.00606585
