9
Lattice="6.241403135091601 1.302959470411671e-07 3.6034756732901845 2.0804678625509907 5.884451398535835 3.6034756247761774 4.1568586710093786e-08 -3.002385586719919e-08 7.206951274581449" Properties=species:S:1:pos:R:3:forces:R:3 energy=-37.67327880859375 free_energy=-37.67327880859375 stress="-1.1152386605317588e-06 -3.451958496825114e-09 -7.548973002258208e-09 -3.451958496825114e-09 -1.1137364026581054e-06 1.241753544434232e-08 -7.548973002258208e-09 1.241753544434232e-08 -1.097622657653119e-06" pbc="T T T"
Mn       2.08046753       1.47111344       3.60347613      -0.00000235       0.00000274       0.00000228
Mn       6.24140299       4.41333894      10.81042851      -0.00000037       0.00000303       0.00001054
Si       0.00000006      -0.00000017      -0.00000027       0.00000050       0.00000140       0.00000084
Te       2.13677466       1.51092756       7.20695116      -0.00016541      -0.00011846      -0.00000036
Te       6.18509667       4.37352352       7.20695087       0.00016640       0.00011483      -0.00000512
Te       5.17301626       1.51092794       5.45397609       0.00008380      -0.00011579      -0.00014447
Te       3.14885469       4.37352400       8.95992595      -0.00008465       0.00011724       0.00014141
Te       3.14885528       4.37352353       5.45397581      -0.00008013       0.00011526      -0.00014555
Te       5.17301606       1.51092723       8.95992602       0.00008216      -0.00012021       0.00014043
