9
Lattice="6.187474912998247 3.587250003950303e-08 3.5723403871224666 2.062491669826303 5.833607368135069 3.572340389998957 6.311203539319378e-08 4.814989399047441e-08 7.144680664931627" Properties=species:S:1:pos:R:3:forces:R:3 energy=-29.483692169189453 free_energy=-29.483692169189453 stress="5.35740728082601e-05 2.9862619044251915e-09 -2.1758845836217233e-09 2.9862619044251915e-09 5.357400732464157e-05 1.5238322825794626e-09 -2.1758845836217233e-09 1.5238322825794626e-09 5.357307236408815e-05" pbc="T T T"
Mn       2.06249113       1.45840222       3.57234048      -0.00000209       0.00000111       0.00000041
Mn       6.18747540       4.37520568      10.71702102       0.00000157      -0.00000038      -0.00000092
Se       0.00000011       0.00000013      -0.00000021       0.00000062      -0.00000044       0.00000014
Br       2.09305335       1.48001214       7.14468094      -0.00052717      -0.00037305       0.00000050
Br       6.15691300       4.35359534       7.14468076       0.00052738       0.00037336       0.00000034
Br       5.14094851       1.48001234       5.38497774       0.00026380      -0.00037299      -0.00045626
Br       3.10901837       4.35359487       8.90438378      -0.00026423       0.00037274       0.00045697
Br       3.10901810       4.35359485       5.38497775      -0.00026500       0.00037187      -0.00045614
Br       5.14094865       1.48001223       8.90438356       0.00026517      -0.00037231       0.00045487
