9
Lattice="4.999368393814381 -3.815425151135315e-08 2.886386649219118 1.6664561012877244 4.713449905555604 2.88638663884681 9.982226080294925e-08 5.788161084679238e-08 5.772773125540964" Properties=species:S:1:pos:R:3:forces:R:3 energy=-46.04656219482422 free_energy=-46.04656219482422 stress="0.000346890592481941 4.4234727880620994e-08 -5.027773752885878e-09 4.4234727880620994e-08 0.0003467801143415272 -8.233450365935369e-09 -5.027773752885878e-09 -8.233450365935369e-09 0.0003469448711257428" pbc="T T T"
Mn       1.66645682       1.17836340       2.88638665       0.00000193       0.00000699       0.00000036
Mn       4.99936798       3.53508710       8.65916058      -0.00000133      -0.00000294       0.00000544
Sr       0.00000004      -0.00000004       0.00000003      -0.00000106       0.00000053       0.00000420
F        1.80480718       1.27619146       5.77277311       0.00123030       0.00086954      -0.00000026
F        4.86101734       3.43725838       5.77277274      -0.00122777      -0.00086997      -0.00000222
F        4.09696475       1.27619184       4.44939499      -0.00061492       0.00087149       0.00106370
F        2.56885941       3.43725821       7.09615123       0.00061394      -0.00087430      -0.00106752
F        2.56886003       3.43725803       4.44939491       0.00061566      -0.00087366       0.00106303
F        4.09696486       1.27619147       7.09615123      -0.00061692       0.00087243      -0.00106712
