9
Lattice="4.550695286427346 -2.3401304836378057e-08 2.6273450155298317 1.5168984650749926 4.290436365986447 2.62734491450127 1.8415923190829935e-08 -1.1071215000318606e-07 5.254689999162365" Properties=species:S:1:pos:R:3:forces:R:3 energy=-44.34798812866211 free_energy=-44.34798812866211 stress="4.727644125068764e-07 2.304538924136068e-07 1.4072913501195217e-08 2.304538924136068e-07 3.549000950897607e-07 -5.246382528412141e-08 1.4072913501195217e-08 -5.246382528412141e-08 1.5094329341991397e-07" pbc="T T T"
Mn       1.51689820       1.07260929       2.62734507      -0.00000109       0.00000258       0.00000061
Mn       4.55069569       3.21782767       7.88203453       0.00000040       0.00000304      -0.00000145
S        0.00000058      -0.00000096      -0.00000065      -0.00000996       0.00001153       0.00000679
F        1.58365833       1.11981527       5.25469000      -0.00664651      -0.00470236      -0.00000003
F        4.48393558       3.17062098       5.25469015       0.00664902       0.00469902       0.00000080
F        3.75886651       1.11981435       3.99883218       0.00331514      -0.00468963      -0.00573996
F        2.30872650       3.17062208       6.51054841      -0.00330855       0.00467992       0.00573328
F        2.30872684       3.17062185       3.99883204      -0.00331362       0.00468403      -0.00573847
F        3.75886690       1.11981432       6.51054814       0.00331514      -0.00468837       0.00573841
