9
Lattice="6.7542659582697695 3.420003367768423e-08 3.899577327206988 2.2514220057477847 6.367983127046405 3.8995773490069983 -2.7663236339052717e-08 7.138556987092954e-09 7.799154702328145" Properties=species:S:1:pos:R:3:forces:R:3 energy=-34.72548294067383 free_energy=-34.72548294067383 stress="0.00011136577813886106 1.2588743381058976e-08 -3.2492484258739296e-09 1.2588743381058976e-08 0.00011136279499623924 8.556956920813263e-09 -3.2492484258739296e-09 8.556956920813263e-09 0.00011135447857668623" pbc="T T T"
Mn       2.25142109       1.59199558       3.89957714      -0.00000368      -0.00000074      -0.00000104
Mn       6.75426650       4.77598780      11.69873287       0.00000246       0.00000097       0.00000401
Sc       0.00000020       0.00000006      -0.00000022      -0.00000156      -0.00000175      -0.00000084
I        2.30914866       1.63281471       7.79915455      -0.00482566      -0.00341210       0.00000011
I        6.69653915       4.73516827       7.79915441       0.00482865       0.00341338      -0.00000083
I        5.59969163       1.63281482       5.89935869       0.00241398      -0.00341326      -0.00417892
I        3.40599636       4.73516855       9.69895050      -0.00241395       0.00341273       0.00417941
I        3.40599636       4.73516847       5.89935889      -0.00241334       0.00341355      -0.00417925
I        5.59969175       1.63281443       9.69895067       0.00241306      -0.00341274       0.00417734
