9
Lattice="6.131089455752522 -8.535988129177387e-09 3.539786173361819 2.0436964818461525 5.78044653524563 3.5397861653196605 -4.44478368247409e-09 -1.2992473100684467e-08 7.07957235442224" Properties=species:S:1:pos:R:3:forces:R:3 energy=-39.194175720214844 free_energy=-39.194175720214844 stress="8.894896018318832e-05 -3.1911022713160264e-09 -4.96092555923866e-10 -3.1911022713160264e-09 8.89506918611005e-05 -6.553540821130355e-09 -4.96092555923866e-10 -6.553540821130355e-09 8.895173959899694e-05" pbc="T T T"
Mn       2.04369626       1.44511158       3.53978587      -0.00000114      -0.00000069      -0.00000180
Mn       6.13108930       4.33533486      10.61935685      -0.00000139       0.00000024      -0.00000801
Ti       0.00000028       0.00000011       0.00000051      -0.00000105      -0.00000116      -0.00000422
Br       2.05059327       1.44998834       7.07957258      -0.00197326      -0.00139536      -0.00000018
Br       6.12419237       4.33045823       7.07957320       0.00197649       0.00139692       0.00000175
Br       5.10579312       1.44998793       5.31565200       0.00098592      -0.00139385      -0.00170677
Br       3.06899351       4.33045788       8.84349287      -0.00098863       0.00139826       0.00171447
Br       3.06899277       4.33045850       5.31565229      -0.00098681       0.00139406      -0.00170762
Br       5.10579286       1.44998861       8.84349261       0.00098986      -0.00139840       0.00171236
