9
Lattice="6.702605068687672 1.0695497819569956e-08 3.86975078953152 2.234201719900612 6.319276542987766 3.869750754450146 1.7529603298668924e-08 -3.0570396182058227e-08 7.739501548700805" Properties=species:S:1:pos:R:3:forces:R:3 energy=-34.85261917114258 free_energy=-34.85261917114258 stress="0.00012045397306792438 1.6498127308750554e-08 -7.02404268082546e-09 1.6498127308750554e-08 0.00012044001778122038 3.173631357711315e-09 -7.02404268082546e-09 3.173631357711315e-09 0.00012042516027577221" pbc="T T T"
Mn       2.23420213       1.57981933       3.86975092       0.00000112      -0.00000072       0.00000119
Mn       6.70260499       4.73945717      11.60925167      -0.00000062      -0.00000074      -0.00000193
Ti       0.00000008      -0.00000003      -0.00000067      -0.00000088       0.00000065       0.00000492
I        2.23545589       1.58070594       7.73950151      -0.00677921      -0.00479292       0.00000039
I        6.70135040       4.73857012       7.73950181       0.00678025       0.00479483       0.00000056
I        5.58487704       1.58070599       5.80571250       0.00338915      -0.00479334      -0.00587047
I        3.35192969       4.73857102       9.67329110      -0.00338722       0.00479006       0.00586654
I        3.35192951       4.73857071       5.80571238      -0.00338911       0.00479183      -0.00586880
I        5.58487750       1.58070585       9.67329114       0.00338654      -0.00478965       0.00586767
