9
Lattice="5.748449296392974 1.587328930958133e-07 3.3188690423540708 1.9161499550888252 5.419690135858131 3.318868973124487 4.578494417511751e-08 -5.241369345494024e-08 6.637738005406269" Properties=species:S:1:pos:R:3:forces:R:3 energy=-43.283687591552734 free_energy=-43.283687591552734 stress="0.00038372850394807756 -1.197441523714815e-08 2.6458463864287296e-08 -1.197441523714815e-08 0.0003838167176581919 -1.0521651994110925e-08 2.6458463864287296e-08 -1.0521651994110925e-08 0.00038380688056349754" pbc="T T T"
Mn       1.91615106       1.35492188       3.31886955       0.00000672      -0.00000466       0.00000280
Mn       5.74844788       4.06476733       9.95660812      -0.00000757       0.00000079       0.00000459
Ti      -0.00000006       0.00000020      -0.00000014       0.00000136       0.00000069      -0.00000545
Cl       1.93885350       1.37097612       6.63773783      -0.00761236      -0.00538518      -0.00000298
Cl       5.72574567       4.04871442       6.63773765       0.00760949       0.00538478      -0.00000259
Cl       4.77902325       1.37097651       4.99796486       0.00380270      -0.00537820      -0.00659461
Cl       2.88557678       4.04871384       8.27751046      -0.00380539       0.00538523       0.00659634
Cl       2.88557678       4.04871400       4.99796526      -0.00380410       0.00538420      -0.00659737
Cl       4.77902231       1.37097666       8.27751052       0.00380918      -0.00538766       0.00659931
