9
Lattice="6.022683614079033 -8.747171262932598e-08 3.477198031643817 2.007561141243234 5.678240624399467 3.4771979987013624 -1.7470608348963346e-08 -5.269971349858678e-08 6.95439609354762" Properties=species:S:1:pos:R:3:forces:R:3 energy=-38.83483123779297 free_energy=-38.83483123779297 stress="-4.0819490095600486e-05 -1.8722579042673715e-08 2.3060600540247833e-08 -1.8722579042673715e-08 -4.0813687519403175e-05 -8.76663364124397e-09 2.3060600540247833e-08 -8.76663364124397e-09 -4.080519647686742e-05" pbc="T T T"
Mn       2.00756224       1.41956090       3.47719772       0.00000542       0.00000494      -0.00000107
Mn       6.02268419       4.25867965      10.43159356       0.00000491      -0.00000318      -0.00000337
V       -0.00000020      -0.00000023      -0.00000011       0.00000033       0.00000171       0.00000009
Br       2.03079532       1.43598974       6.95439623      -0.00093227      -0.00065622       0.00000121
Br       5.99944910       4.24225117       6.95439625       0.00092720       0.00065623       0.00000070
Br       5.00728547       1.43598917       5.23591877       0.00046335      -0.00065733      -0.00080601
Br       3.02295879       4.24225083       8.67287347      -0.00046601       0.00065500       0.00080574
Br       3.02295863       4.24225106       5.23591891      -0.00046694       0.00065687      -0.00080663
Br       5.00728540       1.43598964       8.67287370       0.00046406      -0.00065799       0.00080945
