9
Lattice="4.813798408652486 -1.6308659975026278e-07 2.7792478140393606 1.6045993295274883 4.5384921979129675 2.7792477902475787 9.717957365935157e-09 -2.2267239134528195e-08 5.558495611246785" Properties=species:S:1:pos:R:3:forces:R:3 energy=-54.419803619384766 free_energy=-54.419803619384766 stress="0.00024179443425964564 -8.480204982674877e-09 -8.92091733817324e-09 -8.480204982674877e-09 0.00024177324667107314 -8.195081058204323e-09 -8.92091733817324e-09 -8.195081058204323e-09 0.00024178443709388375" pbc="T T T"
Mn       1.60459899       1.13462271       2.77924758      -0.00000096      -0.00000179      -0.00000087
Mn       4.81379853       3.40386852       8.33774414       0.00000057      -0.00000286       0.00000166
V       -0.00000006       0.00000013      -0.00000026       0.00000213      -0.00000730       0.00000820
F        1.57465393       1.11344876       5.55849556       0.00212035       0.00150003       0.00000080
F        4.84374344       3.42504384       5.55849506      -0.00211829      -0.00149775      -0.00000050
F        4.02647176       1.11344863       4.14293820      -0.00105855       0.00149946       0.00183600
F        2.39192621       3.42504352       6.97405302       0.00105938      -0.00149815      -0.00183572
F        2.39192644       3.42504353       4.14293841       0.00105675      -0.00149436       0.00183056
F        4.02647174       1.11344854       6.97405333      -0.00106139       0.00150277      -0.00183970
