9
Lattice="5.683034876061796 -9.027375784591513e-08 3.2811017088751604 1.8943448282993443 5.358016789877136 3.2811017872972665 -1.314822537446974e-07 3.0750352577774858e-09 6.562203645484294" Properties=species:S:1:pos:R:3:forces:R:3 energy=-42.84232711791992 free_energy=-42.84232711791992 stress="2.6458583306521177e-06 7.489087572309927e-09 1.6111844303168255e-08 7.489087572309927e-09 2.4668252081028186e-06 -3.380106861072818e-08 1.6111844303168255e-08 -3.380106861072818e-08 2.628706170071382e-06" pbc="T T T"
Mn       1.89434437       1.33950486       3.28110181      -0.00000419       0.00000360      -0.00000149
Mn       5.68303405       4.01851158       9.84330487      -0.00000672      -0.00000176      -0.00000307
V        0.00000010      -0.00000008       0.00000049      -0.00000062       0.00000111      -0.00000936
Cl       1.91364682       1.35315264       6.56220340      -0.00734477      -0.00519195      -0.00000051
Cl       5.66373304       4.00486391       6.56220357       0.00734530       0.00519197       0.00000085
Cl       4.72621159       1.35315295       4.93836862       0.00367430      -0.00519181      -0.00636156
Cl       2.85116875       4.00486368       8.18603853      -0.00367056       0.00519497       0.00636492
Cl       2.85116818       4.00486402       4.93836883      -0.00367114       0.00519136      -0.00635754
Cl       4.72621141       1.35315323       8.18603842       0.00367824      -0.00519744       0.00636774
