9
Lattice="5.054474806535131 7.028673685944449e-08 2.918202279004855 1.684824961080293 4.765404454989685 2.9182023494965263 -1.3090026796847977e-07 -6.226146181250259e-09 5.836404784735637" Properties=species:S:1:pos:R:3:forces:R:3 energy=-56.04966354370117 free_energy=-56.04966354370117 stress="0.0003199682687409222 4.818653032145903e-09 -1.1950288758555416e-08 4.818653032145903e-09 0.00032001049839891493 6.160137289157319e-09 -1.1950288758555416e-08 6.160137289157319e-09 0.0003199352358933538" pbc="T T T"
Mn       1.68482519       1.19135027       2.91820264       0.00000046      -0.00000383       0.00000146
Mn       5.05447521       3.57405401       8.75460727       0.00000174       0.00000389       0.00000108
Y        0.00000006       0.00000001       0.00000004       0.00000004       0.00000440      -0.00000059
F        1.74089133       1.23099655       5.83640454       0.00129754       0.00091830      -0.00000120
F        4.99840810       3.53440841       5.83640479      -0.00130109      -0.00091852       0.00000066
F        4.18402874       1.23099598       4.42585853      -0.00065031       0.00091652       0.00112408
F        2.55527052       3.53440871       7.24695054       0.00064990      -0.00091771      -0.00112807
F        2.55527087       3.53440869       4.42585872       0.00065231      -0.00091862       0.00112835
F        4.18402843       1.23099556       7.24695052      -0.00065065       0.00091577      -0.00112595
