9
Lattice="6.30075405884087 -4.765392655888737e-08 3.6377420743746436 2.100251370317111 5.9404077728874105 3.6377419664701147 1.3991087737271014e-08 -1.222623220333959e-07 7.275484124516084" Properties=species:S:1:pos:R:3:forces:R:3 energy=-39.261192321777344 free_energy=-39.261192321777344 stress="9.36840515350923e-05 1.817814698767961e-08 5.18575182795189e-09 1.817814698767961e-08 9.367067104903981e-05 -2.244868180234505e-10 5.18575182795189e-09 -2.244868180234505e-10 9.36854921746999e-05" pbc="T T T"
Mn       2.10025195       1.48510125       3.63774168       0.00000351      -0.00000414      -0.00000262
Mn       6.30075393       4.45530568      10.91322617      -0.00000158      -0.00000049      -0.00000029
Y        0.00000011       0.00000011      -0.00000015      -0.00000090      -0.00000008       0.00000144
Br       2.21466569       1.56600486       7.27548389      -0.00081669      -0.00057866       0.00000095
Br       6.18633921       4.37440302       7.27548413       0.00081731       0.00058135       0.00000045
Br       5.19342116       1.56600512       5.55569900       0.00040917      -0.00057752      -0.00070759
Br       3.20758419       4.37440252       8.99526966      -0.00040856       0.00057732       0.00070656
Br       3.20758444       4.37440273       5.55569876      -0.00040855       0.00057887      -0.00070692
Br       5.19342111       1.56600511       8.99526953       0.00040622      -0.00057669       0.00070806
