9
Lattice="5.882168705628434 1.770173211380014e-08 3.396071649670423 1.9607229516373628 5.545761635474073 3.3960715923882416 2.6025263504416234e-08 -5.175341654390386e-08 6.792143254263807" Properties=species:S:1:pos:R:3:forces:R:3 energy=-43.13047409057617 free_energy=-43.13047409057617 stress="5.604691614280455e-05 6.871058388924212e-09 -9.217376195636007e-09 6.871058388924212e-09 5.611307278741151e-05 2.6286273158149243e-10 -9.217376195636007e-09 2.6286273158149243e-10 5.6054763263091445e-05" pbc="T T T"
Mn       1.96072157       1.38643874       3.39607157      -0.00000884      -0.00001167      -0.00000013
Mn       5.88216824       4.15932245      10.18821529      -0.00000422       0.00000843       0.00000215
Y        0.00000037      -0.00000003       0.00000022      -0.00000630      -0.00000072      -0.00000429
Cl       2.08031522       1.47100418       6.79214312      -0.00047424      -0.00033896      -0.00000066
Cl       5.76257670       4.07475701       6.79214330       0.00048131       0.00034218      -0.00000055
Cl       4.84201150       1.47100434       5.19767708       0.00024176      -0.00033814      -0.00041186
Cl       3.00088070       4.07475749       8.38660924      -0.00023764       0.00034208       0.00041182
Cl       3.00088098       4.07475784       5.19767700      -0.00023489       0.00034010      -0.00041045
Cl       4.84201149       1.47100438       8.38660904       0.00024310      -0.00034346       0.00041417
