9
Lattice="6.895958434540736 9.019070898477773e-08 3.981383342256404 2.2986528781653313 6.501571907471032 3.981383374093004 -2.9523488432455658e-08 1.8115473542857347e-08 7.962766735648966" Properties=species:S:1:pos:R:3:forces:R:3 energy=-35.18644714355469 free_energy=-35.18644714355469 stress="0.00010170927998842672 2.367557350169136e-08 -3.895586075941537e-09 2.367557350169136e-08 0.00010170242603635415 8.840512322194627e-09 -3.895586075941537e-09 8.840512322194627e-09 0.00010168800508836284" pbc="T T T"
Mn       2.29865275       1.62539364       3.98138378      -0.00000058       0.00000236       0.00000195
Mn       6.89595882       4.87617936      11.94414986       0.00000146      -0.00000008      -0.00000013
Y        0.00000009       0.00000017      -0.00000025      -0.00000065      -0.00000255       0.00000058
I        2.41632646       1.70860090       7.96276683      -0.00200562      -0.00141803      -0.00000062
I        6.77828449       4.79297077       7.96276663       0.00200748       0.00141887      -0.00000015
I        5.68779521       1.70860046       6.07398318       0.00100138      -0.00141704      -0.00173534
I        3.50681618       4.79297119       9.85155005      -0.00100256       0.00141684       0.00173563
I        3.50681596       4.79297109       6.07398341      -0.00100275       0.00141628      -0.00173613
I        5.68779519       1.70860047       9.85155033       0.00100182      -0.00141669       0.00173419
