9
Lattice="6.560474934781542 -5.404887826131304e-08 3.7876919671263285 2.1868249341913066 6.185275163315017 3.7876919551949717 1.022134787306032e-08 -7.385219389145786e-09 7.575383916548742" Properties=species:S:1:pos:R:3:forces:R:3 energy=-26.471561431884766 free_energy=-26.471561431884766 stress="-3.50011105183512e-05 -3.5098268735822558e-09 1.9082089242061784e-09 -3.5098268735822558e-09 -3.4999451600015163e-05 -2.669243714947811e-09 1.9082089242061784e-09 -2.669243714947811e-09 -3.50063965015579e-05" pbc="T T T"
Mn       2.18682534       1.54631946       3.78769196       0.00000239       0.00000350       0.00000012
Mn       6.56047474       4.63895544      11.36307520       0.00000064      -0.00000278      -0.00000362
Zn       0.00000002      -0.00000012       0.00000028      -0.00000032       0.00000052      -0.00000275
I        2.24524523       1.58762857       7.57538412      -0.00044703      -0.00031441      -0.00000026
I        6.50205467       4.59764649       7.57538428       0.00044659       0.00031459       0.00000078
I        5.43785212       1.58762811       5.73213129       0.00022117      -0.00031429      -0.00038588
I        3.30944787       4.59764682       9.41863645      -0.00022344       0.00031538       0.00038784
I        3.30944748       4.59764688       5.73213129      -0.00022326       0.00031304      -0.00038537
I        5.43785206       1.58762877       9.41863648       0.00022324      -0.00031553       0.00038900
