9
Lattice="4.6279275872926116 -3.9052822773915986e-08 2.6719352720930845 1.542642497432695 4.363252013485255 2.6719352631651967 -1.0179073902852617e-08 -1.8132061838894307e-08 5.343870561816846" Properties=species:S:1:pos:R:3:forces:R:3 energy=-45.8171501159668 free_energy=-45.8171501159668 stress="0.0002955834206659347 4.8285649256740726e-08 4.4820165356895814e-08 4.8285649256740726e-08 0.0002955764066427946 3.4354915356971105e-08 4.4820165356895814e-08 3.4354915356971105e-08 0.00029557591187767684" pbc="T T T"
Mn       1.54264288       1.09081242       2.67193512       0.00000325      -0.00000359      -0.00000164
Mn       4.62792759       3.27243950       8.01580554      -0.00000023       0.00000272      -0.00000239
Zn      -0.00000017      -0.00000010       0.00000002      -0.00000079      -0.00000463      -0.00000387
F        1.57572296       1.11420418       5.34387060      -0.00189283      -0.00133835       0.00000121
F        4.59484694       3.24904805       5.34387068       0.00189540       0.00134197       0.00000182
F        3.84006605       1.11420427       4.03655140       0.00094604      -0.00134034      -0.00163896
F        2.33050415       3.24904756       6.65118994      -0.00094908       0.00134256       0.00164396
F        2.33050390       3.24904778       4.03655131      -0.00094855       0.00133967      -0.00163919
F        3.84006596       1.11420407       6.65118971       0.00094661      -0.00134039       0.00163938
