9
Lattice="5.581793889419632 4.141358337396312e-09 3.2226502436011315 1.860597987553464 5.262565783924208 3.2226502080783836 1.5298236818365062e-08 -3.2688845835998413e-08 6.445300460704995" Properties=species:S:1:pos:R:3:forces:R:3 energy=-33.903804779052734 free_energy=-33.903804779052734 stress="-0.00020486123685259372 6.170907784763813e-09 3.744696108753942e-09 6.170907784763813e-09 -0.00020483513071667403 -1.4425635797010727e-08 3.744696108753942e-09 -1.4425635797010727e-08 -0.00020483446132857352" pbc="T T T"
Mn       1.86059762       1.31564291       3.22264969      -0.00000396       0.00001036      -0.00000318
Mn       5.58179351       3.94692363       9.66795045      -0.00000256      -0.00000260      -0.00000284
Zn       0.00000016       0.00000006       0.00000041      -0.00000207       0.00000013      -0.00000565
Cl       1.90409562       1.34639874       6.44530033      -0.00295752      -0.00209075      -0.00000070
Cl       5.53829622       3.91616634       6.44530038       0.00296201       0.00209004      -0.00000067
Cl       4.62974664       1.34639905       4.87164594       0.00148046      -0.00208955      -0.00256141
Cl       2.81264606       3.91616608       8.01895552      -0.00148156       0.00208929       0.00256746
Cl       2.81264567       3.91616667       4.87164561      -0.00147625       0.00208637      -0.00256039
Cl       4.62974601       1.34639954       8.01895530       0.00148141      -0.00209323       0.00256743
