9
Lattice="4.4680275581358915 -1.957352835498013e-07 2.5796169000282294 1.4893423827695267 4.212496512567928 2.5796168170077243 -6.994878020075183e-08 -1.5114020133838792e-07 5.1592339212113725" Properties=species:S:1:pos:R:3:forces:R:3 energy=-56.7813606262207 free_energy=-56.7813606262207 stress="3.066532372031361e-05 -4.889360383231178e-08 -7.589207484670624e-08 -4.889360383231178e-08 3.075196946156211e-05 8.454953182024383e-09 -7.589207484670624e-08 8.454953182024383e-09 3.0783714464632794e-05" pbc="T T T"
Mo       1.48934069       1.05312219       2.57961880      -0.00002427      -0.00002291       0.00002211
Mo       4.46802560       3.15937423       7.73884893      -0.00002542       0.00002600      -0.00001907
Cr       0.00000002       0.00000001      -0.00000012       0.00000409       0.00000068       0.00000226
O        1.47978933       1.04637069       5.15923329      -0.00110745      -0.00076586      -0.00000877
O        4.47758176       3.16612454       5.15923463       0.00111389       0.00075069       0.00000634
O        3.72813102       1.04636789       3.86115296       0.00054339      -0.00079581      -0.00094756
O        2.22923994       3.16612873       6.45731457      -0.00052130       0.00080109       0.00094932
O        2.22923957       3.16612815       3.86115273      -0.00052321       0.00079396      -0.00095162
O        3.72813133       1.04636812       6.45731485       0.00054133      -0.00078711       0.00094640
