9
Lattice="5.349439803593065 -1.3614857317682157e-07 3.088500442198754 1.7831464274582123 5.0435001162126385 3.0885005207945997 -6.294206938342934e-08 5.17531887670179e-08 6.1770009934163586" Properties=species:S:1:pos:R:3:forces:R:3 energy=-43.24306106567383 free_energy=-43.24306106567383 stress="-0.0001328422367805615 3.4480109434298356e-08 4.762304328664868e-08 3.4480109434298356e-08 -0.00013278638652991503 -2.6745350378831745e-09 4.762304328664868e-08 -2.6745350378831745e-09 -0.00013285900058690459" pbc="T T T"
Mo       1.78314975       1.26087313       3.08850077       0.00001508      -0.00001010       0.00000093
Mo       5.34944062       3.78262679       9.26549824       0.00000499       0.00000917      -0.00001476
Co      -0.00000022      -0.00000001       0.00000033      -0.00000400       0.00000026       0.00000227
Se       1.88518888       1.33302992       6.17700110      -0.00683472      -0.00483379       0.00000118
Se       5.24739611       3.71047034       6.17700151       0.00682962       0.00483266       0.00000397
Se       4.40684352       1.33302949       4.72112225       0.00341102      -0.00483289      -0.00591439
Se       2.72574134       3.71047073       7.63288033      -0.00341436       0.00483128       0.00591975
Se       2.72574036       3.71047028       4.72112337      -0.00342013       0.00483292      -0.00591579
Se       4.40684440       1.33302956       7.63287998       0.00341254      -0.00482953       0.00591677
