9
Lattice="4.972882133317466 -4.9928862552283996e-08 2.8710948294398526 1.6576273894503422 4.688478151202732 2.871094727679779 -1.0562089582676104e-08 -1.3209867729055416e-07 5.742189677173832" Properties=species:S:1:pos:R:3:forces:R:3 energy=-45.419315338134766 free_energy=-45.419315338134766 stress="0.0003974956925958395 5.392315216568022e-08 -2.9748260743645005e-08 5.392315216568022e-08 0.00039736804319545627 4.5421590044725235e-08 -2.9748260743645005e-08 4.5421590044725235e-08 0.0003974239225499332" pbc="T T T"
Mo       1.65762885       1.17211927       2.87109506       0.00001630      -0.00000465       0.00000077
Mo       4.97288272       3.51635811       8.61328382       0.00001108      -0.00000413      -0.00000366
C        0.00000952      -0.00000340      -0.00000045       0.00032196      -0.00011443      -0.00001034
S        1.62371315       1.14813869       5.74218937       0.00360978       0.00257210      -0.00000084
S        5.00679130       3.54033600       5.74218976      -0.00376497      -0.00264616       0.00000320
S        4.16102218       1.14814233       4.27727584      -0.00189587       0.00265913       0.00324889
S        2.46948400       3.54033960       7.20710764       0.00179717      -0.00255775      -0.00313832
S        2.46948422       3.54033903       4.27727238       0.00179952      -0.00256192       0.00314629
S        4.16102213       1.14814220       7.20710341      -0.00189501       0.00265776      -0.00324589
