9
Lattice="5.376022707386785 -1.4448282504016213e-07 3.1038479907505767 1.7920074681190867 5.068562835626464 3.1038479297653145 -3.941127678883601e-08 -1.0255938159365302e-07 6.207696049763521" Properties=species:S:1:pos:R:3:forces:R:3 energy=-46.18460464477539 free_energy=-46.18460464477539 stress="-0.00037245400017127395 1.6310725214907507e-08 5.507503786361667e-09 1.6310725214907507e-08 -0.00037248569424264133 -2.2930695564582493e-08 5.507503786361667e-09 -2.2930695564582493e-08 -0.00037246537976898253" pbc="T T T"
Mo       1.79200635       1.26714155       3.10384831      -0.00000470       0.00000476       0.00000180
Mo       5.37602284       3.80142194       9.31154501       0.00000021      -0.00000001       0.00000584
Cr       0.00000010      -0.00000010      -0.00000093      -0.00000032      -0.00000108       0.00000473
Se       1.92380863       1.36033804       6.20769608       0.00122598       0.00086844       0.00000262
Se       5.24422177       3.70822441       6.20769562      -0.00122416      -0.00086737      -0.00000248
Se       4.41411871       1.36033771       4.76991504      -0.00061007       0.00086457       0.00106004
Se       2.75391179       3.70822497       7.64547695       0.00061560      -0.00087100      -0.00106612
Se       2.75391177       3.70822426       4.76991481       0.00061181      -0.00086728       0.00105798
Se       4.41411861       1.36033758       7.64547699      -0.00061464       0.00086892      -0.00106388
