9
Lattice="4.351817527731605 1.6097734286437695e-07 2.512523517914566 1.450606034573495 4.102933150845381 2.512523448242167 2.539511860315965e-07 9.423966060557976e-08 5.025046595972797" Properties=species:S:1:pos:R:3:forces:R:3 energy=-52.79981231689453 free_energy=-52.79981231689453 stress="0.000310201634420082 -1.1998160687198833e-07 -4.882111070969586e-08 -1.1998160687198833e-07 0.0003098908346146345 7.01856350815433e-09 -4.882111070969586e-08 7.01856350815433e-09 0.0003097533481195569" pbc="T T T"
Mo       1.45060823       1.02573571       2.51252455       0.00003643       0.00002805       0.00002015
Mo       4.35182456       3.07719871       7.53757331       0.00008772      -0.00001249       0.00003786
Co       0.00000014      -0.00000003       0.00000017      -0.00000147       0.00000375       0.00000049
O        1.48277041       1.04847946       5.02504589      -0.00338757      -0.00236553      -0.00001041
O        4.31965176       3.05445442       5.02504634       0.00336146       0.00237149      -0.00000995
O        3.61043044       1.04847906       3.79664011       0.00166589      -0.00237542      -0.00292915
O        2.19198935       3.05445448       6.25345117      -0.00171757       0.00236905       0.00289971
O        2.19199001       3.05445484       3.79664182      -0.00170922       0.00237703      -0.00291270
O        3.61043054       1.04847694       6.25345117       0.00166434      -0.00239623       0.00290370
