9
Lattice="5.100605317276333 1.0682498160972096e-07 2.9448358382986246 1.7002018483090704 4.808896828377663 2.944835881308784 4.286835619504544e-09 5.570773882348454e-08 5.889671669172211" Properties=species:S:1:pos:R:3:forces:R:3 energy=-48.4420166015625 free_energy=-48.4420166015625 stress="-0.00019049855472985655 1.6017278170465943e-08 -3.3855407366445434e-08 1.6017278170465943e-08 -0.00019043468637391925 -9.38465305466707e-09 -3.3855407366445434e-08 -9.38465305466707e-09 -0.00019047773093916476" pbc="T T T"
Mo       1.70020185       1.20222439       2.94483583       0.00000163       0.00000045       0.00000167
Mo       5.10060523       3.60667277       8.83450713      -0.00000211      -0.00000103      -0.00000244
Co       0.00000020      -0.00000018      -0.00000013      -0.00000050      -0.00000018       0.00000080
S        1.76638354       1.24902203       5.88967172       0.00804245       0.00568682       0.00000188
S        5.03442317       3.55987496       5.88967155      -0.00803936      -0.00568476       0.00000061
S        4.21741328       1.24902216       4.47456908      -0.00402048       0.00568289       0.00696361
S        2.58339375       3.55987523       7.30477468       0.00402185      -0.00568712      -0.00696495
S        2.58339391       3.55987466       4.47456894       0.00401735      -0.00568441       0.00696367
S        4.21741374       1.24902198       7.30477474      -0.00402051       0.00568727      -0.00696445
