9
Lattice="5.151641955219348 -3.5404686779349943e-08 2.9743019105467106 1.717213948813797 4.857014719739045 2.9743019155340704 -3.190237092797498e-08 -1.6450142618288587e-08 5.948603876349968" Properties=species:S:1:pos:R:3:forces:R:3 energy=-50.98689651489258 free_energy=-50.98689651489258 stress="-2.850403507181909e-05 4.197877601086475e-08 4.003575426736461e-08 4.197877601086475e-08 -2.856579885701649e-05 1.101380409096464e-08 4.003575426736461e-08 1.101380409096464e-08 -2.852487887139432e-05" pbc="T T T"
Mo       1.71721377       1.21425365       2.97430183      -0.00000147       0.00000031       0.00000004
Mo       5.15164216       3.64276107       8.92290567       0.00000053      -0.00000009       0.00000071
Cr       0.00000001       0.00000002       0.00000026      -0.00000220       0.00000153      -0.00000248
S        1.82323588       1.28922266       5.94860402      -0.00035602      -0.00025028      -0.00000020
S        5.04562008       3.56779199       5.94860357       0.00035518       0.00025254      -0.00000071
S        4.24002385       1.28922229       4.55327064       0.00017694      -0.00025105      -0.00030845
S        2.62883192       3.56779234       7.34393731      -0.00017560       0.00024983       0.00030518
S        2.62883178       3.56779221       4.55327043      -0.00017592       0.00024837      -0.00030524
S        4.24002399       1.28922237       7.34393716       0.00017852      -0.00025126       0.00031108
