9
Lattice="4.0346983229733935 4.912377379125647e-08 2.3294342136942356 1.3448995064474418 3.8039501095957533 2.329434180539352 5.464875576087602e-08 -1.963751540065224e-09 4.658868332734048" Properties=species:S:1:pos:R:3:forces:R:3 energy=-57.808349609375 free_energy=-57.808349609375 stress="0.00017840224609244615 -3.1565676295031153e-07 -3.565976314234831e-08 -3.1565676295031153e-07 0.00017784045485313982 -2.4092639705486363e-07 -3.565976314234831e-08 -2.4092639705486363e-07 0.00017833246965892613" pbc="T T T"
Mo       1.34490031       0.95098565       2.32943441       0.00000688      -0.00002010       0.00000002
Mo       4.03469775       2.85296194       6.98830294      -0.00000516      -0.00001217       0.00000199
C        0.00000013      -0.00000037       0.00000013      -0.00000078      -0.00000837       0.00000062
O        1.24652192       0.88142416       4.65886819       0.00345683       0.00245130      -0.00000253
O        4.13307559       2.92252718       4.65886817      -0.00346804      -0.00243902      -0.00000348
O        3.41143740       0.88142465       3.40895365      -0.00172710       0.00245643       0.00299740
O        1.96816057       2.92252629       5.90878297       0.00172985      -0.00243700      -0.00299847
O        1.96816038       2.92252645       3.40895387       0.00173169      -0.00244009       0.00300074
O        3.41143737       0.88142470       5.90878304      -0.00172490       0.00245035      -0.00299442
