9
Lattice="5.077984843979689 -2.1339861874839396e-07 2.931775961401995 1.6926614451740507 4.787570065913178 2.9317759064816857 -1.2888856482959526e-07 -1.5840144318462895e-07 5.86355214604554" Properties=species:S:1:pos:R:3:forces:R:3 energy=-49.3494987487793 free_energy=-49.3494987487793 stress="-0.00011672971595544368 -4.678777543176693e-08 -1.6678974645856215e-08 -4.678777543176693e-08 -0.00011671720130834728 6.678712249907903e-09 -1.6678974645856215e-08 6.678712249907903e-09 -0.00011671293759718537" pbc="T T T"
Mo       1.69266136       1.19689284       2.93177556      -0.00000066       0.00000210      -0.00000277
Mo       5.07798525       3.59067808       8.79532693       0.00000402       0.00000534      -0.00000466
Fe      -0.00000058      -0.00000031       0.00000028      -0.00000192      -0.00000163       0.00000187
S        1.78133397       1.25959284       5.86355197       0.00661200       0.00467432       0.00000343
S        4.98931224       3.52797640       5.86355223      -0.00661314      -0.00467634       0.00000077
S        4.18731750       1.25959305       4.47445680      -0.00330484       0.00467372       0.00572473
S        2.58332814       3.52797646       7.25264769       0.00330698      -0.00467956      -0.00572479
S        2.58332850       3.52797648       4.47445693       0.00330290      -0.00467330       0.00572687
S        4.18731815       1.25959276       7.25264756      -0.00330487       0.00467592      -0.00572574
