9
Lattice="4.411781246100422 -2.1816806557196987e-08 2.5471431956206736 1.4705937107917462 4.15946732477342 2.54714322565323 4.764622023838132e-08 7.047318098753684e-08 5.094286308715695" Properties=species:S:1:pos:R:3:forces:R:3 energy=-54.75083923339844 free_energy=-54.75083923339844 stress="0.0001774563133949414 3.064775810912579e-08 -1.1349177242436781e-07 3.064775810912579e-08 0.00017759342154022306 -2.9189653361072487e-08 -1.1349177242436781e-07 -2.9189653361072487e-08 0.00017771543934941292" pbc="T T T"
Mo       1.47059420       1.03986895       2.54714168       0.00000639       0.00002786      -0.00001300
Mo       4.41178116       3.11960153       7.64143303       0.00000152       0.00001520       0.00004462
Ge       0.00000006      -0.00000002       0.00000007       0.00000185      -0.00000320      -0.00000748
O        1.49731015       1.05875813       5.09428707      -0.00150311      -0.00106621       0.00000639
O        4.38506543       3.10070783       5.09428477       0.00150895       0.00104880      -0.00001660
O        3.66312561       1.05875833       3.84385118       0.00074500      -0.00106406      -0.00131047
O        2.21924873       3.10070827       6.34472092      -0.00075471       0.00105560       0.00131238
O        2.21924907       3.10070926       3.84385194      -0.00075293       0.00106251      -0.00130880
O        3.66312565       1.05875716       6.34472018       0.00074595      -0.00107646       0.00129402
