9
Lattice="5.367750407569406 2.3580438340139855e-08 3.099072185012758 1.7892501726695131 5.060763412900454 3.0990721597573434 1.0270879383791506e-07 4.1694621964685564e-08 6.198144192128691" Properties=species:S:1:pos:R:3:forces:R:3 energy=-43.042972564697266 free_energy=-43.042972564697266 stress="-9.016006515594199e-05 -3.729255482198823e-08 2.2012992817455057e-10 -3.729255482198823e-08 -9.013951785163954e-05 7.177757943566121e-09 2.2012992817455057e-10 7.177757943566121e-09 -9.015101386466995e-05" pbc="T T T"
Mo       1.78924986       1.26519262       3.09907191       0.00000096       0.00001209      -0.00000249
Mo       5.36775082       3.79557302       9.29721614      -0.00000065       0.00000480       0.00000294
Ge       0.00000023      -0.00000016       0.00000055       0.00000252       0.00000380      -0.00000515
S        1.86312571       1.31742797       6.19814390       0.00104547       0.00073600      -0.00000187
S        5.29387563       3.74333443       6.19814416      -0.00104481      -0.00074875      -0.00000006
S        4.43618785       1.31742820       4.71258663      -0.00052050       0.00073713       0.00090826
S        2.72081211       3.74333432       7.68370221       0.00051588      -0.00074041      -0.00090480
S        2.72081330       3.74333460       4.71258592       0.00052387      -0.00074422       0.00090343
S        4.43618738       1.31742876       7.68370296      -0.00052315       0.00073969      -0.00090027
