9
Lattice="5.50643487865527 -7.46031224519278e-09 3.179141546940853 1.8354783241483212 5.191516197107649 3.179141480608762 2.2725817563525272e-07 7.945587423001526e-08 6.358282700258971" Properties=species:S:1:pos:R:3:forces:R:3 energy=-38.83848571777344 free_energy=-38.83848571777344 stress="-8.060492291406263e-06 1.3829077438742843e-08 -8.083164004801802e-08 1.3829077438742843e-08 -8.03337934485171e-06 -5.108913470053267e-08 -8.083164004801802e-08 -5.108913470053267e-08 -8.023252121347468e-06" pbc="T T T"
Mo       1.83548088       1.29787977       3.17914153       0.00001574       0.00000408       0.00000112
Mo       5.50643669       3.89363907       9.53742865       0.00000960       0.00001322       0.00003058
Ge       0.00000020       0.00000016       0.00000017      -0.00000016      -0.00000132       0.00000159
Se       2.03079605       1.43598917       6.35828267      -0.00178663      -0.00126262      -0.00000221
Se       5.31111677       3.75552646       6.35828137       0.00178246       0.00126165      -0.00001214
Se       4.49103605       1.43598931       4.93786179       0.00088800      -0.00126274      -0.00155032
Se       2.85087509       3.75552614       7.77870246      -0.00090090       0.00125779       0.00153857
Se       2.85087686       3.75552661       4.93786171      -0.00089081       0.00126006      -0.00154991
Se       4.49103512       1.43598836       7.77870258       0.00088246      -0.00127006       0.00154248
