9
Lattice="4.6359340916647875 -1.1235420514304546e-08 2.6765575946860283 1.5453112940206084 4.370800612919968 2.6765576973529996 1.612270137210193e-07 2.3974554722117984e-07 5.353114910118713" Properties=species:S:1:pos:R:3:forces:R:3 energy=-55.28904724121094 free_energy=-55.28904724121094 stress="3.5507230222719954e-07 1.0204324496498884e-07 -2.4560546307839104e-07 1.0204324496498884e-07 8.627677061667782e-08 -9.179171911455342e-08 -2.4560546307839104e-07 -9.179171911455342e-08 3.9678351981820015e-07" pbc="T T T"
Mo       1.54530942       1.09271158       2.67657106      -0.00004542       0.00016206       0.00023859
Mo       4.63592108       3.27810239       8.02971333      -0.00018698       0.00003959       0.00059209
Ir       0.00000079      -0.00000042      -0.00000275       0.00000989      -0.00001384      -0.00002980
O        1.54213311       1.09043735       5.35311219      -0.00005615      -0.00020511      -0.00008161
O        4.63911826       3.28035659       5.35309722       0.00013837       0.00010762      -0.00025793
O        3.86487523       1.09045723       4.01206679       0.00011392       0.00001600      -0.00025710
O        2.31636950       3.28034784       6.69415061      -0.00011666       0.00004134       0.00006969
O        2.31637509       3.28034600       4.01206850      -0.00001299       0.00000069      -0.00026083
O        3.86487991       1.09044475       6.69414380       0.00015625      -0.00014862      -0.00001331
