9
Lattice="5.576505511632053 -1.241836956537849e-07 3.219597491066812 1.8588351579798192 5.25757969645442 3.219597310037663 6.651818926227444e-07 2.4864010229687195e-07 6.439193830004791" Properties=species:S:1:pos:R:3:forces:R:3 energy=-44.194759368896484 free_energy=-44.194759368896484 stress="0.00014562929573003203 -5.521234669458863e-08 8.800844852885348e-08 -5.521234669458863e-08 0.00014563898730557412 -8.87678055505603e-08 8.800844852885348e-08 -8.87678055505603e-08 0.00014569798076990992" pbc="T T T"
Mo       1.85883485       1.31439491       3.21959991      -0.00000217       0.00000039       0.00001536
Mo       5.57650410       3.94318499       9.65878875      -0.00001899       0.00000143      -0.00001756
Ir      -0.00000034       0.00000023       0.00000086       0.00000417      -0.00000649      -0.00001852
Se       2.00380339       1.41690185       6.43919365      -0.00299895      -0.00212580      -0.00000887
Se       5.43153799       3.84067818       6.43919532       0.00300354       0.00212288       0.00000643
Se       4.57460477       1.41690118       4.95494011       0.00149563      -0.00211731      -0.00258946
Se       2.86073906       3.84067707       7.92344772      -0.00149521       0.00213030       0.00260904
Se       2.86073684       3.84067713       4.95494142      -0.00150478       0.00212157      -0.00260505
Se       4.57460456       1.41690362       7.92344716       0.00151685      -0.00212705       0.00260863
