9
Lattice="5.26394975936522 2.7272537118875003e-08 3.0391427970922247 1.7546499373121316 4.962899452170081 3.039142811276101 8.71678834436935e-10 1.7987989901062368e-08 6.078285592674654" Properties=species:S:1:pos:R:3:forces:R:3 energy=-49.18844223022461 free_energy=-49.18844223022461 stress="6.714038318023086e-05 -3.3192904425050074e-08 2.6877153835869194e-09 -3.3192904425050074e-08 6.715905328746885e-05 -4.142753695646206e-09 2.6877153835869194e-09 -4.142753695646206e-09 6.71828820486553e-05" pbc="T T T"
Mo       1.75464977       1.24072453       3.03914286      -0.00000172      -0.00000180       0.00000048
Mo       5.26394974       3.72217428       9.11742845      -0.00000006      -0.00000299       0.00000192
Ir      -0.00000004      -0.00000004       0.00000004       0.00000015      -0.00000035      -0.00000245
S        1.88506696       1.33294346       6.07828558      -0.00037390      -0.00026435      -0.00000170
S        5.13353279       3.62995637       6.07828564       0.00037384       0.00026619      -0.00000037
S        4.32141665       1.33294356       4.67165865       0.00018811      -0.00026274      -0.00032413
S        2.69718324       3.62995578       7.48491247      -0.00019053       0.00026810       0.00032544
S        2.69718330       3.62995618       4.67165871      -0.00018677       0.00026351      -0.00032502
S        4.32141648       1.33294392       7.48491259       0.00019100      -0.00026566       0.00032628
