9
Lattice="4.393651966024482 1.318209238492991e-07 2.536676213165199 1.4645507450832609 4.142374955377468 2.5366762729905736 1.3670502949926558e-08 8.293731862412046e-08 5.073352402652396" Properties=species:S:1:pos:R:3:forces:R:3 energy=-57.06990051269531 free_energy=-57.06990051269531 stress="-0.0001706892653601244 6.23433038526855e-08 6.517592510135728e-08 6.23433038526855e-08 -0.00017076860240194947 2.3700655660263692e-08 6.517592510135728e-08 2.3700655660263692e-08 -0.0001710307551547885" pbc="T T T"
Mo       1.46455024       1.03559447       2.53667667      -0.00000187       0.00000638       0.00000480
Mo       4.39365388       3.10678052       7.61002924       0.00002218      -0.00000985       0.00000864
Mn       0.00000007       0.00000000       0.00000003      -0.00000476      -0.00000574       0.00000584
O        1.46972430       1.03925268       5.07335276      -0.00022349      -0.00015113      -0.00000037
O        4.38847801       3.10312256       5.07335203       0.00022727       0.00016040      -0.00000519
O        3.65878943       1.03925285       3.80949427       0.00010188      -0.00015050      -0.00019449
O        2.19941259       3.10312246       6.33720962      -0.00011334       0.00015038       0.00018770
O        2.19941216       3.10312285       3.80949579      -0.00012262       0.00015590      -0.00018740
O        3.65879027       1.03925232       6.33720934       0.00011466      -0.00015599       0.00017980
