9
Lattice="5.175240760743268 1.9118839460187234e-07 2.9879267949778523 1.7250803449948673 4.879263366894686 2.987926948853927 -2.1979809517384312e-08 1.7291684743892613e-07 5.975853628025799" Properties=species:S:1:pos:R:3:forces:R:3 energy=-50.31865692138672 free_energy=-50.31865692138672 stress="4.6723569539608434e-05 4.4183398273389685e-08 -5.804160707612027e-08 4.4183398273389685e-08 4.673849980463274e-05 8.774523330146167e-09 -5.804160707612027e-08 8.774523330146167e-09 4.666684253606945e-05" pbc="T T T"
Mo       1.72507977       1.21981732       2.98792584      -0.00000098       0.00000731      -0.00000529
Mo       5.17524091       3.65944856       8.96378280      -0.00000087       0.00000565       0.00001571
Mn      -0.00000024       0.00000014      -0.00000036       0.00000371      -0.00000329       0.00000552
S        1.80766844       1.27821370       5.97585363      -0.00312692      -0.00221860       0.00000655
S        5.09265308       3.60104988       5.97585301       0.00312573       0.00220776      -0.00000341
S        4.27140697       1.27821474       4.55341306       0.00157103      -0.00221151      -0.00270921
S        2.62891416       3.60104965       7.39829369      -0.00156328       0.00220484       0.00270826
S        2.62891381       3.60104839       4.55341322      -0.00156742       0.00221211      -0.00271428
S        4.27140766       1.27821304       7.39829467       0.00155872      -0.00220400       0.00269556
