9
Lattice="5.386046575835957 7.894297138233536e-07 3.1096364280770783 1.7953497254678683 5.078016255707986 3.109636215771954 6.801933429658623e-07 2.2094968619323082e-07 6.219271678024607" Properties=species:S:1:pos:R:3:forces:R:3 energy=-45.65333938598633 free_energy=-45.65333938598633 stress="0.0004203085554763675 3.2792367932188426e-08 -2.918739383517277e-08 3.2792367932188426e-08 0.0004202091949991882 5.515768464192661e-08 -2.918739383517277e-08 5.515768464192661e-08 0.0004202958371024579" pbc="T T T"
Mo       1.79535491       1.26949935       3.10963800       0.00003124      -0.00002553       0.00000755
Mo       5.38604968       3.80850915       9.32890345       0.00001414      -0.00002314      -0.00002703
Mn       0.00000124       0.00000248      -0.00000010      -0.00002148      -0.00000741       0.00000790
Se       1.92023058       1.35781018       6.21927174      -0.00251222      -0.00175929      -0.00000193
Se       5.26116433       3.72020698       6.21927530       0.00252020       0.00179350       0.00001171
Se       4.42592867       1.35781198       4.77260541       0.00124645      -0.00177631      -0.00217998
Se       2.75546468       3.72020998       7.66593853      -0.00125849       0.00178173       0.00217298
Se       2.75546451       3.72020848       4.77260553      -0.00126091       0.00178367      -0.00217056
Se       4.42592965       1.35781050       7.66594000       0.00124130      -0.00176686       0.00217921
