9
Lattice="4.395137133056559 -8.906472381835298e-08 2.5375326949747805 1.4650453542614514 4.14377419239635 2.537533167454546 -1.5286341250506637e-06 -5.022405347208418e-07 5.075068037620785" Properties=species:S:1:pos:R:3:forces:R:3 energy=-49.26206588745117 free_energy=-49.26206588745117 stress="-1.9584971596486866e-05 2.0305954251398362e-07 9.793546951186727e-07 2.0305954251398362e-07 -1.898543632705696e-05 9.511996381661447e-07 9.793546951186727e-07 9.511996381661447e-07 -2.013043012993876e-05" pbc="T T T"
Mo       1.46507160       1.03594165       2.53755118       0.00037385      -0.00000273       0.00019678
Mo       4.39516486       3.10784397       7.61256538       0.00040111       0.00017342      -0.00043051
Ni      -0.00000261      -0.00000088       0.00000088      -0.00004201      -0.00000452       0.00000403
O        1.45681186       1.03013542       5.07506418       0.00001568       0.00018801      -0.00002652
O        4.40336065       3.11363778       5.07507660      -0.00015372      -0.00014931       0.00012787
O        3.66670223       1.03011321       3.79917893      -0.00034906      -0.00008564       0.00015949
O        2.19345660       3.11365204       6.35095417       0.00006755      -0.00004773      -0.00014690
O        2.19344553       3.11364436       3.79918323      -0.00008234      -0.00013040       0.00019966
O        3.66671336       1.03012524       6.35096030      -0.00023068       0.00005899      -0.00008403
