9
Lattice="5.1256290556347235 4.163104165306416e-09 2.9592832463463474 1.7085429792145597 4.832489319566141 2.959283321266776 -4.054730498048715e-08 6.308717223012937e-08 5.9185665629227096" Properties=species:S:1:pos:R:3:forces:R:3 energy=-46.59506607055664 free_energy=-46.59506607055664 stress="-5.7997862313641235e-05 7.237763810508113e-08 3.424973371579654e-08 7.237763810508113e-08 -5.806529588880949e-05 -3.1842535275217188e-09 3.424973371579654e-08 -3.1842535275217188e-09 -5.809210051666014e-05" pbc="T T T"
Mo       1.70854363       1.20812207       2.95928298       0.00000540      -0.00000115      -0.00000245
Mo       5.12563006       3.62436675       8.87784933       0.00000729      -0.00000361      -0.00000158
Ni      -0.00000043      -0.00000005      -0.00000055       0.00000823      -0.00000168       0.00001273
S        1.75583726       1.24156459       5.91856684      -0.00335658      -0.00237307      -0.00000070
S        5.07833424       3.59092498       5.91856732       0.00334734       0.00237066       0.00000116
S        4.24771061       1.24156461       4.47988272       0.00167361      -0.00236562      -0.00289935
S        2.58646130       3.59092532       7.35725051      -0.00167435       0.00236541       0.00289878
S        2.58646092       3.59092488       4.47988310      -0.00167996       0.00237361      -0.00290471
S        4.24771032       1.24156443       7.35725046       0.00166905      -0.00236452       0.00289631
