9
Lattice="5.210839026926948 -1.865325603476248e-08 3.008479324404509 1.7369463291524758 4.912826236338656 3.008479316731606 -3.874298434496005e-08 -3.679277153426762e-08 6.016958715913843" Properties=species:S:1:pos:R:3:forces:R:3 energy=-51.24898147583008 free_energy=-51.24898147583008 stress="9.272587340092286e-05 -1.315399611456769e-08 2.2872843619126115e-09 -1.315399611456769e-08 9.269128349842504e-05 -1.0118080595589163e-08 2.2872843619126115e-09 -1.0118080595589163e-08 9.267465065931901e-05" pbc="T T T"
Mo       1.73694629       1.22820650       3.00847939      -0.00000115      -0.00000076       0.00000077
Mo       5.21083908       3.68461940       9.02543796       0.00000145      -0.00000072       0.00000084
Os      -0.00000008       0.00000010       0.00000025      -0.00000122      -0.00000026      -0.00000357
S        1.88704621       1.33434312       6.01695864      -0.00753582      -0.00532782      -0.00000139
S        5.06073908       3.57848302       6.01695864       0.00753665       0.00532937      -0.00000064
S        4.26731576       1.33434324       4.64270908       0.00376761      -0.00532681      -0.00652528
S        2.68046955       3.57848295       7.39120812      -0.00376904       0.00533044       0.00652766
S        2.68046944       3.57848320       4.64270926      -0.00376755       0.00532627      -0.00652492
S        4.26731588       1.33434316       7.39120809       0.00376934      -0.00533009       0.00652695
