9
Lattice="5.480649134087005 1.505099072729125e-07 3.1642543921268746 1.8268831945480082 5.167206086039915 3.1642543783566373 1.228577123866756e-07 7.000849962470928e-08 6.32850857145796" Properties=species:S:1:pos:R:3:forces:R:3 energy=-46.00682830810547 free_energy=-46.00682830810547 stress="-0.0001660566049395129 -7.032594595557384e-08 6.664152607527285e-08 -7.032594595557384e-08 -0.00016610423335805535 -6.697900545304947e-08 6.664152607527285e-08 -6.697900545304947e-08 -0.00016599833907093853" pbc="T T T"
Mo       1.82688255       1.29180165       3.16425454      -0.00000322       0.00000145       0.00000033
Mo       5.48065052       3.87540418       9.49276296       0.00000820      -0.00000467      -0.00000260
Os       0.00000021      -0.00000013       0.00000033      -0.00000045       0.00000004      -0.00000107
Se       2.00438900       1.41731798       6.32850857       0.00076848       0.00054526      -0.00000116
Se       5.30314295       3.74988906       6.32850872      -0.00076985      -0.00054479      -0.00000089
Se       4.47845490       1.41731777       4.90010658      -0.00038382       0.00054550       0.00066710
Se       2.82907755       3.74988862       7.75691069       0.00038067      -0.00054145      -0.00066340
Se       2.82907739       3.74988825       4.90010669       0.00038081      -0.00054216       0.00066483
Se       4.47845482       1.41731796       7.75691032      -0.00038087       0.00054044      -0.00066316
