9
Lattice="4.727280604219815 9.396521559255043e-08 2.7292968457095323 1.5757602348251591 4.456923148771285 2.72929694127143 1.7447036088044645e-07 2.404081101497289e-07 5.458593389227571" Properties=species:S:1:pos:R:3:forces:R:3 energy=-59.5875244140625 free_energy=-59.5875244140625 stress="6.336074147839099e-05 4.8332093882663685e-08 5.256785939877773e-08 4.8332093882663685e-08 6.319170643109828e-05 -5.736324304450591e-09 5.256785939877773e-08 -5.736324304450591e-09 6.313568155746907e-05" pbc="T T T"
Mo       1.57577146       1.11423265       2.72929093       0.00010441       0.00003178      -0.00005059
Mo       4.72727642       3.34270356       8.18789646      -0.00002765       0.00011216       0.00005404
Os      -0.00000007      -0.00000057       0.00000014      -0.00000784      -0.00000287       0.00000573
O        1.52493519       1.07829131       5.45859449      -0.00242884      -0.00173936       0.00001047
O        4.77810589       3.37862925       5.45859217       0.00243135       0.00170390      -0.00001397
O        3.96480895       1.07828980       4.04992872       0.00117670      -0.00174125      -0.00210999
O        2.33822928       3.37862889       6.86725978      -0.00120898       0.00168411       0.00211528
O        2.33823073       3.37863206       4.04992938      -0.00119778       0.00171506      -0.00211033
O        3.96480679       1.07828689       6.86725711       0.00115860      -0.00176408       0.00209928
