9
Lattice="5.269770685802995 1.3156621733502812e-08 3.0425033845592035 1.756590186721534 4.968387290853043 3.0425034785812866 -1.2937010963119328e-07 2.367456799385403e-08 6.085006993194039" Properties=species:S:1:pos:R:3:forces:R:3 energy=-45.56366729736328 free_energy=-45.56366729736328 stress="0.00013815617421641946 -4.115204621513158e-09 3.85488760912267e-08 -4.115204621513158e-09 0.0001381481415592134 -4.678556209114504e-08 3.85488760912267e-08 -4.678556209114504e-08 0.0001381433248752728" pbc="T T T"
Mo       1.75659053       1.24209613       3.04250332       0.00000044      -0.00000673      -0.00000089
Mo       5.26977028       3.72629108       9.12750968      -0.00000166       0.00000610      -0.00000542
P        0.00000010       0.00000000      -0.00000022       0.00000134       0.00000132      -0.00000462
S        1.76367618       1.24710767       6.08500732      -0.00023949      -0.00017262       0.00000046
S        5.26268435       3.72127982       6.08500732       0.00023794       0.00017112       0.00000217
S        4.38793208       1.24710670       4.56989200       0.00011528      -0.00017178      -0.00020492
S        2.63842809       3.72128002       7.60012180      -0.00011978       0.00017136       0.00020808
S        2.63842867       3.72128023       4.56989243      -0.00011593       0.00017375      -0.00020742
S        4.38793250       1.24710785       7.60012172       0.00012207      -0.00017190       0.00021261
