9
Lattice="4.609256499946583 1.4021291938422167e-07 2.66115565167726 1.5364189351739082 4.345648490884465 2.661155704220121 1.477635883432281e-07 1.6883624815059858e-07 5.322311047420498" Properties=species:S:1:pos:R:3:forces:R:3 energy=-51.68514633178711 free_energy=-51.68514633178711 stress="-5.407609569374472e-05 1.1312144110320332e-08 -2.545851316426706e-07 1.1312144110320332e-08 -5.3401516197482124e-05 -1.3998013059790537e-07 -2.545851316426706e-07 -1.3998013059790537e-07 -5.4240957979345694e-05" pbc="T T T"
Mo       1.53641411       1.08640804       2.66114678      -0.00007608      -0.00006165      -0.00013315
Mo       4.60925245       3.25924264       7.98346432      -0.00006401       0.00008748      -0.00003817
Pt       0.00000008       0.00000004       0.00000024       0.00000485       0.00000535      -0.00001131
O        1.57283045       1.11215372       5.32232130      -0.00004351      -0.00010322       0.00011841
O        4.57284708       3.23349278       5.32230814       0.00007284       0.00006780      -0.00002526
O        3.82284272       1.11215567       4.02326595       0.00005096      -0.00008030      -0.00003152
O        2.32283815       3.23349321       6.62136002       0.00002226       0.00006883       0.00009724
O        2.32283039       3.23349206       4.02326678      -0.00004867       0.00007619      -0.00002915
O        3.82284684       1.11215699       6.62135609       0.00008075      -0.00006054       0.00005315
