9
Lattice="3.1276104964324385 0.8133855526126137 1.2973788819002041 2.449283125940139 3.367397060583066 0.3675561739318726 1.1903903826308966 2.3756488049617617 2.488085893393277" Properties=species:S:1:pos:R:3:forces:R:3 energy=-74546610176.0 free_energy=-74546610176.0 stress="0.0 -3467412736.0 -9022002176.0 -3467412736.0 0.0 -1078670208.0 -9022002176.0 -1078670208.0 0.0" pbc="T T T"
Mo       0.81216967      -0.27307867       0.28116813 -155056553984.00000000 553708945408.00000000 -232872951808.00000000
Mo       6.31188927       4.04660637       2.18398382 -44546252800.00000000 -268123914240.00000000 -136057470976.00000000
P       -1.91403958      -1.16474588       0.43269938 4879192064.00000000 -12976050176.00000000 42148974592.00000000
O        1.93162438       1.42129059       2.77933357 47537549312.00000000 161937555456.00000000 19196919808.00000000
O        2.93565681       3.43058764       1.39285405 -32789827584.00000000 14428156928.00000000 8611827712.00000000
O        2.02605027       2.11516737       2.81939805 179923189760.00000000 -349476782080.00000000 5602041856.00000000
O        3.19093664       4.74134788       2.38287814 -28731312128.00000000 -13304031232.00000000 -14543648768.00000000
O        2.76646249       4.87274864       0.57737555 -15992749056.00000000 -24972472320.00000000 19925491712.00000000
O        1.97512359       1.98679961       2.73792015 44776722432.00000000 -61221257216.00000000 287988842496.00000000
