9
Lattice="5.560650099582743 6.12274783779674e-08 3.210442630973463 1.8535499515401508 5.242630815926137 3.2104428723866167 -1.4558029138963103e-07 1.9272863043855272e-07 6.420885514099426" Properties=species:S:1:pos:R:3:forces:R:3 energy=-40.61638259887695 free_energy=-40.61638259887695 stress="4.587124931276776e-05 -6.62412014129643e-10 1.5690028831727432e-08 -6.62412014129643e-10 4.5821343519492075e-05 4.522135554907436e-08 1.5690028831727432e-08 4.522135554907436e-08 4.587970033753663e-05" pbc="T T T"
Mo       1.85355135       1.31065808       3.21044271       0.00001176       0.00000764      -0.00000098
Mo       5.56064972       3.93197253       9.63132977      -0.00000031      -0.00000712       0.00001061
P       -0.00000002       0.00000054      -0.00000009       0.00000162      -0.00000215      -0.00000633
Se       1.88593307       1.33355662       6.42088501      -0.00058216      -0.00040993      -0.00000371
Se       5.52826698       3.90907478       6.42088528       0.00057697       0.00041318      -0.00000175
Se       4.61768365       1.33355661       4.84370811       0.00028640      -0.00040403      -0.00050375
Se       2.79651609       3.90907415       7.99806299      -0.00029278       0.00040898       0.00050256
Se       2.79651622       3.90907477       4.84370823      -0.00028697       0.00040710      -0.00049993
Se       4.61768256       1.33355601       7.99806216       0.00028542      -0.00041389       0.00050277
