9
Lattice="5.473912411356807 1.4477413026709934e-08 3.160364820985657 1.8246374870506927 5.1608542278635285 3.1603648158778577 7.579247568512726e-09 -8.964105128094185e-10 6.320729628843656" Properties=species:S:1:pos:R:3:forces:R:3 energy=-40.758819580078125 free_energy=-40.758819580078125 stress="2.0615212633856572e-05 1.1519276199578599e-08 1.743117117314341e-08 1.1519276199578599e-08 2.061446321022231e-05 -6.762233439872034e-09 1.743117117314341e-08 -6.762233439872034e-09 2.063985994027462e-05" pbc="T T T"
Mo       1.82463706       1.29021456       3.16036447      -0.00000341       0.00000559      -0.00000252
Mo       5.47391213       3.87064105       9.48109553      -0.00000077       0.00000262       0.00000409
Pd       0.00000013       0.00000009      -0.00000021      -0.00000175      -0.00000240       0.00000158
Se       2.02404952       1.43121863       6.32072985      -0.00041029      -0.00029057       0.00000210
Se       5.27450078       3.72963490       6.32072903       0.00041106       0.00028810      -0.00000063
Se       4.46188806       1.43121910       4.91324273       0.00020893      -0.00029096      -0.00035629
Se       2.83666212       3.72963515       7.72821646      -0.00020497       0.00028771       0.00035512
Se       2.83666203       3.72963500       4.91324269      -0.00020504       0.00029027      -0.00035655
Se       4.46188785       1.43121853       7.72821653       0.00020607      -0.00029042       0.00035268
