9
Lattice="4.61392993428847 7.027935477226213e-07 2.663854745334023 1.5379772957760784 4.350055717280569 2.6638547654038183 -2.194033417893888e-06 -1.5268366154777703e-06 5.327713290847113" Properties=species:S:1:pos:R:3:forces:R:3 energy=-50.17133712768555 free_energy=-50.17133712768555 stress="0.00014182052109390497 -3.8618119901911996e-07 2.586410573712783e-06 -3.8618119901911996e-07 0.00014173724048305303 1.788898430277186e-06 2.586410573712783e-06 1.788898430277186e-06 0.00014074242790229619" pbc="T T T"
Mo       1.53798446       1.08749221       2.66394611       0.00013043      -0.00032103       0.00121526
Mo       4.61396238       3.26253606       7.99150172       0.00045206      -0.00008419      -0.00093971
Pd      -0.00000340       0.00000013      -0.00000578       0.00000156       0.00001071       0.00002025
O        1.56985497       1.11007830       5.32764339      -0.00194520      -0.00108719      -0.00086521
O        4.58203044       3.23999389       5.32778015       0.00175810       0.00135630       0.00070767
O        3.82900083       1.11005367       4.02341345       0.00081253      -0.00139168      -0.00147113
O        2.32290042       3.24000570       6.63199741      -0.00106339       0.00156119       0.00130042
O        2.32291641       3.23999022       4.02339189      -0.00094256       0.00120640      -0.00161830
O        3.82897375       1.11006996       6.63202571       0.00079641      -0.00125021       0.00165090
