9
Lattice="5.260801770747553 2.1355350813496336e-08 3.0373254015424527 1.7536006041003378 4.9599314472125915 3.0373254124246625 -3.078059514318065e-08 -8.437244129582328e-09 6.074650856398456" Properties=species:S:1:pos:R:3:forces:R:3 energy=-44.861289978027344 free_energy=-44.861289978027344 stress="5.268692257232033e-05 -2.1947331063643105e-08 -1.4040012208393904e-10 -2.1947331063643105e-08 5.281215635477565e-05 -6.392599338767013e-09 -1.4040012208393904e-10 -6.392599338767013e-09 5.275366493151523e-05" pbc="T T T"
Mo       1.75360077       1.23998279       3.03732535      -0.00000051      -0.00000106      -0.00000122
Mo       5.26080182       3.71994881       9.11197625      -0.00000047       0.00000096       0.00000208
Pd       0.00000003      -0.00000003      -0.00000004      -0.00000035       0.00000053      -0.00000352
S        1.88569146       1.33338529       6.07465082      -0.00032032      -0.00022686      -0.00000039
S        5.12871078       3.62654608       6.07465077       0.00032246       0.00022656      -0.00000150
S        4.31795584       1.33338519       4.67038221       0.00016075      -0.00022632      -0.00027847
S        2.69644639       3.62654615       7.47891955      -0.00016153       0.00022775       0.00028127
S        2.69644627       3.62654631       4.67038232      -0.00016117       0.00022715      -0.00027829
S        4.31795600       1.33338524       7.47891947       0.00016129      -0.00022870       0.00027865
