9
Lattice="4.576279310639738 7.631174028713972e-08 2.642116108463447 1.5254264713962253 4.314557763496064 2.642116173295988 6.880293711440738e-08 1.2805432964313567e-07 5.2842320977567105" Properties=species:S:1:pos:R:3:forces:R:3 energy=-53.127960205078125 free_energy=-53.127960205078125 stress="0.00011357908078934997 -5.186365470422061e-08 -3.9163360554539395e-08 -5.186365470422061e-08 0.00011333364818710834 -4.484481763711301e-08 -3.9163360554539395e-08 -4.484481763711301e-08 0.00011348716361681" pbc="T T T"
Mo       1.52542701       1.07864178       2.64211656       0.00000941       0.00003368       0.00000626
Mo       4.57628155       3.23591761       7.92634961       0.00003361      -0.00001191       0.00002034
Rh      -0.00000004      -0.00000042      -0.00000021      -0.00000113       0.00001907       0.00001043
O        1.56334196       1.10545072       5.28423145       0.00006396       0.00005829      -0.00000919
O        4.53836341       3.20910765       5.28423314      -0.00008005      -0.00006109       0.00000273
O        3.79460821       1.10545150       3.99600936      -0.00003308       0.00006220       0.00004581
O        2.30709604       3.20910647       6.57245431       0.00001854      -0.00007775      -0.00007010
O        2.30709731       3.20910747       3.99601036       0.00002724      -0.00006175       0.00006562
O        3.79460804       1.10544895       6.57245293      -0.00003904       0.00003934      -0.00007266
