9
Lattice="5.29671270932263 -1.1312457407709217e-07 3.0580585538217133 1.7655708260692107 4.9937885850381925 3.0580585025243523 3.958084764589093e-08 -3.483827574623902e-08 6.116117039087377" Properties=species:S:1:pos:R:3:forces:R:3 energy=-53.48649215698242 free_energy=-53.48649215698242 stress="0.0002014065394178033 -1.0337646294544811e-09 6.427356424865138e-09 -1.0337646294544811e-09 0.00020139527623541653 -2.0854447058127334e-08 6.427356424865138e-09 -2.0854447058127334e-08 0.00020146027964074165" pbc="T T T"
Mo       1.76557113       1.24844776       3.05805817       0.00000104       0.00000171      -0.00000050
Mo       5.29671264       3.74534116       9.17417676       0.00000041      -0.00000031       0.00000708
Re       0.00000003       0.00000010       0.00000019      -0.00000110      -0.00000143      -0.00000358
S        1.89992155       1.34344718       6.11611704      -0.00288188      -0.00203657      -0.00000239
S        5.16236215       3.65034123       6.11611684       0.00288033       0.00203633      -0.00000279
S        4.34675210       1.34344713       4.70343857       0.00143981      -0.00203365      -0.00249553
S        2.71553160       3.65034079       7.52879524      -0.00144297       0.00203842       0.00249624
S        2.71553160       3.65034135       4.70343873      -0.00143862       0.00203621      -0.00249547
S        4.34675153       1.34344706       7.52879487       0.00144255      -0.00204104       0.00249642
