9
Lattice="5.1943108261004545 6.512171403773834e-08 2.9989368291374423 1.7314369825739417 4.897243401737201 2.9989368652626167 5.1848355961561276e-09 4.791035791194181e-08 5.997873649294476" Properties=species:S:1:pos:R:3:forces:R:3 energy=-49.91278076171875 free_energy=-49.91278076171875 stress="-3.6073448427487165e-05 -8.490275149597437e-09 -4.725228208712906e-09 -8.490275149597437e-09 -3.6130462831351906e-05 2.024568779290803e-08 -4.725228208712906e-09 2.024568779290803e-08 -3.6089899367652833e-05" pbc="T T T"
Mo       1.73143686       1.22431072       2.99893675      -0.00000217      -0.00000030      -0.00000194
Mo       5.19431120       3.67293258       8.99681066       0.00000143      -0.00000058       0.00000134
Ru       0.00000006       0.00000005      -0.00000022      -0.00000032      -0.00000017      -0.00000024
S        1.86743014       1.32047284       5.99787370      -0.00127554      -0.00090218      -0.00000009
S        5.05831747       3.57677089       5.99787375       0.00127614       0.00090283       0.00000001
S        4.26059573       1.32047271       4.61617878       0.00063777      -0.00090325      -0.00110567
S        2.66515199       3.57677084       7.37956847      -0.00063860       0.00090307       0.00110644
S        2.66515214       3.57677094       4.61617909      -0.00063646       0.00090265      -0.00110418
S        4.26059572       1.32047255       7.37956842       0.00063753      -0.00090289       0.00110388
