9
Lattice="5.465891853885961 1.376082033808868e-07 3.155734030556764 1.8219639709747777 5.153291981392942 3.1557342211840704 -2.3016399095187396e-08 2.1719480443527245e-07 6.31146810097902" Properties=species:S:1:pos:R:3:forces:R:3 energy=-44.68640899658203 free_energy=-44.68640899658203 stress="-0.00023717174190096557 2.929970932541437e-09 2.0678539769392046e-08 2.929970932541437e-09 -0.00023713393602520227 -5.1190589545058174e-08 2.0678539769392046e-08 -5.1190589545058174e-08 -0.0002371403679717332" pbc="T T T"
Mo       1.82196305       1.28832530       3.15573266      -0.00000462       0.00001433      -0.00001231
Mo       5.46588951       3.86496898       9.46720546      -0.00001768      -0.00000360       0.00002055
Ru      -0.00000042      -0.00000091       0.00000031       0.00000024      -0.00000244      -0.00000228
Se       1.98282899       1.40207084       6.31146756       0.00520271       0.00367373      -0.00000143
Se       5.30502708       3.75121982       6.31146660      -0.00518858      -0.00367498      -0.00000350
Se       4.47447918       1.40207275       4.87291313      -0.00259638       0.00368088       0.00450057
Se       2.81337841       3.75121899       7.75002335       0.00259888      -0.00368381      -0.00450003
Se       2.81338031       3.75122131       4.87291419       0.00260249      -0.00367445       0.00449854
Se       4.47447717       1.40207215       7.75002227      -0.00259671       0.00367087      -0.00450027
