9
Lattice="4.631253472862393 2.1374714436504883e-08 2.6738552034076273 1.5437511328588314 4.366387435822632 2.673855281201336 -8.458335283425052e-08 3.546799336350311e-08 5.347710553317845" Properties=species:S:1:pos:R:3:forces:R:3 energy=-56.765838623046875 free_energy=-56.765838623046875 stress="0.00032147104502655566 2.2344934791362903e-08 -4.7047755913354194e-08 2.2344934791362903e-08 0.00032174040097743273 3.2397416305229854e-08 -4.7047755913354194e-08 3.2397416305229854e-08 0.00032156266388483346" pbc="T T T"
Mo       1.54375070       1.09159125       2.67384469      -0.00001027      -0.00007506      -0.00015785
Mo       4.63125103       3.27479141       8.02155527      -0.00003088       0.00000339      -0.00015367
Ru      -0.00000014       0.00000006      -0.00000007       0.00000071      -0.00000290      -0.00001409
O        1.53738275       1.08709430       5.34771150       0.00002730       0.00001946       0.00003477
O        4.63762115       3.27929519       5.34771882      -0.00003242       0.00000557       0.00010468
O        3.86256626       1.08709314       4.00527244       0.00003228       0.00000435       0.00007650
O        2.31244243       3.27929333       6.69015493       0.00002173      -0.00001723       0.00001448
O        2.31244586       3.27929737       4.00526999       0.00004062       0.00003055       0.00006014
O        3.86255798       1.08709403       6.69015673      -0.00004950       0.00003198       0.00003487
