9
Lattice="4.725018940791281 -9.685984938621139e-08 2.727990972060724 1.5750062539177028 4.454790299190406 2.7279909172569634 8.358891240918282e-08 -8.014332559771866e-09 5.455981799341201" Properties=species:S:1:pos:R:3:forces:R:3 energy=-62.47860336303711 free_energy=-62.47860336303711 stress="4.711328529083403e-06 -3.985700658404312e-08 6.07053465273566e-08 -3.985700658404312e-08 4.699611508840462e-06 -3.357232003509125e-08 6.07053465273566e-08 -3.357232003509125e-08 4.7447861106775235e-06" pbc="T T T"
Mo       1.57501022       1.11369710       2.72800420       0.00004175      -0.00000790       0.00015001
Mo       4.72501924       3.34109184       8.18398105       0.00001274      -0.00000924       0.00010977
Re      -0.00000007      -0.00000013      -0.00000080       0.00000098       0.00000642      -0.00000165
O        1.54010166       1.08901749       5.45597866      -0.00005955      -0.00002858      -0.00004768
O        4.75992204       3.36577437       5.45597644       0.00003803       0.00003925      -0.00005739
O        3.95496449       1.08901626       4.06175553      -0.00000748      -0.00003064      -0.00008309
O        2.34505749       3.36577519       6.85020204      -0.00002781       0.00005043       0.00000215
O        2.34505715       3.36577143       4.06175552      -0.00003251       0.00001675      -0.00008631
O        3.95496897       1.08901707       6.85020247       0.00003377      -0.00003710       0.00001353
