9
Lattice="5.4680089492592 -6.724006363686781e-08 3.1569563374027316 1.8226696083427223 5.155288067940325 3.1569562993249805 -6.175804089317776e-08 -9.030506408977496e-08 6.313912781773509" Properties=species:S:1:pos:R:3:forces:R:3 energy=-43.36991882324219 free_energy=-43.36991882324219 stress="1.9139924916089512e-06 3.003504289722514e-08 5.293175342480083e-10 3.003504289722514e-08 1.8264689742863993e-06 -1.76860581735383e-09 5.293175342480083e-10 -1.76860581735383e-09 1.865971398729016e-06" pbc="T T T"
Mo       1.82266943       1.28882066       3.15695788       0.00000163      -0.00000676       0.00000989
Mo       5.46800948       3.86646589       9.47086770       0.00000385      -0.00000038      -0.00000643
Rh       0.00000033       0.00000004      -0.00000069      -0.00000145       0.00000072       0.00000330
Se       1.99911016       1.41358471       6.31391263      -0.00064588      -0.00045437      -0.00000113
Se       5.29156797       3.74170391       6.31391337       0.00064236       0.00045583       0.00000121
Se       4.46845310       1.41358377       4.88823665       0.00032032      -0.00045636      -0.00055611
Se       2.82222488       3.74170470       7.73958887      -0.00031871       0.00045547       0.00055209
Se       2.82222419       3.74170358       4.88823657      -0.00032377       0.00045571      -0.00055623
Se       4.46845428       1.41358440       7.73958865       0.00032181      -0.00044981       0.00055340
