9
Lattice="5.733388223927033 -1.5189908332875256e-07 3.3101729149204098 1.9111295197262066 5.4054898621268155 3.3101724733126527 3.8890655290359754e-07 -2.6585830279707834e-07 6.6203451562348175" Properties=species:S:1:pos:R:3:forces:R:3 energy=-47.839752197265625 free_energy=-47.839752197265625 stress="-0.00033223803620785475 -2.0371098585769687e-08 2.3614191491105885e-08 -2.0371098585769687e-08 -0.0003323839046061039 -1.9088987812665437e-07 2.3614191491105885e-08 -1.9088987812665437e-07 -0.0003321373660583049" pbc="T T T"
Mo       1.91112827       1.35137836       3.31017328      -0.00000674       0.00005604       0.00000771
Mo       5.73338680       4.05411612       9.93052281      -0.00001679      -0.00000980       0.00004313
Re       0.00000045      -0.00000178      -0.00000037      -0.00000225       0.00001701       0.00000120
Se       2.00959480       1.42099692       6.62034480       0.00214589       0.00151059      -0.00000430
Se       5.63492526       3.98449028       6.62034360      -0.00213945      -0.00154212      -0.00001997
Se       4.72859168       1.42099844       5.05053000      -0.00106907       0.00153038       0.00185049
Se       2.91592632       3.98449061       8.19015886       0.00107205      -0.00153857      -0.00186419
Se       2.91592729       3.98449098       5.05053141       0.00107884      -0.00152701       0.00184268
Se       4.72859174       1.42099768       8.19015794      -0.00106236       0.00150356      -0.00185603
