9
Lattice="4.543211834758242 2.76145427803384e-08 2.6230246447729746 1.514403965963138 4.283381416801235 2.6230246534185446 2.7484791430628378e-08 3.0023274657157944e-08 5.246049241940885" Properties=species:S:1:pos:R:3:forces:R:3 energy=-52.29838562011719 free_energy=-52.29838562011719 stress="0.00016550133295822889 -6.384119899394136e-08 -4.6697692823727266e-08 -6.384119899394136e-08 0.0001653827930567786 3.5970655343220415e-09 -4.6697692823727266e-08 3.5970655343220415e-09 0.0001654784573474899" pbc="T T T"
Mo       1.51440394       1.07084510       2.62302312       0.00000220      -0.00000271      -0.00001112
Mo       4.54321269       3.21253515       7.86907278       0.00000667      -0.00000767      -0.00001172
Se      -0.00000009       0.00000006       0.00000028       0.00000138      -0.00000185      -0.00000535
O        1.47176476       1.04069411       5.24605008       0.00282669       0.00199759       0.00001126
O        4.58585078       3.24268767       5.24604933      -0.00282967      -0.00199389       0.00000164
O        3.80732986       1.04069526       3.89761000      -0.00140953       0.00200391       0.00245047
O        2.25028604       3.24268659       6.59448888       0.00140643      -0.00200146      -0.00244224
O        2.25028487       3.24268652       3.89761087       0.00140291      -0.00199533       0.00245136
O        3.80733035       1.04069534       6.59448869      -0.00140709       0.00200087      -0.00244427
