9
Lattice="4.267486648795242 -1.9772567575276564e-07 2.4638346528619155 1.422495402603912 4.023424244171439 2.4638345845791143 8.921544071336762e-08 -2.054420706219329e-08 4.927669151198136" Properties=species:S:1:pos:R:3:forces:R:3 energy=-60.416351318359375 free_energy=-60.416351318359375 stress="-1.7758533203959814e-06 4.0938708423254866e-08 -5.234171140955368e-08 4.0938708423254866e-08 -1.7224006114702206e-06 1.0376304260262259e-07 -5.234171140955368e-08 1.0376304260262259e-07 -1.4617749002354685e-06" pbc="T T T"
Mo       1.42249644       1.00585623       2.46383804       0.00000640       0.00000998       0.00004489
Mo       4.26748614       3.01757110       7.39150701       0.00000176       0.00004393       0.00004778
Si       0.00000027       0.00000017      -0.00000074      -0.00000861      -0.00000741       0.00000527
O        1.41575872       1.00109036       4.92766762      -0.00169182      -0.00122976      -0.00002412
O        4.27422419       3.02233298       4.92766776       0.00168490       0.00120854      -0.00001917
O        3.55960824       1.00109194       3.68991568       0.00083894      -0.00119388      -0.00149167
O        2.13037395       3.02233168       6.16542160      -0.00084239       0.00119340       0.00146031
O        2.13037225       3.02233218       3.68991588      -0.00084269       0.00118613      -0.00147116
O        3.55960825       1.00108960       6.16542015       0.00085449      -0.00121093       0.00144720
