9
Lattice="4.2487155335224775 -2.9552970649788223e-08 2.452997061986975 1.4162384854298726 4.005727462547329 2.4529970583175773 -1.0130670937923697e-08 -1.165753619369235e-08 4.905994141520759" Properties=species:S:1:pos:R:3:forces:R:3 energy=-56.25593566894531 free_energy=-56.25593566894531 stress="-0.0007544498657807708 -4.9516327038645613e-08 6.070391833645772e-08 -4.9516327038645613e-08 -0.0007546842680312693 1.998578724737854e-08 6.070391833645772e-08 1.998578724737854e-08 -0.0007544722757302225" pbc="T T T"
Mo       1.41623853       1.00143191       2.45299646       0.00000067       0.00000177      -0.00000820
Mo       4.24871540       3.00429576       7.35899076      -0.00000061       0.00000358      -0.00000581
S       -0.00000004      -0.00000017       0.00000020       0.00000397       0.00000754       0.00000901
O        1.35860902       0.96068163       4.90599431       0.00396061       0.00279856       0.00000248
O        4.30634498       3.04504580       4.90599417      -0.00396228      -0.00280488      -0.00000094
O        3.56941109       0.96068124       3.62958709      -0.00198311       0.00280106       0.00343668
O        2.09554309       3.04504587       6.18240166       0.00198168      -0.00280321      -0.00343573
O        2.09554289       3.04504595       3.62958694       0.00198126      -0.00280452       0.00343561
O        3.56941103       0.96068164       6.18240149      -0.00198162       0.00280106      -0.00343347
