9
Lattice="5.523803600524643 4.386918998163108e-08 3.18916945483657 1.8412679445969646 5.207891936696337 3.1891693917983153 8.809203796085736e-08 -1.4915292620688865e-08 6.378338757093283" Properties=species:S:1:pos:R:3:forces:R:3 energy=-40.909149169921875 free_energy=-40.909149169921875 stress="0.00032055488554760814 -4.073296011597449e-08 -2.3444570729225234e-08 -4.073296011597449e-08 0.0003205056709703058 -3.247254198868177e-08 -2.3444570729225234e-08 -3.247254198868177e-08 0.00032057336647994816" pbc="T T T"
Mo       1.84126790       1.30197283       3.18916935       0.00000223      -0.00000111      -0.00000053
Mo       5.52380366       3.90591884       9.56750860      -0.00000047      -0.00000275       0.00000196
Si      -0.00000006       0.00000003       0.00000013      -0.00000026       0.00000070      -0.00000380
Se       1.89238043       1.33811491       6.37833888      -0.00411572      -0.00290888       0.00000077
Se       5.47269134       3.86977714       6.37833879       0.00411402       0.00290996      -0.00000155
Se       4.57761345       1.33811499       4.82801845       0.00205665      -0.00290765      -0.00356194
Se       2.78745806       3.86977722       7.92865875      -0.00205808       0.00291044       0.00356235
Se       2.78745826       3.86977692       4.82801869      -0.00205565       0.00290904      -0.00356179
Se       4.57761350       1.33811500       7.92865882       0.00205753      -0.00290996       0.00356498
