9
Lattice="5.2256170952048135 -9.57742439890422e-09 3.0170115745138455 1.7418723445398114 4.926759123795041 3.017011594430387 -6.84923548463861e-08 -2.4038718982470952e-08 6.034023267659906" Properties=species:S:1:pos:R:3:forces:R:3 energy=-45.817527770996094 free_energy=-45.817527770996094 stress="5.184013571124524e-05 -2.4262099884708732e-08 -5.7235922668041894e-09 -2.4262099884708732e-08 5.18113884027116e-05 4.724539426348429e-09 -5.7235922668041894e-09 4.724539426348429e-09 5.176705963094719e-05" pbc="T T T"
Mo       1.74187199       1.23168991       3.01701251      -0.00000115       0.00000219       0.00000638
Mo       5.22561673       3.69507074       9.05103614      -0.00000101       0.00000628       0.00000477
Si       0.00000027      -0.00000016      -0.00000025       0.00000077       0.00000209       0.00000226
S        1.78143109       1.25966128       6.03402296       0.00000608      -0.00000206      -0.00000145
S        5.18605910       3.66709778       6.03402244      -0.00001192      -0.00000626      -0.00000527
S        4.33490138       1.25966136       4.55977525      -0.00000188       0.00000376       0.00000477
S        2.63258764       3.66709707       7.50827088       0.00000635      -0.00000486      -0.00000912
S        2.63258724       3.66709684       4.55977515       0.00000232      -0.00000605       0.00000644
S        4.33490199       1.25966151       7.50827038       0.00000024       0.00000489      -0.00000918
