9
Lattice="4.37911769793944 -1.2674371411211864e-07 2.528285182237889 1.4597059286994836 4.128671540094442 2.528284924367646 1.361067886369088e-07 -2.1958321084886715e-07 5.056570128731899" Properties=species:S:1:pos:R:3:forces:R:3 energy=-60.73748016357422 free_energy=-60.73748016357422 stress="-0.0003050495870411396 -6.101435587879678e-07 2.6561031063465634e-07 -6.101435587879678e-07 -0.0003044783661607653 -3.4768358858627835e-08 2.6561031063465634e-07 -3.4768358858627835e-08 -0.00030502513982355595" pbc="T T T"
Mo       1.45970498       1.03216720       2.52829192      -0.00000864       0.00000463       0.00009050
Mo       4.37912108       3.09650881       7.58485954       0.00004344       0.00007191       0.00006427
Ti       0.00000039      -0.00000080       0.00000085      -0.00001055       0.00001632      -0.00004112
O        1.51879100       1.07394922       5.05656700      -0.00732160      -0.00515372      -0.00005004
O        4.32003239       3.05472166       5.05656806       0.00730854       0.00513947      -0.00003027
O        3.61971824       1.07394629       3.84359758       0.00362021      -0.00519150      -0.00636160
O        2.21910319       3.05472194       6.26954131      -0.00366351       0.00519246       0.00632882
O        2.21910311       3.05472443       3.84359789      -0.00364694       0.00516933      -0.00632590
O        3.61972049       1.07394564       6.26953726       0.00367856      -0.00524807       0.00632644
