9
Lattice="5.157903138706962 -1.5157576532510583e-07 2.977916827178955 1.719300946077985 4.862917402035662 2.97791675313499 -1.0843652067995511e-08 -9.835260682587868e-08 5.955833673139646" Properties=species:S:1:pos:R:3:forces:R:3 energy=-50.796966552734375 free_energy=-50.796966552734375 stress="-1.3300847058417276e-05 -7.347264130430631e-08 -9.385083821200624e-09 -7.347264130430631e-08 -1.3248742106952704e-05 -1.375110070256369e-08 -9.385083821200624e-09 -1.375110070256369e-08 -1.320634146395605e-05" pbc="T T T"
Mo       1.71930159       1.21572873       2.97791669       0.00000329      -0.00000283      -0.00000119
Mo       5.15790318       3.64718745       8.93374977      -0.00000023      -0.00000215      -0.00000180
Ti      -0.00000055       0.00000024       0.00000059       0.00000327       0.00000133       0.00000164
S        1.85147164       1.30918815       5.95583346      -0.00018030      -0.00012776       0.00000275
S        5.02573225       3.55372922       5.95583355       0.00017780       0.00012875       0.00000006
S        4.23216695       1.30918837       4.58133869       0.00009155      -0.00013089      -0.00016034
S        2.64503686       3.55372901       7.33032889      -0.00009158       0.00012797       0.00016052
S        2.64503686       3.55372898       4.58133870      -0.00009447       0.00013229      -0.00015959
S        4.23216751       1.30918837       7.33032862       0.00009060      -0.00012669       0.00015795
