9
Lattice="5.397026649780642 -1.7890284510978885e-07 3.115974870393258 1.7990087835169022 5.088365667159222 3.115974751006644 6.285913388394952e-08 -1.0177004462862568e-07 6.231949631911315" Properties=species:S:1:pos:R:3:forces:R:3 energy=-45.361019134521484 free_energy=-45.361019134521484 stress="2.068886715278495e-05 -1.0158719698782903e-10 3.403217263553415e-08 -1.0158719698782903e-10 2.0678984583355486e-05 -3.157342121085094e-08 3.403217263553415e-08 -3.157342121085094e-08 2.0723684428958222e-05" pbc="T T T"
Mo       1.79900967       1.27209136       3.11597587       0.00000629      -0.00000113       0.00000602
Mo       5.39702689       3.81627255       9.34792406       0.00000254      -0.00000960       0.00000040
V        0.00000014      -0.00000052      -0.00000067      -0.00000411       0.00000973      -0.00000161
Se       1.95626144       1.38328571       6.23194978      -0.00441921      -0.00311822      -0.00000199
Se       5.23977421       3.70507997       6.23194990       0.00441188       0.00312153      -0.00000026
Se       4.41889521       1.38328628       4.81014650       0.00220674      -0.00312066      -0.00383139
Se       2.77713976       3.70508002       7.65375295      -0.00220650       0.00311941       0.00382084
Se       2.77713886       3.70508035       4.81014673      -0.00221014       0.00312322      -0.00382048
Se       4.41889593       1.38328584       7.65375191       0.00221199      -0.00312474       0.00382853
