9
Lattice="4.504356660136558 -1.9723731363713154e-07 2.600591393943862 1.501452139423399 4.246748207014348 2.6005912114983345 -5.7257901969828796e-08 -2.6393671701468207e-07 5.201182887061378" Properties=species:S:1:pos:R:3:forces:R:3 energy=-58.328285217285156 free_energy=-58.328285217285156 stress="0.0004098657809663564 1.0350657220214998e-07 -8.53537596157139e-09 1.0350657220214998e-07 0.0004098092031199485 -3.002674020535778e-08 -8.53537596157139e-09 -3.002674020535778e-08 0.00040973222348839045" pbc="T T T"
Mo       1.50145196       1.06168484       2.60058981      -0.00000504      -0.00003030      -0.00002613
Mo       4.50435449       3.18506143       7.80177153      -0.00002775       0.00000696      -0.00003747
V        0.00000053      -0.00000000      -0.00000039      -0.00000613       0.00000377       0.00001631
O        1.50082714       1.06124630       5.20118288      -0.00192881      -0.00135273       0.00000922
O        4.50498151       3.18550237       5.20118323       0.00193346       0.00135911       0.00001341
O        3.75394280       1.06124407       3.90034787       0.00096798      -0.00137645      -0.00166023
O        2.25186778       3.18550357       6.50201981      -0.00093770       0.00136834       0.00167000
O        2.25186723       3.18550346       3.90034655      -0.00094542       0.00137770      -0.00166559
O        3.75394166       1.06124497       6.50202019       0.00094938      -0.00135648       0.00167960
