9
Lattice="5.144629944191536 -1.5355228273941117e-08 2.970253444446895 1.7148766465846532 4.850403590845057 2.970253421933909 2.212594018475515e-08 -1.192722647886766e-08 5.940506850570511" Properties=species:S:1:pos:R:3:forces:R:3 energy=-50.69955825805664 free_energy=-50.69955825805664 stress="-7.910982094472274e-05 3.3328461768178386e-08 -7.204345564559844e-08 3.3328461768178386e-08 -7.910817657830194e-05 5.306928940740363e-08 -7.204345564559844e-08 5.306928940740363e-08 -7.916666800156236e-05" pbc="T T T"
Mo       1.71487647       1.21260163       2.97025386      -0.00000011       0.00000527       0.00000466
Mo       5.14463015       3.63780286       8.91075953       0.00000091       0.00000082      -0.00000285
V       -0.00000012       0.00000039      -0.00000023      -0.00000033      -0.00000480      -0.00000545
S        1.84367073       1.30367196       5.94050666      -0.00341713      -0.00241703      -0.00000235
S        5.01583598       3.54673123       5.94050725       0.00342077       0.00241631       0.00000102
S        4.22279447       1.30367189       4.56691923       0.00170872      -0.00241572      -0.00295866
S        2.63671215       3.54673107       7.31409472      -0.00171354       0.00241959       0.00296605
S        2.63671191       3.54673136       4.56691902      -0.00170624       0.00241280      -0.00295830
S        4.22279477       1.30367176       7.31409483       0.00170687      -0.00241750       0.00295699
