9
Lattice="6.787737225967357 6.010160784166532e-08 3.9189019270686876 2.2625791612095787 6.39953997420362 3.9189018764532197 5.461033211425654e-08 -2.3375593456558468e-08 7.837803759549484" Properties=species:S:1:pos:R:3:forces:R:3 energy=-27.508298873901367 free_energy=-27.508298873901367 stress="7.736085535725579e-05 1.42467015962211e-08 -4.230392036674857e-09 1.42467015962211e-08 7.735590770607814e-05 1.144463457336542e-08 -4.230392036674857e-09 1.144463457336542e-08 7.736036786809564e-05" pbc="T T T"
Na       2.26257881       1.59988437       3.91890180      -0.00000034      -0.00000065       0.00000012
Na       6.78773722       4.79965556      11.75670590      -0.00000004       0.00000024       0.00000052
Cr      -0.00000033      -0.00000010       0.00000031       0.00000330       0.00000010      -0.00000297
I        2.19641478       1.55309958       7.83780381      -0.00373072      -0.00263845       0.00000009
I        6.85390165       4.84644062       7.83780361       0.00373000       0.00263682      -0.00000009
I        5.68953020       1.55309944       5.82105250       0.00186388      -0.00263609      -0.00322887
I        3.36078652       4.84644059       9.85455461      -0.00186556       0.00263805       0.00323150
I        3.36078662       4.84644073       5.82105258      -0.00186412       0.00263632      -0.00322984
I        5.68953030       1.55309938       9.85455510       0.00186360      -0.00263644       0.00322950
