9
Lattice="4.363608207560185 -2.6173597473826907e-07 2.519330720882969 1.454535765107919 4.114049866470723 2.5193308201498708 -4.0922681128371733e-07 -1.677904520032242e-07 5.038662150567593" Properties=species:S:1:pos:R:3:forces:R:3 energy=-39.06455612182617 free_energy=-39.06455612182617 stress="-0.00016695867816451937 6.809415253883344e-08 -5.440998407379993e-08 6.809415253883344e-08 -0.00016627459262963384 -1.2132369420214673e-07 -5.440998407379993e-08 -1.2132369420214673e-07 -0.00016578387294430286" pbc="T T T"
Na       1.45453584       1.02851225       2.51933099      -0.00000028      -0.00000006       0.00000045
Na       4.36360754       3.08553717       7.55799289      -0.00000001      -0.00000038      -0.00000040
C       -0.00000074      -0.00000033       0.00000046      -0.00000287      -0.00000657       0.00000137
F        1.28629615       0.90954863       5.03866217       0.00135040       0.00094765       0.00000055
F        4.53184931       3.20450101       5.03866194      -0.00136507      -0.00094396      -0.00000400
F        3.72046079       0.90954848       3.63329656      -0.00067824       0.00095367       0.00115353
F        2.09768280       3.20450111       6.44402699       0.00068367      -0.00095022      -0.00116217
F        2.09768302       3.20450067       3.63329641       0.00068840      -0.00094742       0.00115895
F        3.72045953       0.90954913       6.44402666      -0.00067505       0.00094682      -0.00114924
