9
Lattice="5.833896325591346 -1.9563713491514476e-08 3.368201707293951 1.9446321909386353 5.500249539605197 3.3682015326116033 1.4449313244354126e-07 -1.1176940692127392e-07 6.736403164318458" Properties=species:S:1:pos:R:3:forces:R:3 energy=-29.103689193725586 free_energy=-29.103689193725586 stress="-1.82638850674266e-05 1.643629232717103e-08 1.8647758892598176e-08 1.643629232717103e-08 -1.8326118151890114e-05 4.7265595881640365e-09 1.8647758892598176e-08 4.7265595881640365e-09 -1.831197732826695e-05" pbc="T T T"
Na       1.94463148       1.37506213       3.36820176       0.00000011       0.00000030       0.00000019
Na       5.83389705       4.12518734      10.10460463      -0.00000020      -0.00000128       0.00000002
Co       0.00000002       0.00000034       0.00000035       0.00000235      -0.00000483      -0.00000332
Cl       1.83827833       1.29985941       6.73640358       0.00213212       0.00150549      -0.00000262
Cl       5.94024980       4.20039019       6.73640298      -0.00212821      -0.00150676       0.00000070
Cl       4.91475795       1.29985860       4.96019667      -0.00106783       0.00150812       0.00185165
Cl       2.86377266       4.20038993       8.51260906       0.00106066      -0.00150043      -0.00184372
Cl       2.86377161       4.20039026       4.96019745       0.00106356      -0.00150540       0.00184464
Cl       4.91475616       1.29985948       8.51260935      -0.00106260       0.00150464      -0.00184748
