9
Lattice="6.150889800786031 1.156730229590824e-07 3.551218348683357 2.050296844645711 5.799114790672972 3.5512181142915216 2.3265365025266017e-07 -1.225592410777482e-07 7.1024362943989985" Properties=species:S:1:pos:R:3:forces:R:3 energy=-23.06814956665039 free_energy=-23.06814956665039 stress="-3.8135622162371874e-05 -3.662999858988769e-08 9.346579510349784e-09 -3.662999858988769e-08 -3.8147954910527915e-05 -1.7752865844045118e-08 9.346579510349784e-09 -1.7752865844045118e-08 -3.8075952033977956e-05" pbc="T T T"
Na       2.05029678       1.44977872       3.55121821      -0.00000025      -0.00000032      -0.00000011
Na       6.15089033       4.34933593      10.65365441       0.00000039       0.00000044      -0.00000005
C        0.00000022      -0.00000077      -0.00000140       0.00000005      -0.00000062      -0.00000164
Br       1.93389101       1.36746666       7.10243698       0.00345013       0.00243998      -0.00000153
Br       6.26729642       4.43164786       7.10243662      -0.00344935      -0.00243908       0.00000037
Br       5.18394452       1.36746815       5.22601779      -0.00172482       0.00243732       0.00298396
Br       3.01724208       4.43164748       8.97885539       0.00172301      -0.00243589      -0.00298268
Br       3.01724230       4.43164743       5.22601795       0.00172287      -0.00243816       0.00298384
Br       5.18394433       1.36746783       8.97885471      -0.00172201       0.00243649      -0.00298181
