9
Lattice="6.62915240911547 1.962020375635947e-07 3.8273430004184283 2.209717683750991 6.250025205203587 3.82734295007671 7.265118376350656e-08 -1.0283584676298228e-08 7.654685875001198" Properties=species:S:1:pos:R:3:forces:R:3 energy=-23.190998077392578 free_energy=-23.190998077392578 stress="1.7538879546918906e-05 -8.38858582596913e-09 7.588957795512385e-10 -8.38858582596913e-09 1.7523803762742318e-05 -4.7377675116422324e-09 7.588957795512385e-10 -4.7377675116422324e-09 1.7536089217173867e-05" pbc="T T T"
Na       2.20971805       1.56250640       3.82734246      -0.00000024      -0.00000012       0.00000041
Na       6.62915233       4.68751917      11.48202904       0.00000012       0.00000008      -0.00000055
Co      -0.00000024       0.00000005       0.00000003       0.00000128      -0.00000007      -0.00000083
I        2.18715071       1.54654845       7.65468606       0.00012861       0.00009082       0.00000002
I        6.65171962       4.70347710       7.65468595      -0.00012851      -0.00009131      -0.00000007
I        5.53557697       1.54654892       5.72147041      -0.00006428       0.00009109       0.00011191
I        3.30329309       4.70347626       9.58790138       0.00006346      -0.00009030      -0.00011106
I        3.30329320       4.70347611       5.72147040       0.00006343      -0.00009051       0.00011119
I        5.53557690       1.54654910       9.58790153      -0.00006385       0.00009039      -0.00011098
