9
Lattice="6.587428033947234 -1.3696000415109296e-07 3.8032534183797178 2.1958093098094427 6.210686705350773 3.803253255069149 1.5150115868299908e-07 -9.28863497687283e-08 7.606506574351948" Properties=species:S:1:pos:R:3:forces:R:3 energy=-20.550979614257812 free_energy=-20.550979614257812 stress="-3.120014753221767e-06 5.929342794530612e-09 -3.3670406462960045e-09 5.929342794530612e-09 -3.1110657801036723e-06 1.201761246072408e-09 -3.3670406462960045e-09 1.201761246072408e-09 -3.1140575629251543e-06" pbc="T T T"
Na       2.19580996       1.55267197       3.80325349       0.00000017       0.00000008       0.00000054
Na       6.58742762       4.65801478      11.40975992       0.00000007      -0.00000005      -0.00000052
C        0.00000016      -0.00000081      -0.00000082      -0.00000015      -0.00000033       0.00000018
I        2.18490374       1.54496032       7.60650634      -0.00002593      -0.00001851      -0.00000008
I        6.59833377       4.66572640       7.60650705       0.00002635       0.00001875      -0.00000083
I        5.49497584       1.54496026       5.69543588       0.00001276      -0.00001708      -0.00002167
I        3.28826166       4.66572662       9.51757768      -0.00001305       0.00001797       0.00002286
I        3.28826119       4.66572640       5.69543569      -0.00001299       0.00001815      -0.00002247
I        5.49497605       1.54495998       9.51757762       0.00001281      -0.00001895       0.00002205
