9
Lattice="4.794264006501982 -1.0525034959494686e-07 2.7679701305018147 1.598087964851335 4.520076000907024 2.767970023261901 1.2004838018580445e-07 -4.645456954184677e-08 5.535940053073733" Properties=species:S:1:pos:R:3:forces:R:3 energy=-44.29695129394531 free_energy=-44.29695129394531 stress="5.0618924433365464e-05 8.916438787309744e-08 4.057347879893314e-08 8.916438787309744e-08 5.07972072227858e-05 -3.169236961753086e-08 4.057347879893314e-08 -3.169236961753086e-08 5.075912849861197e-05" pbc="T T T"
Na       1.59808862       1.13001977       2.76797020      -0.00000148       0.00000015      -0.00000005
Na       4.79426319       3.39005700       8.30391026       0.00000104       0.00000002      -0.00000005
Cr      -0.00000006      -0.00000016      -0.00000012       0.00000235       0.00000832       0.00000364
F        1.51614381       1.07207602       5.53594027      -0.00018819      -0.00013590       0.00000103
F        4.87620892       3.44799951       5.53594001       0.00018091       0.00013295      -0.00000041
F        4.03619261       1.07207533       4.08098969       0.00009329      -0.00013457      -0.00016600
F        2.35615904       3.44800038       6.99089090      -0.00008877       0.00012936       0.00015941
F        2.35615955       3.44799965       4.08098925      -0.00009073       0.00013274      -0.00016379
F        4.03619288       1.07207599       6.99089059       0.00009136      -0.00013332       0.00016594
