9
Lattice="6.193158388648094 2.8606568670992575e-08 3.5756216127717826 2.064386146456822 5.838965730145698 3.5756216302015345 -7.260988821353726e-09 1.6212686925424543e-08 7.151243238119991" Properties=species:S:1:pos:R:3:forces:R:3 energy=-31.260576248168945 free_energy=-31.260576248168945 stress="-0.00021682499209418893 1.3286607369877856e-08 -1.1316187986665227e-08 1.3286607369877856e-08 -0.00021685102547053248 3.2865588028840875e-09 -1.1316187986665227e-08 3.2865588028840875e-09 -0.00021687654952984303" pbc="T T T"
Na       2.06438611       1.45974142       3.57562163      -0.00000008      -0.00000010      -0.00000007
Na       6.19315841       4.37922435      10.72686485      -0.00000001       0.00000025       0.00000015
Cr      -0.00000021      -0.00000067      -0.00000093       0.00000072       0.00000992       0.00001811
Br       2.01242830       1.42300171       7.15124318      -0.00786186      -0.00555955       0.00000086
Br       6.24511674       4.41596439       7.15124319       0.00785586       0.00555450      -0.00000055
Br       5.18694422       1.42300177       5.31843567       0.00393370      -0.00556169      -0.00681055
Br       3.07059992       4.41596457       8.98405161      -0.00392577       0.00555127       0.00679774
Br       3.07060014       4.41596424       5.31843534      -0.00392956       0.00555883      -0.00680603
Br       5.18694447       1.42300134       8.98405137       0.00392697      -0.00555347       0.00680033
