9
Lattice="4.6790721481236766 2.295547813469818e-07 2.7014632901259796 1.5596909254467186 4.411471463554209 2.7014633022863244 2.141056857336677e-07 1.6628894827612198e-07 5.402926209410196" Properties=species:S:1:pos:R:3:forces:R:3 energy=-38.2325439453125 free_energy=-38.2325439453125 stress="0.0004129153967369348 -1.1354814866137986e-08 -5.2319073517992365e-08 -1.1354814866137986e-08 0.0004128444998059422 -3.647340429679957e-09 -5.2319073517992365e-08 -3.647340429679957e-09 0.0004127786378376186" pbc="T T T"
Na       1.55969002       1.10286850       2.70146265       0.00000161      -0.00000029      -0.00000042
Na       4.67907337       3.30860449       8.10438974      -0.00000086       0.00000031      -0.00000090
Co       0.00000131      -0.00000154      -0.00000296      -0.00002164       0.00002809       0.00006004
F        1.48702249       1.05148336       5.40292649      -0.00798267      -0.00564505       0.00000011
F        4.75174038       3.35998944       5.40292673       0.00798418       0.00564190      -0.00000175
F        3.93556073       1.05148422       3.98926302       0.00400601      -0.00566148      -0.00693384
F        2.30320183       3.35998847       6.81659175      -0.00398118       0.00562622       0.00689109
F        2.30320159       3.35998759       3.98926221      -0.00399384       0.00564778      -0.00691743
F        3.93556143       1.05148302       6.81659123       0.00398851      -0.00563771       0.00690350
