9
Lattice="4.769880711888664 -7.790347567929392e-08 2.7538917011912245 1.5899601048964036 4.497086760342012 2.7538918032985915 -2.0641275811030368e-07 -2.0900486114303362e-08 5.507783759900029" Properties=species:S:1:pos:R:3:forces:R:3 energy=-40.66727066040039 free_energy=-40.66727066040039 stress="0.0002360312209930271 -2.830228051919903e-09 -5.359752464073608e-08 -2.830228051919903e-09 0.00023616304679308087 4.390861452208128e-09 -5.359752464073608e-08 4.390861452208128e-09 0.00023615123063791543" pbc="T T T"
Na       1.58996024       1.12427103       2.75389147      -0.00000058      -0.00000039       0.00000046
Na       4.76988047       3.37281558       8.26167548       0.00000055      -0.00000020      -0.00000027
Fe      -0.00000062      -0.00000049      -0.00000011       0.00001867       0.00001813      -0.00000236
F        1.52314237       1.07702497       5.50778415      -0.00072560      -0.00051337       0.00000105
F        4.83669894       3.42006271       5.50778336       0.00070360       0.00049862      -0.00000094
F        4.00830878       1.07702397       4.07297224       0.00035894      -0.00050688      -0.00062284
F        2.35153122       3.42006258       6.94259499      -0.00035726       0.00050613       0.00062126
F        2.35153129       3.42006218       4.07297186      -0.00035663       0.00050560      -0.00061992
F        4.00830961       1.07702442       6.94259520       0.00035825      -0.00050756       0.00062394
