9
Lattice="6.626487924602141 -8.801986156595216e-08 3.8258046251706754 2.208829351881977 6.247512206007537 3.8258044057767817 2.182432422098895e-07 -1.1438026372823861e-07 7.651608872332996" Properties=species:S:1:pos:R:3:forces:R:3 energy=-25.009445190429688 free_energy=-25.009445190429688 stress="-3.0362387406057678e-05 -1.4620359145567363e-08 1.478942834864938e-08 -1.4620359145567363e-08 -3.0392622647923417e-05 -9.466407213665207e-09 1.478942834864938e-08 -9.466407213665207e-09 -3.0364468329935335e-05" pbc="T T T"
Na       2.20882930       1.56187808       3.82580447      -0.00000025      -0.00000021      -0.00000011
Na       6.62648797       4.68563402      11.47741331      -0.00000002       0.00000034      -0.00000020
Fe      -0.00000006      -0.00000030       0.00000036       0.00000094       0.00000245      -0.00000739
I        2.02337725       1.43074327       7.65160923       0.00747767       0.00528912      -0.00000130
I        6.81194004       4.81676895       7.65160912      -0.00747819      -0.00529025       0.00000039
I        5.61479926       1.43074297       5.57810049      -0.00374054       0.00529039       0.00647770
I        3.22051865       4.81676865       9.72511710       0.00373708      -0.00528646      -0.00647392
I        3.22051847       4.81676873       5.57810038       0.00373890      -0.00529104       0.00647704
I        5.61479907       1.43074353       9.72511712      -0.00373555       0.00528571      -0.00647217
