9
Lattice="5.820435272141177 -4.413702401838403e-08 3.360429858543061 1.940145061704286 5.487558788783068 3.3604298367134553 -2.7674999742309848e-08 -4.630486992191562e-08 6.7208597650206325" Properties=species:S:1:pos:R:3:forces:R:3 energy=-31.350292205810547 free_energy=-31.350292205810547 stress="0.0004075046454090625 5.735206753954003e-10 2.0663575739376938e-08 5.735206753954003e-10 0.0004075044416822493 -9.27932841676693e-10 2.0663575739376938e-08 -9.27932841676693e-10 0.00040748543688096106" pbc="T T T"
Na       1.94014510       1.37188967       3.36043004      -0.00000011       0.00000017       0.00000020
Na       5.82043538       4.11566911      10.08128955      -0.00000139       0.00000030      -0.00000078
Fe      -0.00000003      -0.00000011      -0.00000003       0.00000072       0.00000087      -0.00000106
Cl       1.84987139       1.30805631       6.72085992       0.00193474       0.00136882      -0.00000214
Cl       5.91070909       4.17950232       6.72085984      -0.00193471      -0.00136945      -0.00000129
Cl       4.89549952       1.30805651       4.96246534      -0.00096904       0.00136942       0.00167644
Cl       2.86508074       4.17950228       8.47925395       0.00096601      -0.00136846      -0.00167385
Cl       2.86508067       4.17950230       4.96246525       0.00096996      -0.00136989       0.00167641
Cl       4.89549943       1.30805647       8.47925396      -0.00096588       0.00136855      -0.00167423
