9
Lattice="6.867802120920502 -8.846776556167323e-08 3.9651274935593697 2.2892674166451776 6.475025718314664 3.9651272746053055 1.8893254927659826e-07 -1.345673842984492e-07 7.930254659878031" Properties=species:S:1:pos:R:3:forces:R:3 energy=-21.628459930419922 free_energy=-21.628459930419922 stress="7.224170985864475e-05 -8.669276851946961e-09 1.0763659963330952e-09 -8.669276851946961e-09 7.226881280075759e-05 -1.873435184762684e-09 1.0763659963330952e-09 -1.873435184762684e-09 7.226305751828477e-05" pbc="T T T"
Na       2.28926723       1.61875636       3.96512732      -0.00000091       0.00000033      -0.00000059
Na       6.86780239       4.85626900      11.89538223       0.00000147      -0.00000057       0.00000022
Ge       0.00000010      -0.00000015       0.00000033      -0.00000011      -0.00000023      -0.00000038
I        2.36158306       1.66989169       7.93025465      -0.00508234      -0.00359467       0.00000020
I        6.79548671       4.80513400       7.93025477       0.00508206       0.00359496       0.00000038
I        5.68701133       1.66989133       6.01031837       0.00254153      -0.00359474      -0.00440183
I        3.47005831       4.80513411       9.85019101      -0.00254124       0.00359450       0.00440173
I        3.47005839       4.80513426       6.01031833      -0.00254153       0.00359547      -0.00440273
I        5.68701141       1.66989140       9.85019075       0.00254113      -0.00359504       0.00440304
