9
Lattice="6.249619793678716 4.723051780635803e-08 3.6082196981765544 2.0832066051342113 5.892198085598654 3.608219762761412 -7.091292666933423e-08 2.8956923220388174e-08 7.2164395191779755" Properties=species:S:1:pos:R:3:forces:R:3 energy=-25.105802536010742 free_energy=-25.105802536010742 stress="0.00018906203331425786 3.776672752309196e-09 3.14765591369337e-09 3.776672752309196e-09 0.00018904129683505744 -1.0557693608248542e-09 3.14765591369337e-09 -1.0557693608248542e-09 0.00018906268815044314" pbc="T T T"
Na       2.08320664       1.47304939       3.60821991      -0.00000006      -0.00000059       0.00000007
Na       6.24961975       4.41914870      10.82465923       0.00000003       0.00000081      -0.00000017
Ge       0.00000034      -0.00000040       0.00000031      -0.00000265       0.00000430      -0.00000455
Br       2.03449934       1.43860802       7.21643979      -0.00344621      -0.00243644      -0.00000094
Br       6.29832682       4.45359016       7.21643973       0.00344548       0.00243548      -0.00000085
Br       5.23237024       1.43860792       5.37014778       0.00172228      -0.00243481      -0.00298345
Br       3.10045636       4.45359001       9.06273096      -0.00172339       0.00243708       0.00298451
Br       3.10045602       4.45359050       5.37014765      -0.00172082       0.00243276      -0.00298159
Br       5.23236968       1.43860840       9.06273044       0.00172518      -0.00243857       0.00298691
