9
Lattice="5.9429817734943 -6.835483186239625e-08 3.43118190900418 1.9809938506922635 5.603097223766481 3.4311819252165305 -2.138288506929477e-07 -1.3134379315744347e-07 6.862364188370847" Properties=species:S:1:pos:R:3:forces:R:3 energy=-29.00407600402832 free_energy=-29.00407600402832 stress="0.000278602383332327 6.412626873952831e-08 3.870992415500041e-09 6.412626873952831e-08 0.0002786470577120781 -2.181240610354962e-08 3.870992415500041e-09 -2.181240610354962e-08 0.0002786284312605858" pbc="T T T"
Na       1.98099402       1.40077417       3.43118176      -0.00000048      -0.00000002      -0.00000031
Na       5.94298170       4.20232263      10.29354604       0.00000048      -0.00000071      -0.00000053
Ge       0.00000024       0.00000084       0.00000206      -0.00000210      -0.00002061      -0.00003999
Cl       1.88507112       1.33294770       6.86236435      -0.00767291      -0.00543050      -0.00000281
Cl       6.03890299       4.27014910       6.86236386       0.00768864       0.00543889      -0.00000317
Cl       5.00044772       1.33294559       5.06370052       0.00382435      -0.00541216      -0.00663072
Cl       2.92352990       4.27014937       8.66102584      -0.00384862       0.00544420       0.00666623
Cl       2.92352826       4.27015078       5.06370218      -0.00383307       0.00542130      -0.00664510
Cl       5.00044567       1.33294778       8.66102573       0.00384402      -0.00544034       0.00665598
