9
Lattice="4.816705372894673 1.4436025362720514e-08 2.7809259692549597 1.6055685185712796 4.541232914094275 2.780925887278174 2.3614569604150672e-08 -8.370260363289711e-08 5.561851897608308" Properties=species:S:1:pos:R:3:forces:R:3 energy=-42.059600830078125 free_energy=-42.059600830078125 stress="0.00016124514513649046 2.906562031057547e-07 -4.583028712090709e-08 2.906562031057547e-07 0.00016082628280855715 -9.740733553087466e-09 -4.583028712090709e-08 -9.740733553087466e-09 0.00016080992645584047" pbc="T T T"
Na       1.60556853       1.13530817       2.78092600      -0.00000071      -0.00000059      -0.00000032
Na       4.81670526       3.40592466       8.34277752      -0.00000057       0.00000075      -0.00000089
Ge      -0.00000028      -0.00000001      -0.00000057       0.00000349      -0.00000406       0.00000370
F        1.48737314       1.05173061       5.56185195      -0.00139290      -0.00098032      -0.00000097
F        4.93490049       3.48950136       5.56185261       0.00139993       0.00098819      -0.00000362
F        4.07301929       1.05172999       4.06902776       0.00068572      -0.00096980      -0.00119388
F        2.34925490       3.48950267       7.05467588      -0.00069296       0.00097176       0.00119328
F        2.34925446       3.48950326       4.06902749      -0.00068775       0.00096717      -0.00119066
F        4.07301969       1.05173048       7.05467611       0.00068596      -0.00097328       0.00119334
