9
Lattice="7.082757131622035 -1.4738890202041414e-07 4.089231790702604 2.3609189721371386 6.6776873228350135 4.0892316742694605 1.7752362570400965e-08 -1.3004801417214918e-07 8.178463550657044" Properties=species:S:1:pos:R:3:forces:R:3 energy=-30.710033416748047 free_energy=-30.710033416748047 stress="6.406720785889775e-05 -2.680507193986159e-08 8.127605255481285e-09 -2.680507193986159e-08 6.408753688447177e-05 -2.8080449965273147e-08 8.127605255481285e-09 -2.8080449965273147e-08 6.411080539692193e-05" pbc="T T T"
Na       2.36091909       1.66942190       4.08923195       0.00000006      -0.00000084       0.00000171
Na       7.08275717       5.00826491      12.26769493      -0.00000002       0.00000098      -0.00000170
Hf      -0.00000019      -0.00000036      -0.00000044       0.00000246       0.00000445      -0.00000071
I        2.32590782       1.64466514       8.17846345      -0.00047366      -0.00033545       0.00000101
I        7.11776881       5.03302218       8.17846361       0.00046979       0.00033244      -0.00000054
I        5.91980294       1.64466523       6.10352729       0.00023814      -0.00033616      -0.00041190
I        3.52387284       5.03302214      10.25340004      -0.00023758       0.00033519       0.00041179
I        3.52387300       5.03302182       6.10352754      -0.00023814       0.00033815      -0.00041461
I        5.91980302       1.64466522      10.25339963       0.00023897      -0.00033864       0.00041506
