9
Lattice="6.085073993877344 -1.84902690524538e-08 3.513218906143996 2.0283580008746975 5.737062864238023 3.513218870899503 2.302039171251681e-08 -2.688758092404687e-08 7.026437772415491" Properties=species:S:1:pos:R:3:forces:R:3 energy=-39.4444465637207 free_energy=-39.4444465637207 stress="0.00014071703481022269 1.2696462547978626e-08 2.901886286821309e-09 1.2696462547978626e-08 0.00014072748308535665 -1.1981204472988338e-08 2.901886286821309e-09 -1.1981204472988338e-08 0.00014068461314309388" pbc="T T T"
Na       2.02835808       1.43426537       3.51321867      -0.00000007       0.00000041       0.00000005
Na       6.08507415       4.30279711      10.53965667       0.00000005      -0.00000053      -0.00000016
Hf      -0.00000019      -0.00000006      -0.00000175       0.00000195       0.00000332       0.00003069
Cl       1.99700460       1.41209588       7.02643780      -0.00172140      -0.00121873       0.00000035
Cl       6.11642778       4.32496731       7.02643774       0.00171730       0.00121532      -0.00000003
Cl       5.08657172       1.41209566       5.24267557       0.00086347      -0.00122169      -0.00149531
Cl       3.02685996       4.32496766       8.81020087      -0.00085383       0.00120932       0.00147952
Cl       3.02686017       4.32496707       5.24267562      -0.00086274       0.00122264      -0.00149610
Cl       5.08657181       1.41209531       8.81020103       0.00085520      -0.00121002       0.00148105
