9
Lattice="4.914969263676196 1.0279298140696215e-08 2.837658896121779 1.6383231180507247 4.633877479859297 2.8376588606714406 -6.809361225986419e-11 -4.34657184403444e-08 5.675317792361416" Properties=species:S:1:pos:R:3:forces:R:3 energy=-41.08651351928711 free_energy=-41.08651351928711 stress="0.0003546055231709033 3.926651004348969e-08 1.660639448175516e-08 3.926651004348969e-08 0.0003545760118868202 -2.379271535346561e-08 1.660639448175516e-08 -2.379271535346561e-08 0.00035455962643027306" pbc="T T T"
Na       1.63832319       1.15846927       2.83765886       0.00000064      -0.00000011      -0.00000004
Na       4.91496936       3.47540819       8.51297665      -0.00000050       0.00000008       0.00000001
Ir       0.00000007       0.00000012      -0.00000003      -0.00000167      -0.00000261      -0.00000073
F        1.59654899       1.12893068       5.67531783      -0.00275509      -0.00194798      -0.00000027
F        4.95674313       3.50494680       5.67531791       0.00275691       0.00194967       0.00000009
F        4.11669495       1.12893040       4.22031065       0.00137597      -0.00194614      -0.00238291
F        2.43659759       3.50494691       7.13032493      -0.00137645       0.00194673       0.00238380
F        2.43659756       3.50494678       4.22031090      -0.00137710       0.00194807      -0.00238529
F        4.11669466       1.12893062       7.13032461       0.00137732      -0.00194780       0.00238541
