9
Lattice="6.267331528302016 -1.807484528833351e-07 3.6184457718870826 2.0891103847236545 5.908896686752454 3.618445692730753 1.512335336240121e-07 9.991911118784325e-09 7.23689128183006" Properties=species:S:1:pos:R:3:forces:R:3 energy=-28.34256362915039 free_energy=-28.34256362915039 stress="0.00013120843505021185 -8.710700427627671e-08 3.849359497820615e-09 -8.710700427627671e-08 0.00013127885176800191 -1.9606788415060805e-10 3.849359497820615e-09 -1.9606788415060805e-10 0.00013134295295458287" pbc="T T T"
Na       2.08911058       1.47722415       3.61844560       0.00000010       0.00000021      -0.00000005
Na       6.26733157       4.43167234      10.85533695       0.00000005       0.00000011       0.00000007
Ir      -0.00000124      -0.00000093      -0.00000317       0.00002963       0.00001787       0.00005935
Br       2.04222973       1.44407430       7.23689129      -0.00401830      -0.00284156      -0.00000115
Br       6.31421366       4.46482319       7.23689172       0.00399234       0.00282297      -0.00000148
Br       5.24621611       1.44407472       5.38706927       0.00201344      -0.00284806      -0.00349030
Br       3.11022507       4.46482295       9.08671486      -0.00200073       0.00282795       0.00346350
Br       3.11022572       4.46482161       5.38706960      -0.00201537       0.00284898      -0.00349249
Br       5.24621711       1.44407379       9.08671489       0.00199878      -0.00282847       0.00346249
