9
Lattice="5.966145628870327 3.0834665116113864e-08 3.4445558298879404 1.988715256902016 5.624936096192577 3.444555798351694 9.416007406560055e-08 2.7957522624172115e-08 6.889111496685689" Properties=species:S:1:pos:R:3:forces:R:3 energy=-31.58770751953125 free_energy=-31.58770751953125 stress="2.3248321667779237e-06 -3.0218625823863476e-08 1.2284153250163854e-08 -3.0218625823863476e-08 2.334016926397453e-06 -1.7272379082555744e-08 1.2284153250163854e-08 -1.7272379082555744e-08 2.3281838821276324e-06" pbc="T T T"
Na       1.98871500       1.40623400       3.44455587       0.00000026      -0.00000024      -0.00000015
Na       5.96614579       4.21870206      10.33366750      -0.00000004      -0.00000039       0.00000011
Ir      -0.00000057       0.00000100       0.00000109       0.00002163      -0.00002682      -0.00002942
Cl       1.91095074       1.35124647       6.88911154       0.00417763       0.00295505       0.00000061
Cl       6.04391033       4.27368991       6.88911135      -0.00418028      -0.00295457       0.00000091
Cl       5.01067043       1.35124603       5.09948705      -0.00209710       0.00296405       0.00363183
Cl       2.94419126       4.27368917       8.67873492       0.00208066      -0.00294188      -0.00360328
Cl       2.94419098       4.27368963       5.09948777       0.00208701      -0.00295086       0.00361693
Cl       5.01067009       1.35124650       8.67873535      -0.00208989       0.00295579      -0.00361729
