9
Lattice="6.242083287949129 -7.006219757398039e-09 3.6038685190178334 2.0806943909933624 5.885092596871995 3.6038685739542347 -1.3645158950343316e-07 -2.9202960086339128e-08 7.207737274376903" Properties=species:S:1:pos:R:3:forces:R:3 energy=-30.5777645111084 free_energy=-30.5777645111084 stress="-4.950692891725339e-05 -8.672026652334353e-09 -8.801361417454245e-09 -8.672026652334353e-09 -4.9476988351671025e-05 4.488486471387887e-09 -8.801361417454245e-09 4.488486471387887e-09 -4.950827860739082e-05" pbc="T T T"
Na       2.08069450       1.47127330       3.60386852      -0.00000001       0.00000029      -0.00000004
Na       6.24208309       4.41381935      10.81160585      -0.00000003      -0.00000013      -0.00000013
Mn       0.00000027       0.00000023      -0.00000033      -0.00000149      -0.00000115       0.00000188
Br       1.93412966       1.36763676       7.20773746       0.00348774       0.00246330       0.00000016
Br       6.38864777       4.51745572       7.20773733      -0.00348255      -0.00246215       0.00000079
Br       5.27501823       1.36763652       5.27887402      -0.00174366       0.00246344       0.00301967
Br       3.04775925       4.51745575       9.13660025       0.00174252      -0.00246443      -0.00301857
Br       3.04775930       4.51745579       5.27887424       0.00174168      -0.00246245       0.00301687
Br       5.27501794       1.36763676       9.13660011      -0.00174425       0.00246314      -0.00302057
