9
Lattice="6.862473931276963 -4.2872299812285824e-08 3.9620510138028777 2.287491307158943 6.470002441576817 3.9620509494508833 3.4497341915654925e-08 -5.4421424455516476e-08 7.924101967854572" Properties=species:S:1:pos:R:3:forces:R:3 energy=-27.762014389038086 free_energy=-27.762014389038086 stress="7.967735291458666e-05 1.1398119781347305e-08 1.0111407267032746e-09 1.1398119781347305e-08 7.966985867824405e-05 -2.7838302774085832e-09 1.0111407267032746e-09 -2.7838302774085832e-09 7.963839016156271e-05" pbc="T T T"
Na       2.28749129       1.61750035       3.96205089       0.00000019      -0.00000004       0.00000022
Na       6.86247409       4.85250195      11.88615302      -0.00000008      -0.00000001      -0.00000049
Mo       0.00000013       0.00000085      -0.00000066      -0.00000295      -0.00001050       0.00000983
I        2.27791610       1.61072970       7.92410218      -0.00241850      -0.00171052      -0.00000049
I        6.87204848       4.85927205       7.92410173       0.00242613       0.00171565       0.00000012
I        5.72351567       1.61073035       5.93478406       0.00121021      -0.00171246      -0.00209610
I        3.42644956       4.85927215       9.91341991      -0.00120999       0.00171162       0.00209534
I        3.42644995       4.85927185       5.93478452      -0.00121331       0.00171521      -0.00210005
I        5.72351580       1.61073016       9.91342001       0.00120820      -0.00170892       0.00209166
