9
Lattice="4.785474133276017 -2.3206985376162935e-07 2.762894940127524 1.5951580972848722 4.511788233033203 2.7628944696036473 3.4958308194791657e-07 -3.2907916878046455e-07 5.525789274759374" Properties=species:S:1:pos:R:3:forces:R:3 energy=-43.49667739868164 free_energy=-43.49667739868164 stress="0.00017168823978863657 1.404876712740588e-07 3.1518872845026635e-08 1.404876712740588e-07 0.0001717306295176968 -1.9462468969777547e-08 3.1518872845026635e-08 -1.9462468969777547e-08 0.00017172058869618922" pbc="T T T"
Na       1.59515889       1.12794711       2.76289488      -0.00000066      -0.00000054      -0.00000091
Na       4.78547468       3.38384134       8.28868333       0.00000080      -0.00000029      -0.00000065
Mn      -0.00000045      -0.00000192      -0.00000152       0.00001390       0.00007063       0.00005905
F        1.50030892       1.06087775       5.52578906      -0.00589496      -0.00416875      -0.00000104
F        4.88032589       3.45091105       5.52578995       0.00584854       0.00413696      -0.00000043
F        4.03532002       1.06087779       4.06220002       0.00294787      -0.00416803      -0.00510721
F        2.34531046       3.45091111       6.98938087      -0.00291590       0.00412591       0.00505544
F        2.34531108       3.45091068       4.06219891      -0.00293411       0.00415201      -0.00508669
F        4.03532068       1.06087619       6.98937963       0.00293433      -0.00414789       0.00508228
