9
Lattice="4.983634353497925 -9.22486165471214e-09 2.877302721241254 1.6612114436673566 4.69861539988302 2.8773027191651446 1.0479914790812448e-08 4.867706793569181e-09 5.754605424330769" Properties=species:S:1:pos:R:3:forces:R:3 energy=-44.2415885925293 free_energy=-44.2415885925293 stress="0.00041648311889730394 -8.717445609818242e-08 -7.046833339074965e-09 -8.717445609818242e-08 0.0004165077698417008 -9.627933117428711e-09 -7.046833339074965e-09 -9.627933117428711e-09 0.0004165846621617675" pbc="T T T"
Na       1.66121131       1.17465391       2.87730263       0.00000038      -0.00000043      -0.00000024
Na       4.98363449       3.52396139       8.63190830       0.00000013       0.00000011      -0.00000015
Mo       0.00000009       0.00000000       0.00000004      -0.00000403      -0.00000333       0.00000032
F        1.62731875       1.15068784       5.75460527      -0.00449419      -0.00317727       0.00000023
F        5.01752726       3.54792756       5.75460546       0.00449702       0.00317982      -0.00000003
F        4.16997469       1.15068824       4.28660238       0.00225149      -0.00318281      -0.00389847
F        2.47487081       3.54792709       7.22260845      -0.00225115       0.00318323       0.00389820
F        2.47487090       3.54792720       4.28660228      -0.00225095       0.00318350      -0.00389822
F        4.16997496       1.15068831       7.22260860       0.00225118      -0.00318266       0.00389843
