9
Lattice="6.3488591476423055 -1.3937536805697414e-07 3.6655156916935603 2.116286246454989 5.985761803263227 3.665515699813468 -3.065128198589725e-08 -1.1728936594849294e-08 7.331031436476671" Properties=species:S:1:pos:R:3:forces:R:3 energy=-31.412904739379883 free_energy=-31.412904739379883 stress="7.10229724063538e-05 -2.4923316743752366e-08 -6.414419662092996e-09 -2.4923316743752366e-08 7.104848918970674e-05 -2.593361969616126e-09 -6.414419662092996e-09 -2.593361969616126e-09 7.10649837856181e-05" pbc="T T T"
Na       2.11628641       1.49644052       3.66551588       0.00000003       0.00000014       0.00000027
Na       6.34885901       4.48932131      10.99654686      -0.00000012      -0.00000014      -0.00000045
Mo      -0.00000049       0.00000028       0.00000003       0.00000476      -0.00000358      -0.00000032
Br       2.09477273       1.48122835       7.33103156      -0.00080487      -0.00056905      -0.00000004
Br       6.37037225       4.50453289       7.33103163       0.00080504       0.00057025      -0.00000040
Br       5.30147265       1.48122823       5.47964288       0.00040218      -0.00057017      -0.00069880
Br       3.16367333       4.50453314       9.18241973      -0.00040475       0.00057234       0.00070110
Br       3.16367286       4.50453321       5.47964296      -0.00040451       0.00057174      -0.00070082
Br       5.30147266       1.48122868       9.18241969       0.00040227      -0.00057159       0.00069927
