9
Lattice="6.025798885535496 -8.998838346227743e-08 3.4789967586132025 2.008599504136295 5.681177779927506 3.4789968270875327 -1.826856113414756e-08 7.094568546403132e-08 6.9579935488685" Properties=species:S:1:pos:R:3:forces:R:3 energy=-35.202030181884766 free_energy=-35.202030181884766 stress="0.00012046540359733626 -5.435251182461798e-08 7.747605224039944e-09 -5.435251182461798e-08 0.00012048720236634836 8.709434951015282e-09 7.747605224039944e-09 8.709434951015282e-09 0.00012053174577886239" pbc="T T T"
Na       2.00859980       1.42029447       3.47899686       0.00000001      -0.00000009      -0.00000010
Na       6.02579872       4.26088295      10.43699032       0.00000024      -0.00000055       0.00000031
Mo      -0.00000025      -0.00000099      -0.00000165       0.00000494       0.00001694       0.00003308
Cl       1.96178213       1.38718992       6.95799332      -0.00184625      -0.00130568       0.00000107
Cl       6.07261604       4.29398829       6.95799360       0.00183733       0.00129882       0.00000031
Cl       5.04490723       1.38719030       5.17795118       0.00092969      -0.00131573      -0.00161123
Cl       2.98949085       4.29398881       8.73803696      -0.00091751       0.00129622       0.00158934
Cl       2.98949114       4.29398780       5.17795116      -0.00092748       0.00131130      -0.00160673
Cl       5.04490788       1.38718962       8.73803694       0.00091893      -0.00130127       0.00159392
