9
Lattice="5.9525390836903815 -2.6420099157022993e-07 3.4366995533842557 1.984179598328146 5.612106732375087 3.4366992886303263 1.255799029395464e-07 -2.3545754652816688e-07 6.8733988892577" Properties=species:S:1:pos:R:3:forces:R:3 energy=-33.678802490234375 free_energy=-33.678802490234375 stress="-6.821622378083703e-08 -7.244567168385174e-09 2.3788496505972034e-08 -7.244567168385174e-09 -7.904782961531964e-08 -3.8991277762079335e-08 2.3788496505972034e-08 -3.8991277762079335e-08 -1.7870837609734735e-07" pbc="T T T"
Na       1.98417951       1.40302696       3.43669946       0.00000015       0.00000046       0.00000049
Na       5.95253895       4.20907980      10.31009850      -0.00000055      -0.00000004       0.00000035
Mn       0.00000043      -0.00000090      -0.00000149      -0.00000431       0.00001530       0.00003194
Cl       1.86083510       1.31580863       6.87339837       0.00106201       0.00075106       0.00000260
Cl       6.07588410       4.29629818       6.87339833      -0.00106722      -0.00075512       0.00000222
Cl       5.02212154       1.31580903       5.04822875      -0.00052539       0.00074284       0.00091565
Cl       2.91459681       4.29629885       8.69857094       0.00054093      -0.00076681      -0.00094348
Cl       2.91459719       4.29629671       5.04822852       0.00052814      -0.00074574       0.00092152
Cl       5.02212171       1.31580764       8.69856934      -0.00053380       0.00075789      -0.00093153
