9
Lattice="6.73104715572961 3.0501529718084355e-07 3.886171628276466 2.2436826895685322 6.346092086405721 3.8861715992574317 -4.4207915687228426e-08 -6.680060084579162e-08 7.772343333123475" Properties=species:S:1:pos:R:3:forces:R:3 energy=-26.751157760620117 free_energy=-26.751157760620117 stress="-7.201044354587793e-05 -3.4115135716383804e-10 -1.5595291724679328e-09 -3.4115135716383804e-10 -7.200974505394697e-05 -5.2186015925270723e-11 -1.5595291724679328e-09 -5.2186015925270723e-11 -7.200073741842061e-05" pbc="T T T"
Na       2.24368283       1.58652310       3.88617136       0.00000001      -0.00000063      -0.00000069
Na       6.73104695       4.75956970      11.65851468      -0.00000007       0.00000072       0.00000036
Mn       0.00000049       0.00000070       0.00000209      -0.00000252      -0.00000313      -0.00001298
I        2.21675016       1.56747930       7.77234343      -0.00148031      -0.00104485      -0.00000069
I        6.75797921       4.77861258       7.77234362       0.00148363       0.00104821      -0.00000122
I        5.62267239       1.56747766       5.80593302       0.00073737      -0.00104305      -0.00127865
I        3.35205840       4.77861334       9.73875237      -0.00074308       0.00105099       0.00128622
I        3.35205752       4.77861391       5.80593309      -0.00073797       0.00104304      -0.00127921
I        5.62267128       1.56747903       9.73875256       0.00074287      -0.00105135       0.00128685
