9
Lattice="5.761799937709488 -5.9339820307847484e-08 3.326576265613667 1.920599981268303 5.432277796441332 3.326576165192792 -2.3678019142408193e-08 -1.3973278961323835e-07 6.653152572238812" Properties=species:S:1:pos:R:3:forces:R:3 energy=-27.541839599609375 free_energy=-27.541839599609375 stress="-4.993554102838971e-05 -3.796868242034179e-08 1.769797464135081e-08 -3.796868242034179e-08 -4.989818626199849e-05 -3.599412767840704e-09 1.769797464135081e-08 -3.599412767840704e-09 -4.9963826313614845e-05" pbc="T T T"
Na       1.92059954       1.35806973       3.32657660       0.00000016       0.00000162       0.00000010
Na       5.76180058       4.07420898       9.97972885       0.00000091       0.00000142      -0.00000067
Ni      -0.00000081       0.00000045      -0.00000048       0.00000711      -0.00000598       0.00000076
Cl       1.88102052       1.33008211       6.65315235       0.00086173       0.00060788      -0.00000166
Cl       5.80137955       4.10219447       6.65315297      -0.00086409      -0.00060970      -0.00000234
Cl       4.82129032       1.33008224       4.95558719      -0.00043395       0.00060996       0.00075039
Cl       2.86111080       4.10219462       8.35071667       0.00042769      -0.00060523      -0.00074443
Cl       2.86111011       4.10219458       4.95558696       0.00043182      -0.00060910       0.00074750
Cl       4.82128901       1.33008319       8.35071835      -0.00043151       0.00060901      -0.00074995
