9
Lattice="5.021681788605285 1.171157492622594e-08 2.8992698870638742 1.6738938694677858 4.734487356523988 2.8992700102284235 -6.70148573780837e-08 1.0345852700034878e-07 5.798539890200918" Properties=species:S:1:pos:R:3:forces:R:3 energy=-48.93159103393555 free_energy=-48.93159103393555 stress="0.000449092302005738 -1.0082314361170575e-07 -4.006754039664884e-08 -1.0082314361170575e-07 0.00044916977640241385 9.560962865862166e-08 -4.006754039664884e-08 9.560962865862166e-08 0.0004492107545956969" pbc="T T T"
Na       1.67389397       1.18362192       2.89927012      -0.00000023      -0.00000055       0.00000037
Na       5.02168174       3.55086527       8.69780977       0.00000106      -0.00000023       0.00000007
Nb       0.00000013      -0.00000020       0.00000022      -0.00000219      -0.00000212      -0.00000605
F        1.62721026       1.15061168       5.79853992      -0.00431639      -0.00305271       0.00000002
F        5.06836485       3.58387613       5.79854000       0.00431973       0.00305462      -0.00000017
F        4.20807666       1.15061213       4.30847622       0.00216448      -0.00306076      -0.00374907
F        2.48749912       3.58387517       7.28860306      -0.00216720       0.00306410       0.00375313
F        2.48749918       3.58387547       4.30847660      -0.00216174       0.00305617      -0.00374430
F        4.20807643       1.15061239       7.28860369       0.00216261      -0.00305843       0.00374615
