9
Lattice="6.036679013033012 -1.1897319676815602e-07 3.485278244646451 2.0122262197417577 5.691435614467681 3.4852782546351992 -6.960638766978035e-08 -3.698560032241693e-08 6.970556609854902" Properties=species:S:1:pos:R:3:forces:R:3 energy=-24.993053436279297 free_energy=-24.993053436279297 stress="-4.0833920138538815e-06 -1.0678002482222837e-08 4.492231031605343e-09 -1.0678002482222837e-08 -4.065682333020959e-06 -2.63918464860069e-09 4.492231031605343e-09 -2.63918464860069e-09 -4.068474481755402e-06" pbc="T T T"
Na       2.01222630       1.42285879       3.48527823       0.00000013      -0.00000005      -0.00000006
Na       6.03667905       4.26857658      10.45583495       0.00000000       0.00000003      -0.00000001
Ni       0.00000022      -0.00000008       0.00000048       0.00000210       0.00000272      -0.00000360
Br       1.98437838       1.40316768       6.97055660      -0.00451881      -0.00319554       0.00000017
Br       6.06452745       4.28826822       6.97055656       0.00451189       0.00319180      -0.00000014
Br       5.04448956       1.40316709       5.20379996       0.00225849      -0.00319344      -0.00390914
Br       3.00441512       4.28826814       8.73731297      -0.00225729       0.00319517       0.00390986
Br       3.00441522       4.28826817       5.20379995      -0.00225616       0.00319396      -0.00390804
Br       5.04448934       1.40316722       8.73731280       0.00225958      -0.00319482       0.00391099
