9
Lattice="6.035823764874426 -1.101596748603114e-07 3.4847846158122877 2.0119411209016937 5.690629346411489 3.4847846681148895 -7.575279920373342e-08 1.0492039440963524e-08 6.969569362832103" Properties=species:S:1:pos:R:3:forces:R:3 energy=-36.457481384277344 free_energy=-36.457481384277344 stress="0.00012756424257531762 4.996505964527387e-08 -2.8229525383949294e-08 4.996505964527387e-08 0.00012752777547575533 3.443825136173473e-08 -2.8229525383949294e-08 3.443825136173473e-08 0.0001274736860068515" pbc="T T T"
Na       2.01194138       1.42265758       3.48478503       0.00000025       0.00000039       0.00000051
Na       6.03582336       4.26797153      10.45435426      -0.00000002      -0.00000024       0.00000059
Nb      -0.00000040      -0.00000004      -0.00000023       0.00000450       0.00000385       0.00000716
Cl       1.97034489       1.39324436       6.96956910      -0.00179577      -0.00126845       0.00000026
Cl       6.07742018       4.29738498       6.96956914       0.00178921       0.00126448      -0.00000010
Cl       5.05065118       1.39324401       5.19115311       0.00089635      -0.00126587      -0.00155061
Cl       2.99711365       4.29738553       8.74798557      -0.00089264       0.00126250       0.00154516
Cl       2.99711342       4.29738562       5.19115278      -0.00089280       0.00126277      -0.00154543
Cl       5.05065151       1.39324342       8.74798589       0.00089104      -0.00125928       0.00154248
