9
Lattice="6.574111595246255 7.755364662913955e-08 3.7955649853788502 2.1913705602761984 6.198132122620475 3.795565062612488 -1.081853361813136e-07 1.8093013487180386e-08 7.591130158140254" Properties=species:S:1:pos:R:3:forces:R:3 energy=-22.149389266967773 free_energy=-22.149389266967773 stress="-0.0001419019536115229 2.1563766328114298e-09 2.5331488018309756e-09 2.1563766328114298e-09 -0.00014190407819114625 1.760286028051894e-09 2.5331488018309756e-09 1.760286028051894e-09 -0.00014189878129400313" pbc="T T T"
Na       2.19137072       1.54953294       3.79556487       0.00000002       0.00000013      -0.00000001
Na       6.57411140       4.64859905      11.38669501       0.00000021      -0.00000013      -0.00000012
Ni       0.00000020       0.00000049      -0.00000038      -0.00000081      -0.00000114       0.00000126
I        2.20608338       1.55993732       7.59113015       0.00072891       0.00051597      -0.00000022
I        6.55939802       4.63819448       7.59113042      -0.00072634      -0.00051476      -0.00000009
I        5.47106944       1.55993700       5.70608962      -0.00036422       0.00051437       0.00063123
I        3.29441258       4.63819547       9.47617039       0.00036366      -0.00051446      -0.00063024
I        3.29441287       4.63819502       5.70609013       0.00036353      -0.00051478       0.00062965
I        5.47106951       1.55993702       9.47617065      -0.00036493       0.00051488      -0.00063145
