9
Lattice="6.443660860718073 -3.646874017702658e-08 3.7202494734171 2.1478869348284375 6.075141797136063 3.7202494463298734 5.894787780754471e-08 8.507391336616178e-09 7.440498844733581" Properties=species:S:1:pos:R:3:forces:R:3 energy=-32.479740142822266 free_energy=-32.479740142822266 stress="6.316584767773747e-05 -4.395630803788464e-10 2.2922485243270785e-08 -4.395630803788464e-10 6.31533985142596e-05 -2.6390161167455517e-08 2.2922485243270785e-08 -2.6390161167455517e-08 6.31693983450532e-05" pbc="T T T"
Na       2.14788680       1.51878531       3.72024952      -0.00000015      -0.00000026       0.00000036
Na       6.44366094       4.55635646      11.16074820       0.00000016       0.00000003       0.00000014
Nb       0.00000003       0.00000011      -0.00000050       0.00000003      -0.00000365       0.00000557
Br       2.10543345       1.48876617       7.44049888      -0.00070763      -0.00050029       0.00000000
Br       6.48611420       4.58637548       7.44049887       0.00071020       0.00050123       0.00000001
Br       5.39094408       1.48876631       5.54360835       0.00035395      -0.00050007      -0.00061275
Br       3.20060361       4.58637582       9.33738946      -0.00035343       0.00049849       0.00061233
Br       3.20060410       4.58637530       5.54360900      -0.00035696       0.00050442      -0.00061849
Br       5.39094418       1.48876615       9.33738932       0.00035378      -0.00049984       0.00061283
