9
Lattice="4.694624937994543 1.0329863584846831e-07 2.7104430272735827 1.564875068192179 4.426134797955934 2.710443042048331 1.139810133032669e-08 2.615502486932539e-08 5.420886034805065" Properties=species:S:1:pos:R:3:forces:R:3 energy=-34.71070098876953 free_energy=-34.71070098876953 stress="4.2588166252244264e-05 7.919154398905448e-08 9.167978731738913e-08 7.919154398905448e-08 4.259668639861047e-05 -5.824591364778087e-10 9.167978731738913e-08 -5.824591364778087e-10 4.2444837163202465e-05" pbc="T T T"
Na       1.56487457       1.10653401       2.71044321       0.00000011       0.00000009      -0.00000081
Na       4.69462454       3.31960168       8.13132738      -0.00000003      -0.00000080       0.00000098
Ni       0.00000008      -0.00000009      -0.00000029       0.00000117      -0.00000280       0.00001657
F        1.46890756       1.03867525       5.42088707       0.00026885       0.00018829      -0.00000304
F        4.79059237       3.38745935       5.42088584      -0.00026488      -0.00018694      -0.00000070
F        3.96017164       1.03867450       3.98255462      -0.00013781       0.00019072       0.00023451
F        2.29932924       3.38745977       6.85921777       0.00013563      -0.00018947      -0.00023717
F        2.29932962       3.38745994       3.98255495       0.00013106      -0.00018756       0.00022537
F        3.96017045       1.03867556       6.85921795      -0.00013411       0.00018851      -0.00023532
