9
Lattice="7.0107910599258885 1.3375416308029674e-07 4.047681940183077 2.3369305369784077 6.609837097716141 4.047681840477357 5.5625522006445727e-08 -8.278100974055988e-08 8.095363784019963" Properties=species:S:1:pos:R:3:forces:R:3 energy=-28.466882705688477 free_energy=-28.466882705688477 stress="0.00022057598107494414 2.5983590390410427e-08 -3.3912450625450674e-09 2.5983590390410427e-08 0.00022056535817682743 -5.781911838198539e-09 -3.3912450625450674e-09 -5.781911838198539e-09 0.00022052964777685702" pbc="T T T"
Na       2.33693026       1.65245938       4.04768199       0.00000085       0.00000014      -0.00000014
Na       7.01079142       4.95737800      12.14304558      -0.00000043       0.00000004      -0.00000002
Nb       0.00000008      -0.00000021      -0.00000098       0.00000258       0.00000229       0.00001217
I        2.29248079       1.62102864       8.09536369      -0.00522124      -0.00369232       0.00000041
I        7.05524098       4.98880844       8.09536367       0.00521900       0.00369034       0.00000040
I        5.86455097       1.62102871       6.03302782       0.00261007      -0.00369135      -0.00451958
I        3.48317031       4.98880910      10.15770048      -0.00260633       0.00368523       0.00451381
I        3.48317080       4.98880859       6.03302790      -0.00261047       0.00369161      -0.00452081
I        5.86455097       1.62102795      10.15770011       0.00260600      -0.00368597       0.00451375
