9
Lattice="6.308550546428474 1.1745875800718113e-07 3.6422432851112982 2.102850311064312 5.947758341276657 3.642243253622198 6.289071474301641e-08 5.904373966060118e-09 7.2844864612925635" Properties=species:S:1:pos:R:3:forces:R:3 energy=-29.89995002746582 free_energy=-29.89995002746582 stress="0.0002151752996724099 4.572149236992118e-08 -7.579351590791816e-10 4.572149236992118e-08 0.00021514618129003793 1.0926545890299622e-08 -7.579351590791816e-10 1.0926545890299622e-08 0.00021511899831239134" pbc="T T T"
Na       2.10285040       1.48693982       3.64224337       0.00000007       0.00000008      -0.00000029
Na       6.30855060       4.46081871      10.92672965       0.00000016      -0.00000009       0.00000000
Os      -0.00000015       0.00000009      -0.00000131       0.00000325      -0.00000388       0.00001863
Br       2.04139002       1.44348088       7.28448683      -0.00574560      -0.00406343      -0.00000060
Br       6.37001074       4.50427746       7.28448644       0.00574557       0.00406304       0.00000033
Br       5.28785588       1.44348063       5.41013863       0.00287177      -0.00406262      -0.00497498
Br       3.12354482       4.50427830       9.15883484      -0.00286840       0.00405754       0.00496913
Br       3.12354524       4.50427786       5.41013848      -0.00287370       0.00406383      -0.00497785
Br       5.28785611       1.44348014       9.15883497       0.00286688      -0.00405452       0.00496566
