9
Lattice="6.756065480492246 1.0125882288499273e-07 3.9006161856590476 2.25202201989899 6.369679683493122 3.900616016609817 1.3878451916447385e-07 -1.0890667922200392e-07 7.801232130936154" Properties=species:S:1:pos:R:3:forces:R:3 energy=-26.582380294799805 free_energy=-26.582380294799805 stress="-4.050318239023909e-05 -4.637009443086981e-09 -4.315130031073977e-09 -4.637009443086981e-09 -4.0504652133677155e-05 -3.0525093563937844e-10 -4.315130031073977e-09 -3.0525093563937844e-10 -4.050537245348096e-05" pbc="T T T"
Na       2.25202174       1.59241977       3.90061632       0.00000009       0.00000010       0.00000016
Na       6.75606598       4.77725989      11.70184809      -0.00000014      -0.00000031       0.00000013
Os      -0.00000071       0.00000039      -0.00000091       0.00000718      -0.00000282       0.00001037
I        2.21353579       1.56520618       7.80123214       0.00131636       0.00093080      -0.00000015
I        6.79455238       4.80447387       7.80123219      -0.00131983      -0.00093362      -0.00000014
I        5.64929787       1.56520601       5.81759392      -0.00065833       0.00093132       0.00114153
I        3.35878966       4.80447364       9.78487056       0.00065950      -0.00093272      -0.00114319
I        3.35878987       4.80447312       5.81759421       0.00065645      -0.00092814       0.00113727
I        5.64929801       1.56520584       9.78487087      -0.00066126       0.00093535      -0.00114590
