9
Lattice="4.912485065960123 6.671129612131329e-08 2.836224602690487 1.637495097097354 4.631535388163092 2.836224581534143 3.5066781305141725e-08 -1.115152507217067e-09 5.6724491446435525" Properties=species:S:1:pos:R:3:forces:R:3 energy=-44.118141174316406 free_energy=-44.118141174316406 stress="0.0003429280477575958 5.017320603428743e-08 -7.238120325325781e-09 5.017320603428743e-08 0.0003428914351388812 1.2785268843629183e-08 -7.238120325325781e-09 1.2785268843629183e-08 0.0003428581985644996" pbc="T T T"
Na       1.63749521       1.15788392       2.83622458      -0.00000037       0.00000008      -0.00000003
Na       4.91248504       3.47365160       8.50867379      -0.00000042       0.00000011      -0.00000007
Os      -0.00000021      -0.00000011       0.00000002       0.00000170       0.00000004       0.00000265
F        1.60862292       1.13746796       5.67244908      -0.00264090      -0.00186664       0.00000019
F        4.94135725       3.49406709       5.67244914       0.00264091       0.00186747       0.00000024
F        4.10817398       1.13746792       4.22933282       0.00131897      -0.00186549      -0.00228509
F        2.44180631       3.49406775       7.11556581      -0.00131851       0.00186393       0.00228260
F        2.44180650       3.49406760       4.22933251      -0.00131870       0.00186406      -0.00228338
F        4.10817382       1.13746807       7.11556554       0.00131732      -0.00186353       0.00228295
