9
Lattice="5.940737736067961 -1.3177085210468392e-07 3.429886604209373 1.9802457699378682 5.600981236311704 3.429886635126423 -1.2475174915426402e-07 -5.0347294038867935e-08 6.859773424495094" Properties=species:S:1:pos:R:3:forces:R:3 energy=-33.519256591796875 free_energy=-33.519256591796875 stress="1.1584930689423345e-05 -7.290584136399048e-08 -4.6040020684756655e-09 -7.290584136399048e-08 1.1662618817354087e-05 6.303757515979669e-09 -4.6040020684756655e-09 6.303757515979669e-09 1.1766811439883895e-05" pbc="T T T"
Na       1.98024584       1.40024548       3.42988662      -0.00000078       0.00000010       0.00000022
Na       5.94073749       4.20073570      10.28966017       0.00000091      -0.00000029       0.00000033
Os      -0.00000056      -0.00000020       0.00000047       0.00001227       0.00000614      -0.00001161
Cl       1.91518016       1.35423711       6.85977324       0.00393528       0.00278223       0.00000073
Cl       6.00580382       4.24674449       6.85977340      -0.00394720      -0.00279054      -0.00000067
Cl       4.98314724       1.35423717       5.08848252      -0.00196725       0.00278306       0.00340527
Cl       2.93783589       4.24674374       8.63106375       0.00196485      -0.00277773      -0.00339895
Cl       2.93783579       4.24674372       5.08848254       0.00196810      -0.00278234       0.00340563
Cl       4.98314746       1.35423709       8.63106388      -0.00196621       0.00277925      -0.00340077
