9
Lattice="5.819259912450227 2.1617898744744306e-07 3.3597514802650656 1.9397535677143882 5.486451036548072 3.359751376776916 8.596860318511256e-08 -6.595748839937856e-08 6.719502811628035" Properties=species:S:1:pos:R:3:forces:R:3 energy=-27.585357666015625 free_energy=-27.585357666015625 stress="5.721926936530508e-05 1.573081931383058e-08 1.5163353239699973e-08 1.573081931383058e-08 5.728152609663084e-05 -7.222315634436427e-09 1.5163353239699973e-08 -7.222315634436427e-09 5.729656550101936e-05" pbc="T T T"
Na       1.93975379       1.37161245       3.35975166      -0.00000058      -0.00000013       0.00000096
Na       5.81926007       4.11483824      10.07925461       0.00000045      -0.00000063       0.00000094
P       -0.00000024      -0.00000020       0.00000021       0.00000221      -0.00000175      -0.00000082
Cl       1.89821346       1.34224019       6.71950279      -0.00155684      -0.00110213       0.00000005
Cl       5.86079994       4.14421085       6.71950293       0.00155822       0.00110354      -0.00000019
Cl       4.87015356       1.34224010       5.00365287       0.00077657      -0.00110165      -0.00135021
Cl       2.88885981       4.14421178       8.43535251      -0.00077755       0.00110099       0.00135018
Cl       2.88885994       4.14421138       5.00365281      -0.00077924       0.00110308      -0.00135256
Cl       4.87015385       1.34224000       8.43535225       0.00077675      -0.00110147       0.00135135
