9
Lattice="5.939828115953796 -2.5190580498300657e-07 3.429361051975761 1.9799424670669192 5.600123538876935 3.4293610532779293 -1.3937288653461482e-07 -9.695655921017947e-08 6.858722345352416" Properties=species:S:1:pos:R:3:forces:R:3 energy=-28.865550994873047 free_energy=-28.865550994873047 stress="1.910251194203738e-05 -1.6249062539941406e-08 -1.788956066617331e-10 -1.6249062539941406e-08 1.908606463985052e-05 -6.702294275129361e-09 -1.788956066617331e-10 -6.702294275129361e-09 1.9043523934669793e-05" pbc="T T T"
Na       1.97994247       1.40003080       3.42936120      -0.00000014       0.00000008       0.00000019
Na       5.93982791       4.20009236      10.28808338       0.00000005      -0.00000016      -0.00000005
Pt      -0.00000070      -0.00000017      -0.00000106       0.00001566       0.00000204       0.00002884
Cl       1.91210936       1.35206594       6.85872228       0.00080821       0.00057139       0.00000076
Cl       6.00766139       4.24805740       6.85872207      -0.00081813      -0.00057687      -0.00000083
Cl       4.98377316       1.35206555       5.08529667      -0.00040496       0.00057057       0.00070232
Cl       2.93599715       4.24805812       8.63214835       0.00040992      -0.00057992      -0.00071286
Cl       2.93599741       4.24805751       5.08529672       0.00040215      -0.00056867       0.00069671
Cl       4.98377348       1.35206515       8.63214833      -0.00041276       0.00058159      -0.00071482
