9
Lattice="6.219978590440226 3.8580543222714757e-08 3.591106272688269 2.073326227616432 5.864252057031465 3.591106282337627 -8.773850154569312e-09 5.613955211904261e-09 7.182212560573291" Properties=species:S:1:pos:R:3:forces:R:3 energy=-25.769994735717773 free_energy=-25.769994735717773 stress="-1.9045957742491737e-05 5.100052824502654e-09 1.7615939817972048e-09 5.100052824502654e-09 -1.9058443285757676e-05 -3.1226421448593555e-10 1.7615939817972048e-09 -3.1226421448593555e-10 -1.9082808648818173e-05" pbc="T T T"
Na       2.07332621       1.46606300       3.59110628       0.00000013       0.00000002       0.00000003
Na       6.21997860       4.39818910      10.77331885      -0.00000023      -0.00000003      -0.00000003
Pt       0.00000002       0.00000024      -0.00000020       0.00000065      -0.00000476       0.00000532
Br       2.03920959       1.44193899       7.18221256       0.00287799       0.00203543       0.00000023
Br       6.25409516       4.42231304       7.18221255      -0.00287694      -0.00203420      -0.00000026
Br       5.20037386       1.44193890       5.35711345      -0.00143849       0.00203520       0.00249309
Br       3.09293091       4.42231319       9.00731171       0.00143975      -0.00203562      -0.00249403
Br       3.09293098       4.42231312       5.35711349       0.00143760      -0.00203339       0.00249138
Br       5.20037392       1.44193882       9.00731177      -0.00144057       0.00203744      -0.00249571
