9
Lattice="4.948124752081142 -4.303825234578163e-08 2.8568011952637424 1.6493748949689622 4.665136629023039 2.8568011637655926 1.2411166218196562e-08 -2.980114218410327e-08 5.713602369030705" Properties=species:S:1:pos:R:3:forces:R:3 energy=-37.900089263916016 free_energy=-37.900089263916016 stress="0.00039179474697448313 -5.4066401133923137e-08 -1.1829635937488092e-08 -5.4066401133923137e-08 0.00039185621426440775 3.6091115873659874e-08 -1.1829635937488092e-08 3.6091115873659874e-08 0.00039189684321172535" pbc="T T T"
Na       1.64937510       1.16628377       2.85680123       0.00000006      -0.00000031      -0.00000003
Na       4.94812476       3.49885281       8.57040345       0.00000058       0.00000011       0.00000002
Pt       0.00000012      -0.00000014       0.00000006      -0.00000117      -0.00000303      -0.00001313
F        1.60194368       1.13274532       5.71360223      -0.00315224      -0.00222962       0.00000119
F        4.99555591       3.53239155       5.71360229       0.00315395       0.00222994       0.00000158
F        4.14715283       1.13274507       4.24412527       0.00157741      -0.00223044      -0.00273107
F        2.45034678       3.53239133       7.18307941      -0.00158004       0.00223489       0.00273871
F        2.45034671       3.53239136       4.24412535      -0.00157733       0.00223050      -0.00273210
F        4.14715281       1.13274513       7.18307956       0.00157883      -0.00223206       0.00273485
