9
Lattice="6.657421971491451 5.503453360915564e-08 3.843664394940426 2.219140672303911 6.276677716104239 3.8436644585880195 -5.844608994055604e-08 3.662439377728186e-08 7.687328891112445" Properties=species:S:1:pos:R:3:forces:R:3 energy=-22.099952697753906 free_energy=-22.099952697753906 stress="-0.00010443376959301531 -1.0547561046791998e-08 4.272607601052414e-09 -1.0547561046791998e-08 -0.00010442798520671204 -5.8136704339517564e-09 4.272607601052414e-09 -5.8136704339517564e-09 -0.0001044095479301177" pbc="T T T"
Na       2.21914070       1.56916947       3.84366420      -0.00000014      -0.00000016      -0.00000026
Na       6.65742193       4.70750822      11.53099338      -0.00000005      -0.00000002       0.00000020
Pd      -0.00000096      -0.00000008       0.00000067       0.00000620       0.00000141      -0.00000565
I        2.23369121       1.57945807       7.68732885      -0.00155407      -0.00109854       0.00000070
I        6.64287209       4.69722002       7.68732896       0.00154947       0.00109528      -0.00000007
I        5.54057609       1.57945794       5.77809774       0.00077488      -0.00109593      -0.00134295
I        3.33598685       4.69721968       9.59655941      -0.00077704       0.00109922       0.00134679
I        3.33598656       4.69721979       5.77809804      -0.00077627       0.00109756      -0.00134410
I        5.54057587       1.57945813       9.59655974       0.00077705      -0.00109879       0.00134538
