9
Lattice="6.189234457021589 2.7573555483389775e-08 3.5733560763762617 2.0630781825301026 5.835266050597349 3.573356069113845 -1.8086948449043653e-08 -2.1684056442040468e-08 7.146712184080072" Properties=species:S:1:pos:R:3:forces:R:3 energy=-24.75865936279297 free_energy=-24.75865936279297 stress="1.748432987369597e-05 1.8625556208462513e-08 -7.708187865773652e-09 1.8625556208462513e-08 1.7464462871430442e-05 9.216385876698041e-09 -7.708187865773652e-09 9.216385876698041e-09 1.7460941307945177e-05" pbc="T T T"
Na       2.06307820       1.45881663       3.57335606      -0.00000007      -0.00000022      -0.00000016
Na       6.18923434       4.37644955      10.72006804      -0.00000000      -0.00000000       0.00000021
Pd       0.00000051       0.00000013      -0.00000099      -0.00001175      -0.00000402       0.00001618
Br       2.05175168       1.45080733       7.14671218      -0.00341288      -0.00241357      -0.00000071
Br       6.20056033       4.38445824       7.14671218       0.00342315       0.00242113      -0.00000049
Br       5.16335857       1.45080772       5.35022577       0.00171018      -0.00241933      -0.00296425
Br       3.08895407       4.38445865       8.94319933      -0.00170601       0.00241275       0.00295444
Br       3.08895408       4.38445842       5.35022557      -0.00170889       0.00241659      -0.00296114
Br       5.16335868       1.45080760       8.94319911       0.00170633      -0.00241330       0.00295588
