9
Lattice="6.516389678636363 -8.742617210234566e-08 3.7622392734720185 2.172129870491462 6.1437109760974575 3.762239169481649 4.451758786007666e-08 -9.588297260439118e-08 7.524478469837303" Properties=species:S:1:pos:R:3:forces:R:3 energy=-23.87967300415039 free_energy=-23.87967300415039 stress="8.413570321863517e-05 -2.309801905298059e-09 7.513945909920494e-09 -2.309801905298059e-09 8.414257899858057e-05 -6.276487773959616e-09 7.513945909920494e-09 -6.276487773959616e-09 8.411901944782585e-05" pbc="T T T"
Na       2.17213005       1.53592767       3.76223917       0.00000009       0.00000013      -0.00000052
Na       6.51638945       4.60778327      11.28671762      -0.00000028      -0.00000006      -0.00000027
Pb       0.00000005       0.00000012       0.00000036       0.00000095      -0.00000327      -0.00000488
Br       2.27711665       1.61016446       7.52447892       0.00006095       0.00004276      -0.00000034
Br       6.41140309       4.53354623       7.52447896      -0.00006108      -0.00004312      -0.00000053
Br       5.37783175       1.61016403       5.73427968      -0.00003163       0.00004582       0.00005566
Br       3.31068842       4.53354581       9.31467664       0.00002848      -0.00003996      -0.00005092
Br       3.31068795       4.53354667       5.73427956       0.00003162      -0.00004432       0.00005361
Br       5.37783100       1.61016494       9.31467680      -0.00002910       0.00004203      -0.00005178
