9
Lattice="5.878540812218844 -1.315291549209668e-07 3.3939772423656587 1.9595134861328916 5.5423412548762165 3.3939772318576282 5.7377226074556896e-08 2.770201075079199e-08 6.7879543853511235" Properties=species:S:1:pos:R:3:forces:R:3 energy=-27.476924896240234 free_energy=-27.476924896240234 stress="0.00012152033013990149 -7.802397306022613e-08 -3.2464058108416793e-08 -7.802397306022613e-08 0.00012157515448052436 1.88495103969899e-08 -3.2464058108416793e-08 1.88495103969899e-08 0.0001216179589391686" pbc="T T T"
Na       1.95951387       1.38558514       3.39397720       0.00000029       0.00000020      -0.00000008
Na       5.87854079       4.15675614      10.18193147       0.00000025       0.00000027       0.00000002
Pd       0.00000090       0.00000237      -0.00000004      -0.00002742      -0.00005243      -0.00000385
Cl       1.91832856       1.35646279       6.78795492      -0.00366923      -0.00259268      -0.00000107
Cl       5.91972447       4.18587676       6.78795478       0.00370261       0.00262010      -0.00000154
Cl       4.91937597       1.35646404       5.05529986       0.00184375      -0.00260389      -0.00319241
Cl       2.91867851       4.18587641       8.52060803      -0.00184941       0.00261949       0.00320588
Cl       2.91867840       4.18587686       5.05529992      -0.00184561       0.00261453      -0.00320068
Cl       4.91937600       1.35646413       8.52060919       0.00184484      -0.00260556       0.00319402
