9
Lattice="4.726775849829026 -2.2365664105277941e-07 2.729005432412666 1.5755917483789283 4.4564462368665945 2.729005416302102 -1.2386326237243223e-07 -1.0731591992599782e-07 5.458011079362956" Properties=species:S:1:pos:R:3:forces:R:3 energy=-42.064029693603516 free_energy=-42.064029693603516 stress="4.819492460228503e-06 5.588160689740107e-08 -1.3424426903441145e-08 5.588160689740107e-08 4.817597073270008e-06 3.202079312814021e-08 -1.3424426903441145e-08 3.202079312814021e-08 4.7412495405296795e-06" pbc="T T T"
Na       1.57559184       1.11411142       2.72900563      -0.00000067      -0.00000002       0.00000003
Na       4.72677567       3.34233492       8.18701704       0.00000031      -0.00000009       0.00000059
P       -0.00000014      -0.00000017      -0.00000016      -0.00000483       0.00000396       0.00000670
F        1.39114811       0.98368990       5.45801078      -0.00117540      -0.00083184       0.00000130
F        4.91121929       3.47275585       5.45801041       0.00117564       0.00083238       0.00000134
F        4.03120184       0.98369007       3.93377494       0.00058842      -0.00083178      -0.00102127
F        2.27116545       3.47275627       6.98224713      -0.00058454       0.00082642       0.00101328
F        2.27116573       3.47275608       3.93377493      -0.00058562       0.00082785      -0.00101662
F        4.03120178       0.98368956       6.98224703       0.00058645      -0.00082797       0.00101423
