9
Lattice="5.0404127718780565 -2.3024271872299905e-09 2.91008378323259 1.6801376594123953 4.75214663870193 2.9100836603311957 1.0645344144995095e-07 -7.524888321416954e-08 5.820167382082458" Properties=species:S:1:pos:R:3:forces:R:3 energy=-37.618858337402344 free_energy=-37.618858337402344 stress="0.00014610424113925546 -1.047004527521267e-08 1.7043673139482962e-08 -1.047004527521267e-08 0.000146157355629839 -1.2278887240313452e-08 1.7043673139482962e-08 -1.2278887240313452e-08 0.00014619999274145812" pbc="T T T"
Na       1.68013738       1.18803686       2.91008348      -0.00000033       0.00000067      -0.00000025
Na       5.04041291       3.56410994       8.73025142       0.00000005      -0.00000052       0.00000030
Pb      -0.00000000      -0.00000007       0.00000003       0.00000388      -0.00000497      -0.00000643
F        1.70065554       1.20254514       5.82016749      -0.00060853      -0.00043212      -0.00000006
F        5.01989492       3.54960137       5.82016745       0.00060943       0.00043170       0.00000001
F        4.19008518       1.20254524       4.38289475       0.00030272      -0.00042917      -0.00052561
F        2.53046557       3.54960123       7.25743986      -0.00030687       0.00043489       0.00053339
F        2.53046541       3.54960144       4.38289495      -0.00030569       0.00043324      -0.00053109
F        4.19008531       1.20254516       7.25743993       0.00030529      -0.00043358       0.00052968
