9
Lattice="6.246683643156678 2.4671746193757926e-07 3.6065242877852137 2.0822280376700775 5.889430090731391 3.606524419402746 -3.448510209994779e-08 1.3681335157982354e-07 7.2130486353002885" Properties=species:S:1:pos:R:3:forces:R:3 energy=-28.93794822692871 free_energy=-28.93794822692871 stress="0.00015104899648576975 8.762991399180464e-08 -8.285553576570237e-09 8.762991399180464e-08 0.0001510024885646999 1.3880966598378564e-08 -8.285553576570237e-09 1.3880966598378564e-08 0.00015093163528945297" pbc="T T T"
Na       2.08222767       1.47235777       3.60652435       0.00000015       0.00000000       0.00000004
Na       6.24668382       4.41707271      10.81957290      -0.00000017      -0.00000012      -0.00000021
Ru       0.00000026       0.00000071       0.00000037      -0.00000665      -0.00000671       0.00000105
Br       2.04039592       1.44277825       7.21304863      -0.00564789      -0.00399394       0.00000060
Br       6.28851526       4.44665189       7.21304865       0.00565641       0.00399992       0.00000028
Br       5.22648593       1.44277797       5.37355856       0.00282205      -0.00399139      -0.00488764
Br       3.10242593       4.44665229       9.05253846      -0.00282197       0.00399075       0.00488731
Br       3.10242564       4.44665248       5.37355856      -0.00282243       0.00399107      -0.00488734
Br       5.22648609       1.44277787       9.05253893       0.00282054      -0.00398960       0.00488596
