9
Lattice="6.690811165744807 4.770291344579231e-08 3.8629416967028343 2.2302704759543994 6.3081570196153836 3.8629416232670626 7.47990129469519e-08 -3.7048920645320797e-08 7.72588326384995" Properties=species:S:1:pos:R:3:forces:R:3 energy=-25.399972915649414 free_energy=-25.399972915649414 stress="1.2707580935966689e-05 1.1711697167626767e-09 3.871693632362394e-09 1.1711697167626767e-09 1.2693554708675947e-05 -6.7450507401645154e-09 3.871693632362394e-09 -6.7450507401645154e-09 1.2704172149824444e-05" pbc="T T T"
Na       2.23027077       1.57703941       3.86294152      -0.00000029      -0.00000010      -0.00000004
Na       6.69081083       4.73111761      11.58882516       0.00000029       0.00000014      -0.00000001
Ru       0.00000009      -0.00000011       0.00000012       0.00000038       0.00000082       0.00000052
I        2.21174193       1.56393732       7.72588301       0.00070678       0.00050067       0.00000024
I        6.70933992       4.74421998       7.72588319      -0.00070831      -0.00050118       0.00000048
I        5.58494018       1.56393704       5.77836597      -0.00035309       0.00050013       0.00061272
I        3.33614124       4.74421978       9.67340065       0.00035418      -0.00050188      -0.00061371
I        3.33614154       4.74421980       5.77836605       0.00035371      -0.00049978       0.00061244
I        5.58494036       1.56393732       9.67340062      -0.00035366       0.00050118      -0.00061255
