9
Lattice="5.938693045945754 6.510847738488031e-08 3.428705988640367 1.9795643806538576 5.599053879813122 3.428706039527148 -3.536140462093306e-08 3.731913413541278e-08 6.857412038528477" Properties=species:S:1:pos:R:3:forces:R:3 energy=-30.410064697265625 free_energy=-30.410064697265625 stress="1.3320703146746382e-05 4.656670782310357e-08 3.5161804134986596e-08 4.656670782310357e-08 1.3241913620731793e-05 -2.9168482740260515e-08 3.5161804134986596e-08 -2.9168482740260515e-08 1.320147293881746e-05" pbc="T T T"
Na       1.97956429       1.39976359       3.42870579       0.00000006       0.00000003       0.00000002
Na       5.93869332       4.19929068      10.28611847       0.00000010       0.00000026       0.00000024
Rh      -0.00000098      -0.00000048      -0.00000013       0.00001516       0.00000771       0.00000083
Cl       1.90897127       1.34984650       6.85741205       0.00234771       0.00166000       0.00000022
Cl       6.00928686       4.24920801       6.85741218      -0.00236055      -0.00166845       0.00000103
Cl       4.98420792       1.34984584       5.08192247      -0.00117822       0.00166857       0.00204417
Cl       2.93404964       4.24920804       8.63290159       0.00117869      -0.00166754      -0.00204438
Cl       2.93404957       4.24920772       5.08192270       0.00117714      -0.00166805       0.00204025
Cl       4.98420762       1.34984607       8.63290128      -0.00118008       0.00166756      -0.00204261
