9
Lattice="6.337947153135445 1.8225675498605003e-07 3.659215135196009 2.112649257999587 5.975473713219772 3.6592150743645093 2.5629463106553343e-08 -5.638039062719282e-08 7.318430226000536" Properties=species:S:1:pos:R:3:forces:R:3 energy=-31.90069580078125 free_energy=-31.90069580078125 stress="0.00011441974493209273 6.379668349154599e-08 -2.790796926888106e-09 6.379668349154599e-08 0.00011437590001150966 -3.218793231951622e-09 -2.790796926888106e-09 -3.218793231951622e-09 0.00011431568418629467" pbc="T T T"
Na       2.11264881       1.49386838       3.65921506      -0.00000037      -0.00000010       0.00000019
Na       6.33794745       4.48160541      10.97764510      -0.00000005       0.00000004      -0.00000063
Re       0.00000007       0.00000169      -0.00000084      -0.00000046      -0.00002423       0.00001002
Br       2.05375712       1.45222541       7.31843016      -0.00232238      -0.00164230       0.00000071
Br       6.39683868       4.52324795       7.31843024       0.00233464       0.00165039       0.00000003
Br       5.31106905       1.45222500       5.43781986       0.00116008      -0.00163960      -0.00200684
Br       3.13952758       4.52324853       9.19904061      -0.00116227       0.00164290       0.00201188
Br       3.13952775       4.52324819       5.43782036      -0.00116493       0.00164793      -0.00201687
Br       5.31106928       1.45222477       9.19904119       0.00115578      -0.00163503       0.00200148
