9
Lattice="4.935791336643333 -3.0780026089531306e-08 2.8496804626917642 1.645263783898818 4.653508814134488 2.8496804037372634 -5.982557733416859e-08 -1.1450736578427086e-07 5.699361029004492" Properties=species:S:1:pos:R:3:forces:R:3 energy=-47.09100341796875 free_energy=-47.09100341796875 stress="0.00039641858893446624 5.677856407260151e-09 -1.0514775716785607e-08 5.677856407260151e-09 0.00039639524766243994 -1.6623419085703972e-08 -1.0514775716785607e-08 -1.6623419085703972e-08 0.00039638299494981766" pbc="T T T"
Na       1.64526384       1.16337714       2.84968042       0.00000005       0.00000000       0.00000008
Na       4.93579128       3.49013152       8.54904155       0.00000007       0.00000019      -0.00000002
Re       0.00000004      -0.00000010       0.00000016       0.00000194       0.00000590      -0.00000653
F        1.60928546       1.13793661       5.69936079      -0.00320906      -0.00226975       0.00000009
F        4.97176985       3.51557208       5.69936072       0.00320414       0.00226562      -0.00000021
F        4.13114865       1.13793651       4.24336257       0.00160225      -0.00226583      -0.00277439
F        2.44990622       3.51557219       7.15535946      -0.00160298       0.00226755       0.00277691
F        2.44990617       3.51557218       4.24336226      -0.00160102       0.00226504      -0.00277442
F        4.13114856       1.13793657       7.15535951       0.00160463      -0.00226867       0.00277857
