9
Lattice="5.994775373087853 -1.1817218700547294e-07 3.4610851559401232 1.9982582765331642 5.651928496685953 3.461085276748959 -5.685854477511202e-08 1.0775490550238047e-07 6.922170410362145" Properties=species:S:1:pos:R:3:forces:R:3 energy=-35.680877685546875 free_energy=-35.680877685546875 stress="0.00019195642380509526 -7.812508329152479e-08 -2.987177794011586e-08 -7.812508329152479e-08 0.00019202064140699804 3.727506836526118e-08 -2.987177794011586e-08 3.727506836526118e-08 0.00019206055731046945" pbc="T T T"
Na       1.99825832       1.41298202       3.46108556      -0.00000014       0.00000010       0.00000018
Na       5.99477539       4.23894664      10.38325520       0.00000026       0.00000004      -0.00000011
Re       0.00000033      -0.00000059      -0.00000040      -0.00000509       0.00001049       0.00000047
Cl       1.93413776       1.36764238       6.92217036      -0.00331756      -0.00234582       0.00000013
Cl       6.05889604       4.28428663       6.92217052       0.00331375       0.00234367      -0.00000007
Cl       5.02770582       1.36764270       5.13609845       0.00166556      -0.00235452      -0.00288361
Cl       2.96532744       4.28428593       8.70824265      -0.00166088       0.00234975       0.00287798
Cl       2.96532723       4.28428602       5.13609813      -0.00165881       0.00234795      -0.00287496
Cl       5.02770596       1.36764217       8.70824287       0.00166287      -0.00235164       0.00288019
