9
Lattice="6.862410726323716 3.0189585385727354e-07 3.962014344104915 2.287470381795779 6.469942924343988 3.962014595152336 -2.855283132692601e-07 1.0557002873691802e-07 7.924029182759419" Properties=species:S:1:pos:R:3:forces:R:3 energy=-28.329259872436523 free_energy=-28.329259872436523 stress="0.00010993790783686563 5.60318582643049e-08 -1.6727927487636407e-08 5.60318582643049e-08 0.00010989033035002649 2.199177195905122e-08 -1.6727927487636407e-08 2.199177195905122e-08 0.00010986650158884004" pbc="T T T"
Na       2.28747014       1.61748588       3.96201458      -0.00000054       0.00000039       0.00000036
Na       6.86241050       4.85245746      11.88604368       0.00000061      -0.00000049      -0.00000016
Re       0.00000029       0.00000068      -0.00000123      -0.00000248      -0.00000979       0.00001481
I        2.23420054       1.57981875       7.92402870      -0.00414102      -0.00292889       0.00000019
I        6.91567937       4.89012441       7.92402871       0.00414896       0.00293247       0.00000085
I        5.74531021       1.57981884       5.89688848       0.00207054      -0.00292836      -0.00358579
I        3.40457043       4.89012539       9.95116967      -0.00206815       0.00292447       0.00358287
I        3.40457052       4.89012478       5.89688898      -0.00207172       0.00292921      -0.00358774
I        5.74531131       1.57981712       9.95117083       0.00206381      -0.00291899       0.00357458
