9
Lattice="6.69734312610473 -1.8322700695934533e-08 3.8667129063819625 2.2324477106423464 6.314315810736108 3.8667128730995457 -1.4358408321339987e-08 -5.091532006658984e-08 7.733425837633479" Properties=species:S:1:pos:R:3:forces:R:3 energy=-24.65123176574707 free_energy=-24.65123176574707 stress="1.2389452422212344e-05 -2.24643059709706e-08 3.449494023755051e-09 -2.24643059709706e-08 1.2399422303133179e-05 8.045262234190886e-09 3.449494023755051e-09 8.045262234190886e-09 1.24192856674199e-05" pbc="T T T"
Na       2.23244766       1.57857857       3.86671286       0.00000038      -0.00000003      -0.00000005
Na       6.69734306       4.73573706      11.60013859      -0.00000012      -0.00000018      -0.00000003
Rh      -0.00000009       0.00000168       0.00000054       0.00000019      -0.00001747      -0.00000578
I        2.19940949       1.55521660       7.73342597      -0.00221922      -0.00156874      -0.00000002
I        6.73038090       4.75909833       7.73342573       0.00222693       0.00157461      -0.00000011
I        5.59763860       1.55521717       5.77145705       0.00110969      -0.00156917      -0.00192173
I        3.33215263       4.75909797       9.69539378      -0.00111529       0.00157720       0.00193207
I        3.33215237       4.75909820       5.77145771      -0.00111371       0.00157490      -0.00192875
I        5.59763866       1.55521741       9.69539419       0.00111119      -0.00157113       0.00192430
