9
Lattice="5.917764464879018 -6.041314164904722e-08 3.41662304095586 1.9725881508738459 5.579321737625837 3.416622949378346 1.0613084144931659e-07 -3.7113176102632705e-08 6.833245898087585" Properties=species:S:1:pos:R:3:forces:R:3 energy=-32.21131134033203 free_energy=-32.21131134033203 stress="4.3243810068815947e-05 3.4875395016342736e-08 2.407785082425562e-08 3.4875395016342736e-08 4.325565168983303e-05 -4.381878859760491e-09 2.407785082425562e-08 -4.381878859760491e-09 4.323442772147246e-05" pbc="T T T"
Na       1.97258853       1.39482998       3.41662277      -0.00000021      -0.00000040       0.00000001
Na       5.91776449       4.18449135      10.24986855       0.00000054      -0.00000025      -0.00000064
Ru       0.00000011      -0.00000051       0.00000020      -0.00000257       0.00001036       0.00000213
Cl       1.91527598       1.35430506       6.83324587      -0.00045413      -0.00032139       0.00000057
Cl       5.97507722       4.22501692       6.83324604       0.00044918       0.00032029      -0.00000015
Cl       4.96012676       1.35430451       5.07530054       0.00022615      -0.00031996      -0.00039324
Cl       2.93022567       4.22501701       8.59119220      -0.00022194       0.00031587       0.00038424
Cl       2.93022542       4.22501736       5.07530008      -0.00022341       0.00031716      -0.00038633
Cl       4.96012679       1.35430485       8.59119135       0.00022620      -0.00032178       0.00039327
