9
Lattice="4.90575990683164 2.2236646997602115e-09 2.8323417708604652 1.6352533348845455 4.625194734311971 2.832341718014184 9.732389444837925e-09 -5.784143161207777e-08 5.664683524864048" Properties=species:S:1:pos:R:3:forces:R:3 energy=-42.699947357177734 free_energy=-42.699947357177734 stress="0.00026799776242114604 7.924660394564853e-08 2.888007166745865e-08 7.924660394564853e-08 0.0002679227327462286 -4.736877201594325e-08 2.888007166745865e-08 -4.736877201594325e-08 0.00026787197566591203" pbc="T T T"
Na       1.63525327       1.15629882       2.83234192       0.00000028      -0.00000006       0.00000021
Na       4.90576016       3.46889598       8.49702554      -0.00000008       0.00000024       0.00000013
Ru      -0.00000001       0.00000007      -0.00000015       0.00000006       0.00000197       0.00001157
F        1.58582721       1.12134887       5.66468343      -0.00150640      -0.00106416       0.00000012
F        4.95518621       3.50384581       5.66468347       0.00150326       0.00106311      -0.00000016
F        4.11284643       1.12134882       4.20570801       0.00075102      -0.00106103      -0.00130042
F        2.42816650       3.50384608       7.12365906      -0.00074620       0.00105570       0.00129230
F        2.42816672       3.50384553       4.20570807      -0.00075149       0.00106330      -0.00130173
F        4.11284654       1.12134873       7.12365881       0.00074961      -0.00105915       0.00129802
