9
Lattice="4.874472308966464 -6.001492247358395e-08 2.814277979018003 1.6248240393530278 4.595696629789018 2.814277991234492 -1.9956119861676795e-08 8.510006013039608e-10 5.6285559926009885" Properties=species:S:1:pos:R:3:forces:R:3 energy=-39.860164642333984 free_energy=-39.860164642333984 stress="0.0003008084022440016 -1.3270920362629113e-07 -2.2464028859303653e-08 -1.3270920362629113e-07 0.00030086925835348666 4.037731216044449e-08 -2.2464028859303653e-08 4.037731216044449e-08 0.00030100264120846987" pbc="T T T"
Na       1.62482445       1.14892408       2.81427788      -0.00000026      -0.00000034      -0.00000024
Na       4.87447227       3.44677231       8.44283387       0.00000018       0.00000025      -0.00000040
Rh      -0.00000007      -0.00000011      -0.00000009       0.00000539       0.00000334      -0.00000278
F        1.58263536       1.11909245       5.62855629      -0.00201029      -0.00142189      -0.00000072
F        4.91666088       3.47660436       5.62855645       0.00200574       0.00141752      -0.00000070
F        4.08315422       1.11909216       4.18488108       0.00100799      -0.00142465      -0.00174704
F        2.41614197       3.47660376       7.07223044      -0.00100986       0.00142871       0.00175057
F        2.41614190       3.47660453       4.18488110      -0.00100677       0.00142279      -0.00174540
F        4.08315432       1.11909269       7.07223076       0.00100780      -0.00142566       0.00174647
