9
Lattice="6.17899420466317 -5.166771677650561e-08 3.56744401289334 2.05966469393884 5.825611571496821 3.56744399944581 6.156660798429809e-09 -1.2116368977655814e-08 7.134888015123029" Properties=species:S:1:pos:R:3:forces:R:3 energy=-21.78378677368164 free_energy=-21.78378677368164 stress="9.589943510945886e-05 -5.69195712785131e-09 6.608494640403251e-09 -5.69195712785131e-09 9.588991815689951e-05 -5.817546888664538e-09 6.608494640403251e-09 -5.817546888664538e-09 9.590628906153142e-05" pbc="T T T"
Na       2.05966493       1.45640293       3.56744422      -0.00000005      -0.00000003       0.00000022
Na       6.17899400       4.36920871      10.70233218      -0.00000009       0.00000020       0.00000026
S       -0.00000035      -0.00000017      -0.00000009       0.00000288      -0.00000022      -0.00000086
Br       2.08135820       1.47174243       7.13488819      -0.00413355      -0.00292277      -0.00000031
Br       6.15730085       4.35386907       7.13488791       0.00413223       0.00292246       0.00000009
Br       5.13831519       1.47174233       5.36995312       0.00206544      -0.00292248      -0.00357996
Br       3.10034397       4.35386887       8.89982283      -0.00206627       0.00292318       0.00357907
Br       3.10034385       4.35386919       5.36995320      -0.00206673       0.00292300      -0.00357927
Br       5.13831501       1.47174263       8.89982257       0.00206605      -0.00292335       0.00358085
