9
Lattice="6.050934677400558 -2.4284894877722857e-07 3.493508946285665 2.016977966479793 5.704875893631053 3.493508998871015 -3.089982799967441e-08 4.255419145788674e-08 6.987017946091448" Properties=species:S:1:pos:R:3:forces:R:3 energy=-25.190317153930664 free_energy=-25.190317153930664 stress="0.0001659607805777341 -4.608072856626677e-08 -7.242648258909412e-09 -4.608072856626677e-08 0.0001659777044551447 7.929275014362247e-09 -7.242648258909412e-09 7.929275014362247e-09 0.00016601203242316842" pbc="T T T"
Na       2.01697804       1.42621931       3.49350881       0.00000022       0.00000039       0.00000015
Na       6.05093460       4.27865650      10.48052693       0.00000039      -0.00000035      -0.00000026
Se      -0.00000015      -0.00000027      -0.00000001       0.00000068       0.00000297      -0.00000014
Cl       1.98260484       1.40191346       6.98701806      -0.00511718      -0.00361856       0.00000038
Cl       6.08530818       4.30296282       6.98701805       0.00511503       0.00361518       0.00000018
Cl       5.05963154       1.40191378       5.21049590       0.00256166      -0.00362157      -0.00443522
Cl       3.00828094       4.30296184       8.76353976      -0.00256091       0.00362157       0.00443594
Cl       3.00828088       4.30296178       5.21049617      -0.00256033       0.00362029      -0.00443493
Cl       5.05963159       1.40191365       8.76353993       0.00256050      -0.00361993       0.00443391
