9
Lattice="6.785601538221666 -2.0969739840956064e-07 3.9176690398281178 2.2618669908564066 6.397526378585039 3.917669023973114 1.6630406545947404e-08 -7.658801533924277e-09 7.835338050851474" Properties=species:S:1:pos:R:3:forces:R:3 energy=-22.503070831298828 free_energy=-22.503070831298828 stress="5.6869426771299914e-05 -8.262811768133815e-09 6.687353337753166e-09 -8.262811768133815e-09 5.687329758075066e-05 -4.381846441248172e-09 6.687353337753166e-09 -4.381846441248172e-09 5.689584941137582e-05" pbc="T T T"
Na       2.26186691       1.59938155       3.91766892      -0.00000020      -0.00000007      -0.00000065
Na       6.78560165       4.79814456      11.75300727      -0.00000011      -0.00000051       0.00000028
Si       0.00000014      -0.00000010       0.00000030      -0.00000005      -0.00000008      -0.00000119
I        2.21775364       1.56818852       7.83533820      -0.00087517      -0.00061942      -0.00000073
I        6.82971455       4.82933768       7.83533803       0.00087571       0.00061910      -0.00000069
I        5.67672491       1.56818857       5.83830044       0.00043730      -0.00061819      -0.00075784
I        3.37074398       4.82933732       9.83237544      -0.00043829       0.00062045       0.00075977
I        3.37074388       4.82933749       5.83830063      -0.00043760       0.00061912      -0.00075887
I        5.67672451       1.56818903       9.83237521       0.00043845      -0.00062042       0.00075985
