9
Lattice="5.010177525518248 -1.8292099250277342e-08 2.8926272723238404 1.6700591561259552 4.723640744435334 2.8926272754428797 -4.17037270102491e-08 -2.566885040420578e-08 5.785254616880701" Properties=species:S:1:pos:R:3:forces:R:3 energy=-40.850555419921875 free_energy=-40.850555419921875 stress="0.0004007530806120485 4.669422182246308e-08 9.127024469535172e-09 4.669422182246308e-08 0.000400787394028157 -2.7642958144724616e-08 9.127024469535172e-09 -2.7642958144724616e-08 0.0004006259550806135" pbc="T T T"
Na       1.67005916       1.18091005       2.89262713       0.00000060       0.00000046       0.00000002
Na       5.01017747       3.54273061       8.67788191      -0.00000044      -0.00000059       0.00000005
Sn      -0.00000004      -0.00000005      -0.00000005       0.00000005      -0.00000135       0.00000244
F        1.62153614       1.14659936       5.78525468      -0.00389224      -0.00275207      -0.00000029
F        5.05870043       3.57704157       5.78525467       0.00389177       0.00275078      -0.00000059
F        4.19940945       1.14659896       4.29691854       0.00194398      -0.00274801      -0.00336415
F        2.48082724       3.57704147       7.27359051      -0.00194404       0.00274959       0.00336432
F        2.48082739       3.57704144       4.29691859      -0.00194472       0.00275102      -0.00336739
F        4.19940922       1.14659943       7.27359054       0.00194511      -0.00275010       0.00336599
