9
Lattice="6.10811770890171 9.223140572492805e-08 3.5265232698616655 2.0360393096249947 5.758788448720979 3.5265232934733657 4.000014394114198e-08 5.72026445125886e-08 7.053046470441146" Properties=species:S:1:pos:R:3:forces:R:3 energy=-28.92689323425293 free_energy=-28.92689323425293 stress="0.00015891424845904112 2.778461194452575e-08 -8.109449112225775e-09 2.778461194452575e-08 0.0001589063904248178 -1.031727148159689e-08 -8.109449112225775e-09 -1.031727148159689e-08 0.00015888907364569604" pbc="T T T"
Na       2.03603913       1.43969702       3.52652329      -0.00000030       0.00000008       0.00000032
Na       6.10811781       4.31909155      10.57956969       0.00000000      -0.00000014      -0.00000041
Sn       0.00000017       0.00000015      -0.00000021      -0.00000403      -0.00000319      -0.00000293
Cl       2.01567272       1.42529586       7.05304646      -0.00228590      -0.00161647       0.00000012
Cl       6.12848413       4.33349245       7.05304676       0.00229080       0.00162041      -0.00000084
Cl       5.10028190       1.42529535       5.27214685       0.00114172      -0.00161481      -0.00197880
Cl       3.04387573       4.33349294       8.83394631      -0.00114356       0.00161676       0.00198041
Cl       3.04387516       4.33349312       5.27214673      -0.00114169       0.00161507      -0.00197841
Cl       5.10028152       1.42529597       8.83394633       0.00114288      -0.00161769       0.00198060
