9
Lattice="5.901260684604638 -8.829950925696287e-10 3.4070945180439707 1.9670868486336393 5.563761865376798 3.4070945966827866 -3.310074535376945e-08 7.290681999210891e-08 6.814189093420058" Properties=species:S:1:pos:R:3:forces:R:3 energy=-24.744308471679688 free_energy=-24.744308471679688 stress="-0.00024567986838519573 -1.0227256819206332e-09 -1.961860895960399e-08 -1.0227256819206332e-09 -0.0002456836518831551 1.5470160263930666e-08 -1.961860895960399e-08 1.5470160263930666e-08 -0.00024565341300331056" pbc="T T T"
Na       1.96708683       1.39094027       3.40709470      -0.00000068      -0.00000030       0.00000023
Na       5.90126069       4.17282156      10.22128367       0.00000034       0.00000051       0.00000053
S        0.00000008       0.00000004       0.00000043      -0.00000189       0.00000148      -0.00000288
Cl       1.93599936       1.36895858       6.81418906       0.00667912       0.00472286       0.00000046
Cl       5.93234844       4.19480345       6.81418919      -0.00667903      -0.00472218      -0.00000038
Cl       4.93326061       1.36895889       5.08372013      -0.00333813       0.00472096       0.00578091
Cl       2.93508688       4.19480307       8.54465810       0.00333843      -0.00472164      -0.00578207
Cl       2.93508635       4.19480325       5.08371941       0.00334097      -0.00472400       0.00578555
Cl       4.93326084       1.36895869       8.54465805      -0.00333913       0.00472233      -0.00578237
