9
Lattice="5.794845114822203 -2.3647703496637664e-08 3.3456555264198418 1.9316149752141458 5.4634322324339655 3.3456555970264263 -1.0719953074382999e-07 1.0673493732521487e-08 6.691311238514725" Properties=species:S:1:pos:R:3:forces:R:3 energy=-30.78312873840332 free_energy=-30.78312873840332 stress="-2.3381004211842082e-05 -2.665512255362046e-08 -2.4757758509963423e-08 -2.665512255362046e-08 -2.353215495531913e-05 8.926164807299131e-10 -2.4757758509963423e-08 8.926164807299131e-10 -2.3355223675025627e-05" pbc="T T T"
Na       1.93161472       1.36585837       3.34565533      -0.00000045      -0.00000001       0.00000009
Na       5.79484508       4.09757414      10.03696682       0.00000005       0.00000023       0.00000001
Si       0.00000005      -0.00000014      -0.00000010       0.00000248      -0.00000124       0.00000101
Cl       1.81676930       1.28464851       6.69131154       0.00292002       0.00207122       0.00000042
Cl       5.90969106       4.17878333       6.69131156      -0.00292088      -0.00207108      -0.00000142
Cl       4.88646023       1.28464892       4.91902413      -0.00145748       0.00206730       0.00252626
Cl       2.83999986       4.17878336       8.46359795       0.00145688      -0.00206743      -0.00252517
Cl       2.83999960       4.17878317       4.91902412       0.00145865      -0.00206765       0.00252663
Cl       4.88646012       1.28464904       8.46359803      -0.00145944       0.00206847      -0.00252784
