9
Lattice="4.972384918961409 -9.032417998278314e-08 2.870807973497776 1.6574614994075318 4.6880100282467945 2.8708080689126896 -9.564590324411303e-08 4.922707876253848e-08 5.741616112659176" Properties=species:S:1:pos:R:3:forces:R:3 energy=-36.580665588378906 free_energy=-36.580665588378906 stress="0.00011038935190299526 -1.0160144370274793e-07 -2.4382693197821936e-08 -1.0160144370274793e-07 0.00011046869622077793 5.156544347073577e-08 -2.4382693197821936e-08 5.156544347073577e-08 0.00011056372022721916" pbc="T T T"
Na       1.65746167       1.17200282       2.87080783      -0.00000021       0.00000044       0.00000014
Na       4.97238457       3.51600733       8.61242407      -0.00000003      -0.00000015      -0.00000042
Se      -0.00000002      -0.00000025       0.00000004      -0.00000098      -0.00000175      -0.00000411
F        1.59668970       1.12903025       5.74161639      -0.00106284      -0.00075214       0.00000021
F        5.03315652       3.55897974       5.74161637       0.00106463       0.00075310       0.00000038
F        4.17403990       1.12903077       4.25358235       0.00053664      -0.00075880      -0.00092855
F        2.45580649       3.55897923       7.22964940      -0.00053737       0.00075965       0.00093170
F        2.45580674       3.55897915       4.25358255      -0.00053518       0.00075676      -0.00092727
F        4.17403966       1.12903095       7.22964935       0.00053525      -0.00075718       0.00092789
