9
Lattice="6.416037912888051 8.234100147892757e-08 3.704301028556174 2.1386793962914 6.049098514642127 3.7043010036776405 1.6934429371932924e-08 -1.849531086077671e-08 7.408602027781002" Properties=species:S:1:pos:R:3:forces:R:3 energy=-25.26458168029785 free_energy=-25.26458168029785 stress="6.046197086106986e-05 3.032070594599645e-08 8.024482411883582e-09 3.032070594599645e-08 6.043566099833697e-05 -2.7674647018471887e-09 8.024482411883582e-09 -2.7674647018471887e-09 6.0407510318327695e-05" pbc="T T T"
Na       2.13867912       1.51227449       3.70430102      -0.00000016       0.00000016       0.00000039
Na       6.41603811       4.53682406      11.11290295      -0.00000011      -0.00000021      -0.00000046
Sn       0.00000048       0.00000017       0.00000033      -0.00000805      -0.00000342      -0.00000466
Br       2.16199110       1.52875862       7.40860201      -0.00028274      -0.00020005      -0.00000002
Br       6.39272570       4.52033961       7.40860200       0.00029206       0.00020588       0.00000051
Br       5.33504255       1.52875848       5.57663939       0.00014072      -0.00020031      -0.00024360
Br       3.21967484       4.52034022       9.24056461      -0.00014210       0.00020055       0.00024562
Br       3.21967487       4.52034019       5.57663942      -0.00014234       0.00019949      -0.00024429
Br       5.33504253       1.52875849       9.24056453       0.00014268      -0.00020210       0.00024653
