9
Lattice="6.432588586571936 7.91440458788943e-09 3.7138566866033442 2.1441961964171736 6.064702572691498 3.713856697980446 1.4080329449941582e-08 2.3890393170887425e-08 7.427713348818861" Properties=species:S:1:pos:R:3:forces:R:3 energy=-21.86836814880371 free_energy=-21.86836814880371 stress="0.00015464208263438195 6.702507437950089e-10 5.384148682452405e-09 6.702507437950089e-10 0.00015464119496755302 -9.735180661607501e-09 5.384148682452405e-09 -9.735180661607501e-09 0.00015464334865100682" pbc="T T T"
Na       2.14419627       1.51617606       3.71385673      -0.00000016       0.00000055       0.00000009
Na       6.43258855       4.54852674      11.14157014       0.00000009      -0.00000010      -0.00000014
Se      -0.00000022      -0.00000064       0.00000054       0.00000063       0.00000272      -0.00000282
Br       2.14109385       1.51398196       7.42771342      -0.00230053      -0.00162704       0.00000029
Br       6.43569119       4.55072083       7.42771349       0.00229905       0.00162600       0.00000014
Br       5.36204191       1.51398174       5.56809827       0.00114937      -0.00162562      -0.00199136
Br       3.21474297       4.55072087       9.28732828      -0.00114947       0.00162514       0.00199165
Br       3.21474273       4.55072091       5.56809799      -0.00114955       0.00162555      -0.00199098
Br       5.36204195       1.51398195       9.28732810       0.00115056      -0.00162721       0.00199312
