9
Lattice="7.013271435882393 -1.666089793938504e-07 4.049114205192167 2.337757039845674 6.612175671315947 4.049114115762952 7.75945159282549e-08 -5.4660413592725675e-08 8.098228275986783" Properties=species:S:1:pos:R:3:forces:R:3 energy=-21.636152267456055 free_energy=-21.636152267456055 stress="6.896820559632033e-05 -1.0737621458645208e-08 8.461530143222262e-09 -1.0737621458645208e-08 6.897078856127337e-05 -4.3208214783874155e-09 8.461530143222262e-09 -4.3208214783874155e-09 6.898067658767104e-05" pbc="T T T"
Na       2.33775697       1.65304362       4.04911385      -0.00000077       0.00000038      -0.00000041
Na       7.01327144       4.95913172      12.14734265       0.00000018      -0.00000038       0.00000011
Sn       0.00000027      -0.00000029      -0.00000031      -0.00000148       0.00000197       0.00000007
I        2.41849852       1.71013632       8.09822812      -0.00065860      -0.00046439      -0.00000024
I        6.93253032       4.90203904       8.09822837       0.00065771       0.00046478       0.00000052
I        5.80402231       1.71013643       6.14359564       0.00033070      -0.00046647      -0.00057027
I        3.54700580       4.90203944      10.05286151      -0.00032854       0.00046490       0.00056943
I        3.54700653       4.90203927       6.14359529      -0.00032914       0.00046524      -0.00057079
I        5.80402208       1.71013625      10.05286126       0.00032993      -0.00046600       0.00057165
