9
Lattice="6.673464253845339 -5.987112745857745e-08 3.852926427129051 2.2244880181196547 6.291802510215014 3.85292644453345 -3.6169081636302843e-08 -4.259460738406512e-09 7.705852916904806" Properties=species:S:1:pos:R:3:forces:R:3 energy=-18.856639862060547 free_energy=-18.856639862060547 stress="-1.9901997802662663e-05 -2.8455457989906563e-09 1.1019940515666349e-08 -2.8455457989906563e-09 -1.9899418475688435e-05 -1.3069418436373326e-08 1.1019940515666349e-08 -1.3069418436373326e-08 -1.9898014215868898e-05" pbc="T T T"
Na       2.22448798       1.57295064       3.85292639      -0.00000007      -0.00000056      -0.00000031
Na       6.67346417       4.71885171      11.55877946       0.00000008       0.00000022       0.00000055
S       -0.00000030      -0.00000025       0.00000002      -0.00000032      -0.00000056      -0.00000008
I        2.34780155       1.66014661       7.70585280      -0.00714020      -0.00504901      -0.00000001
I        6.55015101       4.63165607       7.70585296       0.00714064       0.00504951       0.00000026
I        5.49956344       1.66014663       5.88618211       0.00357029      -0.00504875      -0.00618322
I        3.39838877       4.63165597       9.52552366      -0.00357015       0.00504842       0.00618328
I        3.39838879       4.63165601       5.88618206      -0.00357047       0.00504988      -0.00618404
I        5.49956354       1.66014637       9.52552371       0.00357021      -0.00504923       0.00618359
