9
Lattice="7.017100995412134 4.1255100822699305e-08 4.051325259877199 2.339033682356843 6.61578638121838 4.051325297421482 1.107756051321834e-08 5.381521485728636e-08 8.102650500567401" Properties=species:S:1:pos:R:3:forces:R:3 energy=-30.066774368286133 free_energy=-30.066774368286133 stress="4.5748714910587296e-05 -2.72745506180172e-08 -6.8150298737634785e-09 -2.72745506180172e-08 4.577439176500775e-05 1.4731980968463176e-08 -6.8150298737634785e-09 1.4731980968463176e-08 4.580308814183809e-05" pbc="T T T"
Na       2.33903345       1.65394715       4.05132498       0.00000086      -0.00000098      -0.00000071
Na       7.01710133       4.96183949      12.15397600      -0.00000034       0.00000118       0.00000059
Ta      -0.00000015       0.00000028      -0.00000031       0.00000426      -0.00000459      -0.00000079
I        2.28446235       1.61535900       8.10265066      -0.00016573      -0.00011821       0.00000015
I        7.07167250       5.00042774       8.10265066       0.00016487       0.00011656      -0.00000028
I        5.87486973       1.61535894       6.02972786       0.00008385      -0.00011875      -0.00014512
I        3.48126495       5.00042711      10.17557269      -0.00008598       0.00012214       0.00015056
I        3.48126492       5.00042724       6.02972838      -0.00008519       0.00012073      -0.00014870
I        5.87486972       1.61535894      10.17557333       0.00008331      -0.00011815       0.00014429
