9
Lattice="6.539473205267971 2.5935221675966965e-07 3.7755664969752876 2.1798246210684087 6.165474308041732 3.775566540635382 1.8148471573786507e-08 6.630531499927828e-08 7.5511329625165" Properties=species:S:1:pos:R:3:forces:R:3 energy=-22.866283416748047 free_energy=-22.866283416748047 stress="8.040741522563621e-05 1.853146791575e-08 2.0481403240069085e-09 1.853146791575e-08 8.040178363444284e-05 1.1993365189866267e-09 2.0481403240069085e-09 1.1993365189866267e-09 8.038980740820989e-05" pbc="T T T"
Na       2.17982456       1.54136857       3.77556647      -0.00000002      -0.00000008      -0.00000094
Na       6.53947306       4.62410595      11.32669968       0.00000009       0.00000035       0.00000078
Te       0.00000079       0.00000057      -0.00000028      -0.00000540      -0.00000446      -0.00000200
Br       2.23005347       1.57688579       7.55113305      -0.00130166      -0.00092036      -0.00000013
Br       6.48924424       4.58858853       7.55113286       0.00130568       0.00092366       0.00000026
Br       5.42444690       1.57688536       5.70684901       0.00065025      -0.00091934      -0.00112682
Br       3.29485084       4.58858908       9.39541738      -0.00065029       0.00092063       0.00112749
Br       3.29485079       4.58858924       5.70684863      -0.00064965       0.00091925      -0.00112623
Br       5.42444679       1.57688546       9.39541722       0.00065092      -0.00091966       0.00112764
