9
Lattice="5.01559605980023 3.9843021350947595e-07 2.895755627988535 1.6718656671041905 4.728749319429639 2.8957557350398657 2.739160339951226e-08 1.5047936320462548e-07 5.791511208533381" Properties=species:S:1:pos:R:3:forces:R:3 energy=-51.73528289794922 free_energy=-51.73528289794922 stress="0.00032592163188382983 2.4817428112555717e-08 -2.471434790152216e-08 2.4817428112555717e-08 0.00032578129321336746 3.7199637148432885e-08 -2.471434790152216e-08 3.7199637148432885e-08 0.0003259194199927151" pbc="T T T"
Na       1.67186557       1.18218736       2.89575571      -0.00000059       0.00000027      -0.00000008
Na       5.01559639       3.54656242       8.68726724       0.00000022      -0.00000009       0.00000016
Ta      -0.00000017      -0.00000006      -0.00000021      -0.00000054      -0.00000490       0.00000302
F        1.59844413       1.13027147       5.79151106      -0.00204170      -0.00144327       0.00000003
F        5.08901747       3.59847821       5.79151126       0.00204504       0.00144613      -0.00000010
F        4.21637399       1.13027122       4.28004932       0.00102085      -0.00144434      -0.00176966
F        2.47108779       3.59847871       7.30297312      -0.00102103       0.00144410       0.00176871
F        2.47108768       3.59847872       4.28004910      -0.00101876       0.00144088      -0.00176573
F        4.21637399       1.13027119       7.30297323       0.00101656      -0.00143862       0.00176263
