9
Lattice="4.841432101179175 1.482671853728555e-08 2.7952020647436107 1.6138106687386484 4.564545824182292 2.7952021437826104 -5.690381841058382e-08 5.656551955511592e-08 5.590404228047544" Properties=species:S:1:pos:R:3:forces:R:3 energy=-49.605323791503906 free_energy=-49.605323791503906 stress="0.00037750633782707155 2.3053969400166352e-08 -5.739892472433894e-08 2.3053969400166352e-08 0.0003774066863115877 1.1114908460285733e-07 -5.739892472433894e-08 1.1114908460285733e-07 0.00037747618625871837" pbc="T T T"
Na       1.61381073       1.14113646       2.79520204      -0.00000006      -0.00000077      -0.00000055
Na       4.84143201       3.42340945       8.38560620      -0.00000025       0.00000033       0.00000021
Ti      -0.00000012      -0.00000012      -0.00000024       0.00000438       0.00000727       0.00000816
F        1.53427435       1.08489559       5.59040443      -0.00305587      -0.00215992      -0.00000107
F        4.92096861       3.47965026       5.59040435       0.00305068       0.00215619      -0.00000032
F        4.07429513       1.08489570       4.12392256       0.00152796      -0.00216118      -0.00264854
F        2.38094785       3.47965049       7.05688585      -0.00152625       0.00215743       0.00264407
F        2.38094739       3.47965051       4.12392242      -0.00152381       0.00215391      -0.00264005
F        4.07429484       1.08489527       7.05688593       0.00152353      -0.00215326       0.00263826
