9
Lattice="6.328551559717121 2.1265514451045902e-08 3.6537910834080933 2.109517176902157 5.96661576689414 3.6537911348837837 -5.8640798961351555e-08 2.1579294947337714e-08 7.307582268385077" Properties=species:S:1:pos:R:3:forces:R:3 energy=-31.627649307250977 free_energy=-31.627649307250977 stress="6.0959820984862745e-05 -4.819696641789051e-09 6.886884840184848e-09 -4.819696641789051e-09 6.095081698731519e-05 -1.4830226824358306e-08 6.886884840184848e-09 -1.4830226824358306e-08 6.0973728977842256e-05" pbc="T T T"
Na       2.10951706       1.49165396       3.65379119      -0.00000010       0.00000019       0.00000034
Na       6.32855156       4.47496201      10.96137307       0.00000020       0.00000029       0.00000049
Ti       0.00000016       0.00000009      -0.00000038      -0.00000069      -0.00000159       0.00000537
Br       2.06109634       1.45741506       7.30758191      -0.00066989      -0.00047341       0.00000105
Br       6.37697211       4.50920047       7.30758196       0.00067171       0.00047402       0.00000090
Br       5.29800321       1.45741527       5.43875330       0.00033633      -0.00047537      -0.00058238
Br       3.14006488       4.50920144       9.17641174      -0.00033376       0.00047065       0.00057944
Br       3.14006557       4.50920010       5.43875381      -0.00033788       0.00047714      -0.00058521
Br       5.29800379       1.45741487       9.17641130       0.00033416      -0.00047184       0.00058011
