9
Lattice="6.019942244066276 -8.256483665519838e-08 3.475614978130151 2.006647320821569 5.675654809967711 3.47561500588508 -1.8453846614417644e-08 2.0943945440983184e-08 6.951229988223266" Properties=species:S:1:pos:R:3:forces:R:3 energy=-38.730140686035156 free_energy=-38.730140686035156 stress="0.00030021893326193094 1.1123129439738477e-07 3.2063527388714874e-09 1.1123129439738477e-07 0.00030003610299900174 2.101392126974133e-08 3.2063527388714874e-09 2.101392126974133e-08 0.0002999591233674437" pbc="T T T"
Na       2.00664768       1.41891397       3.47561479       0.00000105      -0.00000059      -0.00000037
Na       6.01994347       4.25674141      10.42684524      -0.00000012       0.00000122       0.00000074
Ta       0.00000012      -0.00000140      -0.00000137      -0.00000682       0.00001601       0.00000996
Cl       1.95479891       1.38225112       6.95123024      -0.00701118      -0.00495565      -0.00000073
Cl       6.07178984       4.29340385       6.95122999       0.00700808       0.00495380       0.00000000
Cl       5.04254280       1.38225038       5.16851938       0.00350270      -0.00495142      -0.00606465
Cl       2.98404615       4.29340462       8.73394143      -0.00349575       0.00494051       0.00605071
Cl       2.98404623       4.29340452       5.16851900      -0.00349799       0.00494373      -0.00605494
Cl       5.04254280       1.38225045       8.73394115       0.00349966      -0.00494766       0.00605929
