9
Lattice="7.0617346974658615 -1.0018945243423926e-07 4.077094455761899 2.3539114662471174 6.657867356946756 4.077094464621856 -3.565947750384586e-08 -1.4363856041505394e-08 8.154188973287964" Properties=species:S:1:pos:R:3:forces:R:3 energy=-19.74262237548828 free_energy=-19.74262237548828 stress="0.0001391448749927804 1.3090278194738403e-08 -2.076865124323035e-09 1.3090278194738403e-08 0.00013913196744397283 1.470910504508538e-09 -2.076865124323035e-09 1.470910504508538e-09 0.00013912832946516573" pbc="T T T"
Na       2.35391145       1.66446654       4.07709456       0.00000033      -0.00000002       0.00000004
Na       7.06173441       4.99340072      12.23128324      -0.00000053      -0.00000009      -0.00000063
Te      -0.00000051      -0.00000025       0.00000007       0.00000364       0.00000176       0.00000083
I        2.42783345       1.71673745       8.15418897      -0.00224122      -0.00158488      -0.00000006
I        6.98781315       4.94113003       8.15418896       0.00223829       0.00158280       0.00000001
I        5.84781804       1.71673695       6.17965981       0.00111986      -0.00158324      -0.00193892
I        3.56782837       4.94113008      10.12871790      -0.00112034       0.00158370       0.00193888
I        3.56782815       4.94112993       6.17965990      -0.00111877       0.00158342      -0.00194036
I        5.84781797       1.71673748      10.12871817       0.00111873      -0.00158346       0.00194021
