9
Lattice="5.181545701811901 1.2632972851602074e-07 2.9915669623594194 1.7271819721370756 4.885208148146673 2.9915670447559775 4.569820275639778e-08 1.3322837527628827e-07 5.983133845567256" Properties=species:S:1:pos:R:3:forces:R:3 energy=-37.30480194091797 free_energy=-37.30480194091797 stress="-8.301876732730307e-06 7.520213785028318e-09 -1.2343419086846552e-07 7.520213785028318e-09 -8.29430155135924e-06 1.637403670429194e-07 -1.2343419086846552e-07 1.637403670429194e-07 -8.296281521325e-06" pbc="T T T"
Na       1.72718204       1.22130198       2.99156710      -0.00000057      -0.00000020      -0.00000023
Na       5.18154585       3.66390621       8.97470080      -0.00000016      -0.00000060      -0.00000024
Te       0.00000002      -0.00000039      -0.00000021      -0.00000573       0.00001532      -0.00000119
F        1.70147205       1.20312256       5.98313375      -0.00419077      -0.00296479      -0.00000000
F        5.20725544       3.68208559       5.98313418       0.00419047       0.00296172      -0.00000001
F        4.33080941       1.20312353       4.46508584       0.00210008      -0.00297010      -0.00363681
F        2.57791857       3.68208571       7.50118266      -0.00209686       0.00296500       0.00363338
F        2.57791767       3.68208619       4.46508476      -0.00208972       0.00295505      -0.00362039
F        4.33080985       1.20312254       7.50118267       0.00209358      -0.00296134       0.00362557
