9
Lattice="6.951474593311834 -7.742846247996998e-08 4.013435686636605 2.317158167168552 6.553913189330474 4.013435613200807 -6.406742118748925e-08 -1.3524269713131367e-07 8.026871484241202" Properties=species:S:1:pos:R:3:forces:R:3 energy=-27.589557647705078 free_energy=-27.589557647705078 stress="5.108437471790239e-05 -9.02271324321191e-09 1.8312582561463842e-09 -9.02271324321191e-09 5.107849938212894e-05 1.485303768866686e-09 1.8312582561463842e-09 1.485303768866686e-09 5.109607081976719e-05" pbc="T T T"
Na       2.31715840       1.63847793       4.01343580       0.00000020      -0.00000010      -0.00000010
Na       6.95147453       4.91543515      12.04030707       0.00000019       0.00000018       0.00000066
Ti      -0.00000001      -0.00000019      -0.00000026      -0.00000002       0.00000155      -0.00000067
I        2.25453821       1.59419933       8.02687111      -0.00016493      -0.00011669       0.00000021
I        7.01409497       4.95971424       8.02687119       0.00016272       0.00011510       0.00000056
I        5.82420517       1.59419934       5.96592310       0.00008374      -0.00011759      -0.00014361
I        3.44442713       4.95971368      10.08782023      -0.00008250       0.00011709       0.00014263
I        3.44442733       4.95971325       5.96592293      -0.00008260       0.00011719      -0.00014327
I        5.82420509       1.59419916      10.08781993       0.00008332      -0.00011684       0.00014357
