9
Lattice="5.922429435684363 3.1844158627749386e-08 3.4193164250629358 1.9741431985201867 5.583720196135544 3.419316384759646 -6.530074057846095e-09 -5.397873043776006e-08 6.838632861436314" Properties=species:S:1:pos:R:3:forces:R:3 energy=-35.80087661743164 free_energy=-35.80087661743164 stress="6.87540668877773e-05 -2.486730110717872e-08 1.884764344595169e-08 -2.486730110717872e-08 6.872920494060963e-05 -1.1944458755408505e-08 1.884764344595169e-08 -1.1944458755408505e-08 6.879177817609161e-05" pbc="T T T"
Na       1.97414347       1.39593021       3.41931611      -0.00000029      -0.00000044       0.00000016
Na       5.92242918       4.18779025      10.25794947       0.00000038       0.00000022      -0.00000030
Ti      -0.00000095       0.00000003       0.00000052       0.00001204       0.00000019      -0.00000853
Cl       1.92007044       1.35769454       6.83863272      -0.00090236      -0.00063688       0.00000080
Cl       5.97650257       4.22602590       6.83863267       0.00089453       0.00063039       0.00000023
Cl       4.96239457       1.35769398       5.08214629       0.00044791      -0.00063065      -0.00077583
Cl       2.93417855       4.22602535       8.59511935      -0.00045272       0.00063793       0.00078400
Cl       2.93417848       4.22602579       5.08214652      -0.00045088       0.00063627      -0.00078259
Cl       4.96239423       1.35769468       8.59511901       0.00045119      -0.00063700       0.00078197
