9
Lattice="6.231254410741326 5.782223049717849e-08 3.597616451104471 2.0770848050321753 5.87488338746511 3.5976165430133493 -6.298928415702117e-08 6.802482421539353e-08 7.195233011309541" Properties=species:S:1:pos:R:3:forces:R:3 energy=-30.99763298034668 free_energy=-30.99763298034668 stress="4.935728065902367e-05 -1.0431556951573384e-08 -8.058684386469395e-09 -1.0431556951573384e-08 4.9346457672072574e-05 3.113870716831002e-09 -8.058684386469395e-09 3.113870716831002e-09 4.935814649797976e-05" pbc="T T T"
Na       2.07708466       1.46872083       3.59761647       0.00000004      -0.00000002       0.00000027
Na       6.23125444       4.40616260      10.79284975       0.00000014       0.00000025      -0.00000007
V       -0.00000071      -0.00000046      -0.00000026       0.00000693       0.00000688       0.00000256
Br       2.02862401       1.43445384       7.19523303      -0.00102405      -0.00072366       0.00000053
Br       6.27971615       4.44043028       7.19523290       0.00101376       0.00071619      -0.00000005
Br       5.21694245       1.43445367       5.35445604       0.00051184      -0.00072195      -0.00088419
Br       3.09139650       4.44042993       9.03601001      -0.00050861       0.00071990       0.00088161
Br       3.09139650       4.44042984       5.35445605      -0.00050967       0.00072187      -0.00088280
Br       5.21694261       1.43445349       9.03601002       0.00050975      -0.00071937       0.00088221
