9
Lattice="4.815558777822694 -3.2558987780508965e-08 2.780264147656637 1.6051861736719188 4.540152446218318 2.7802642427556705 -3.7681433551604254e-08 8.982724967226178e-08 5.560528360579421" Properties=species:S:1:pos:R:3:forces:R:3 energy=-45.76576232910156 free_energy=-45.76576232910156 stress="0.0001910667633637786 -7.670608681564772e-08 -2.4844388768485715e-09 -7.670608681564772e-08 0.00019107182743027806 -1.833690177477365e-08 -2.4844388768485715e-09 -1.833690177477365e-08 0.00019116884504910558" pbc="T T T"
Na       1.60518619       1.13503847       2.78026413       0.00000047       0.00000029       0.00000000
Na       4.81555888       3.40511420       8.34079251       0.00000008       0.00000056      -0.00000016
V        0.00000026       0.00000040       0.00000022      -0.00000465      -0.00000618      -0.00000186
F        1.52833819       1.08069848       5.56052833      -0.00105733      -0.00074774       0.00000000
F        4.89240715       3.45945452       5.56052841       0.00105843       0.00074835       0.00000027
F        4.05138926       1.08069850       4.10384399       0.00053224      -0.00075018      -0.00091903
F        2.36935525       3.45945362       7.01721220      -0.00053092       0.00075269       0.00092110
F        2.36935533       3.45945359       4.10384439      -0.00053117       0.00075280      -0.00092083
F        4.05138917       1.08069848       7.01721258       0.00053283      -0.00075054       0.00092044
