9
Lattice="6.828054561366848 2.084499607933995e-08 3.9421792857041313 2.2760182298159264 6.4375516290279755 3.942179245796145 -4.7106593535974205e-08 -8.218640328936887e-08 7.884358652999199" Properties=species:S:1:pos:R:3:forces:R:3 energy=-27.2564640045166 free_energy=-27.2564640045166 stress="5.825691914651543e-05 -6.402622432233329e-09 -3.690091565644593e-09 -6.402622432233329e-09 5.827019413118251e-05 3.1845326375901095e-09 -3.690091565644593e-09 3.1845326375901095e-09 5.827435961691663e-05" pbc="T T T"
Na       2.27601814       1.60938793       3.94217941      -0.00000042       0.00000016      -0.00000036
Na       6.82805461       4.82816337      11.82653745       0.00000025      -0.00000058      -0.00000032
V        0.00000026       0.00000026       0.00000006      -0.00000195      -0.00000197       0.00000103
I        2.20843249       1.56159774       7.88435846      -0.00330023      -0.00233401      -0.00000021
I        6.89563994       4.87595376       7.88435873       0.00330180       0.00233507       0.00000007
I        5.72383843       1.56159742       5.85473798       0.00165014      -0.00233394      -0.00285824
I        3.38023434       4.87595409       9.91397932      -0.00165028       0.00233403       0.00285874
I        3.38023421       4.87595390       5.85473813      -0.00164985       0.00233455      -0.00285946
I        5.72383847       1.56159772       9.91397926       0.00165064      -0.00233339       0.00285867
