9
Lattice="4.98376817421969 -2.4320388525443313e-08 2.8773796912873646 1.6612560113247008 4.698741871104178 2.877379732543214 -7.447388565554345e-09 4.526172671255204e-08 5.754759395474043" Properties=species:S:1:pos:R:3:forces:R:3 energy=-45.13529586791992 free_energy=-45.13529586791992 stress="0.00041712404345162213 -3.5104317674949925e-08 2.092510165141448e-08 -3.5104317674949925e-08 0.0004171916516497731 -4.093492833590062e-08 2.092510165141448e-08 -4.093492833590062e-08 0.0004172179033048451" pbc="T T T"
Na       1.66125656       1.17468556       2.87737970      -0.00000018       0.00000050       0.00000025
Na       4.98376767       3.52405645       8.63213911      -0.00000000      -0.00000007      -0.00000030
W       -0.00000005       0.00000010       0.00000013       0.00000791      -0.00000062      -0.00000397
F        1.63929470       1.15915683       5.75475954      -0.00498189      -0.00352317      -0.00000016
F        5.00572963       3.53958512       5.75475955       0.00497658       0.00351929      -0.00000018
F        4.16412058       1.15915657       4.29705060       0.00248883      -0.00351990      -0.00431217
F        2.48090361       3.53958528       7.21246805      -0.00249185       0.00352409       0.00431681
F        2.48090347       3.53958533       4.29705072      -0.00249087       0.00352439      -0.00431642
F        4.16412059       1.15915641       7.21246780       0.00249148      -0.00352455       0.00431612
