9
Lattice="6.918953089506766 -1.6425439567773611e-07 3.994659714073297 2.30631759725991 6.523251576979954 3.9946596177398384 1.1184294682055893e-07 -3.8898993897792195e-08 7.989319234428928" Properties=species:S:1:pos:R:3:forces:R:3 energy=-29.016202926635742 free_energy=-29.016202926635742 stress="0.00013599735393654555 -5.446794659746956e-08 -1.240133412627742e-10 -5.446794659746956e-08 0.0001360523165203631 -2.9809030799299308e-09 -1.240133412627742e-10 -2.9809030799299308e-09 0.00013608945300802588" pbc="T T T"
Na       2.30631796       1.63081279       3.99465967       0.00000079       0.00000023      -0.00000060
Na       6.91895307       4.89243869      11.98397882      -0.00000067      -0.00000080       0.00000081
W       -0.00000051      -0.00000000      -0.00000149       0.00000980       0.00000084       0.00002345
I        2.25309666       1.59318000       7.98931921      -0.00452761      -0.00320202       0.00000083
I        6.97217445       4.93007173       7.98931938       0.00451955       0.00319604       0.00000061
I        5.79240412       1.59318062       5.94589967       0.00226849      -0.00320765      -0.00392841
I        3.43286610       4.93007148      10.03273948      -0.00226174       0.00319963       0.00391887
I        3.43286666       4.93007037       5.94590009      -0.00226976       0.00321140      -0.00393228
I        5.79240474       1.59317983      10.03273940       0.00226116      -0.00319771       0.00391670
