9
Lattice="6.021987755255403 -1.3163657903566198e-07 3.4767963503637462 2.007329127563388 5.677584681545275 3.4767963505025947 3.381128338145408e-08 2.4078268501986163e-08 6.953592642164633" Properties=species:S:1:pos:R:3:forces:R:3 energy=-36.9348258972168 free_energy=-36.9348258972168 stress="0.00011306866508675739 -4.46010837151789e-08 7.2800281358809116e-09 -4.46010837151789e-08 0.00011308505781926215 -1.247425363004595e-08 7.2800281358809116e-09 -1.247425363004595e-08 0.00011314293078612536" pbc="T T T"
Na       2.00732908       1.41939538       3.47679612      -0.00000075      -0.00000186      -0.00000098
Na       6.02198732       4.25818838      10.43038915      -0.00000087      -0.00000052      -0.00000082
W        0.00000044      -0.00000011       0.00000132      -0.00000397       0.00000155      -0.00002190
Cl       1.95902992       1.38524314       6.95359317      -0.00179707      -0.00127024      -0.00000066
Cl       6.07028704       4.29234149       6.95359309       0.00180002       0.00127292      -0.00000084
Cl       5.04247269       1.38524335       5.17336627       0.00089807      -0.00126906      -0.00155610
Cl       2.98684456       4.29234084       8.73381795      -0.00090541       0.00128031       0.00156789
Cl       2.98684444       4.29234159       5.17336667      -0.00089737       0.00126944      -0.00155674
Cl       5.04247224       1.38524424       8.73381761       0.00090734      -0.00128253       0.00157019
