9
Lattice="6.379607496134594 6.316072148026081e-08 3.6832679783284763 2.12653590961183 6.014751474824505 3.683267947119611 -1.1755814393965254e-08 -4.6535456106247e-08 7.366535977018462" Properties=species:S:1:pos:R:3:forces:R:3 energy=-32.928558349609375 free_energy=-32.928558349609375 stress="5.517542012967169e-05 1.6667897284605715e-08 1.921005715610491e-10 1.6667897284605715e-08 5.516907913261093e-05 -9.601089701050114e-09 1.921005715610491e-10 -9.601089701050114e-09 5.51560333406087e-05" pbc="T T T"
Na       2.12653571       1.50368761       3.68326786       0.00000014       0.00000018       0.00000019
Na       6.37960764       4.51106373      11.04980414      -0.00000003      -0.00000008      -0.00000009
W       -0.00000115      -0.00000159      -0.00000183       0.00001347       0.00002040       0.00002242
Br       2.08315960       1.47301634       7.36653581      -0.00065355      -0.00046113       0.00000154
Br       6.42298520       4.54173632       7.36653600       0.00063268       0.00044706       0.00000074
Br       5.33802767       1.47301626       5.48733680       0.00032630      -0.00045939      -0.00056206
Br       3.16811510       4.54173637       9.24573611      -0.00031439       0.00044443       0.00054474
Br       3.16811537       4.54173546       5.48733651      -0.00032304       0.00045803      -0.00055887
Br       5.33802837       1.47301538       9.24573626       0.00031844      -0.00044956       0.00055134
