9
Lattice="6.514901277618435 -1.1537573321282276e-07 3.7613799766526057 2.1716336524201 6.142307728318899 3.7613799732038027 2.230485018038686e-08 1.1547951318318457e-08 7.522759914672175" Properties=species:S:1:pos:R:3:forces:R:3 energy=-33.43876647949219 free_energy=-33.43876647949219 stress="0.00013165493146516383 -2.4813113341792814e-08 6.06073680131658e-09 -2.4813113341792814e-08 0.00013168501027394086 1.1720172055085243e-10 6.06073680131658e-09 1.1720172055085243e-10 0.0001317041605943814" pbc="T T T"
Na       2.17163342       1.53557676       3.76138004      -0.00000023      -0.00000001       0.00000019
Na       6.51490139       4.60673073      11.28413979      -0.00000003       0.00000022      -0.00000016
Zr      -0.00000037       0.00000013       0.00000015       0.00000292       0.00000007      -0.00000117
Br       2.15694713       1.52519177       7.52276003      -0.00180951      -0.00127950      -0.00000049
Br       6.52958810       4.61711590       7.52275968       0.00180725       0.00127789      -0.00000021
Br       5.43642765       1.52519200       5.62935115       0.00090528      -0.00128036      -0.00156812
Br       3.25010758       4.61711536       9.41616866      -0.00090620       0.00128234       0.00156990
Br       3.25010755       4.61711547       5.62935135      -0.00090585       0.00128111      -0.00156936
Br       5.43642736       1.52519239       9.41616860       0.00090637      -0.00128174       0.00156944
