9
Lattice="6.09914777456821 8.366977038709545e-08 3.5213445106266352 2.0330492346843156 5.750331699962168 3.5213446879707533 -1.3886810344283213e-07 1.1900671996251198e-07 7.04268926177989" Properties=species:S:1:pos:R:3:forces:R:3 energy=-37.67903137207031 free_energy=-37.67903137207031 stress="0.00017200443835463375 5.186474894003368e-08 -2.4515337315733632e-08 5.186474894003368e-08 0.00017198330897372216 3.351484068048194e-08 -2.4515337315733632e-08 3.351484068048194e-08 0.00017197095439769328" pbc="T T T"
Na       2.03304931       1.43758328       3.52134430      -0.00000030       0.00000003      -0.00000018
Na       6.09914774       4.31274910      10.56403405       0.00000063      -0.00000002       0.00000046
Zr      -0.00000057      -0.00000001       0.00000094       0.00000806      -0.00000482      -0.00001387
Cl       2.01844351       1.42725552       7.04268944      -0.00275502      -0.00194917      -0.00000043
Cl       6.11375355       4.32307684       7.04268937       0.00275230       0.00194584      -0.00000061
Cl       5.08992620       1.42725471       5.26936734       0.00137155      -0.00193919      -0.00237604
Cl       3.04227099       4.32307630       8.81600964      -0.00137943       0.00195003       0.00238997
Cl       3.04227064       4.32307735       5.26936783      -0.00137172       0.00194086      -0.00237903
Cl       5.08992616       1.42725452       8.81601092       0.00137401      -0.00194358       0.00237979
