9
Lattice="7.082819056907569 1.3852063351503102e-07 4.089267287520848 2.3609397995336465 6.6777456096001035 4.089267316447315 -2.7221121100539265e-08 1.617933812665624e-08 8.178534622190112" Properties=species:S:1:pos:R:3:forces:R:3 energy=-29.271175384521484 free_energy=-29.271175384521484 stress="8.893672202248126e-05 3.071206222671208e-08 4.230447991915298e-09 3.071206222671208e-08 8.891476318240166e-05 -9.679289370012611e-09 4.230447991915298e-09 -9.679289370012611e-09 8.88825670699589e-05" pbc="T T T"
Na       2.36093979       1.66943627       4.08926724      -0.00000051      -0.00000018       0.00000013
Na       7.08281902       5.00830935      12.26780198       0.00000046       0.00000035       0.00000009
Zr       0.00000012       0.00000009      -0.00000019      -0.00000026      -0.00000145       0.00000267
I        2.34498731       1.65815627       8.17853456      -0.00098199      -0.00069415       0.00000001
I        7.09877135       5.01958951       8.17853452       0.00098242       0.00069457      -0.00000018
I        5.91032569       1.65815636       6.12008531       0.00048970      -0.00069248      -0.00084704
I        3.53343322       5.01958962      10.23698411      -0.00048899       0.00069164       0.00084576
I        3.53343326       5.01958939       6.12008531      -0.00048979       0.00069291      -0.00084679
I        5.91032553       1.65815617      10.23698407       0.00048901      -0.00069119       0.00084533
