9
Lattice="6.533408142429559 6.934287883830891e-08 3.7720649043088637 2.1778027519668814 6.159756346286011 3.772064952032794 1.8454928987442475e-08 7.149924708583578e-08 7.5441297766528495" Properties=species:S:1:pos:R:3:forces:R:3 energy=-25.476842880249023 free_energy=-25.476842880249023 stress="8.032472396735102e-05 -3.989355512601378e-09 -3.110444568577009e-09 -3.989355512601378e-09 8.031244215089828e-05 -2.7775151067999104e-09 -3.110444568577009e-09 -2.7775151067999104e-09 8.030883327592164e-05" pbc="T T T"
Nb       2.17780238       1.53993914       3.77206483      -0.00000266       0.00000045      -0.00000024
Nb       6.53340820       4.61981709      11.31619532       0.00000011      -0.00000080       0.00000361
Au       0.00000012       0.00000012      -0.00000020      -0.00000184      -0.00000100       0.00000031
I        2.27737291       1.61034589       7.54412990      -0.00004519      -0.00003272      -0.00000010
I        6.43383800       4.54941052       7.54412959       0.00004826       0.00003430      -0.00000167
I        5.39472182       1.61034605       5.74432762       0.00002394      -0.00003310      -0.00004032
I        3.31648906       4.54941058       9.34393194      -0.00002360       0.00003276       0.00003974
I        3.31648928       4.54941062       5.74432759      -0.00002308       0.00003331      -0.00004079
I        5.39472190       1.61034599       9.34393193       0.00002409      -0.00003316       0.00003959
