9
Lattice="5.916221485813104 -2.4374798554171107e-08 3.4157319564548656 1.9720738221745837 5.577867053965747 3.4157319277876796 4.6967513030153156e-08 -1.8989336873781595e-09 6.83146383155957" Properties=species:S:1:pos:R:3:forces:R:3 energy=-28.980607986450195 free_energy=-28.980607986450195 stress="9.238964412361383e-05 -1.4004616133433956e-08 -2.069899451839774e-08 -1.4004616133433956e-08 9.242159285349771e-05 -2.6482729342802713e-09 -2.069899451839774e-08 -2.6482729342802713e-09 9.242827218258753e-05" pbc="T T T"
Nb       1.97207305       1.39446689       3.41573207      -0.00000446       0.00000076       0.00000092
Nb       5.91622239       4.18340083      10.24719523       0.00000358       0.00000186      -0.00000238
Au      -0.00000006      -0.00000010      -0.00000000       0.00000327       0.00000046      -0.00000298
Br       2.05609981       1.45388200       6.83146411       0.00015723       0.00011327      -0.00000086
Br       5.83219562       4.12398496       6.83146411      -0.00015965      -0.00011517       0.00000116
Br       4.88817173       1.45388163       5.19636667      -0.00007866       0.00011135       0.00014081
Br       3.00012371       4.12398504       8.46656108       0.00007757      -0.00011006      -0.00013832
Br       3.00012366       4.12398504       5.19636640       0.00007853      -0.00011341       0.00014022
Br       4.88817147       1.45388182       8.46656118      -0.00007742       0.00011095      -0.00013871
