9
Lattice="5.752223621588591 3.8025266861657755e-08 3.321047815769748 1.917407904613513 5.423248469235586 3.321047824603037 8.802867173511717e-08 7.306423510628549e-08 6.642095479069284" Properties=species:S:1:pos:R:3:forces:R:3 energy=-30.939104080200195 free_energy=-30.939104080200195 stress="9.681025403551757e-05 8.124284023303119e-10 -4.8207784431042455e-08 8.124284023303119e-10 9.682046220405027e-05 -2.5341941878309626e-08 -4.8207784431042455e-08 -2.5341941878309626e-08 9.680583025328815e-05" pbc="T T T"
Nb       1.91740971       1.35581383       3.32104608       0.00001518       0.00001726      -0.00001766
Nb       5.75222307       4.06743592       9.96314656      -0.00000613      -0.00000795       0.00003113
Au       0.00000005      -0.00000004       0.00000027      -0.00000082      -0.00000009      -0.00000380
Cl       1.99637784       1.41165238       6.64209640       0.00307510       0.00217174       0.00000763
Cl       5.67325346       4.01159629       6.64209403      -0.00307538      -0.00217465      -0.00001295
Cl       4.75403491       1.41165297       5.04996144      -0.00153652       0.00218169       0.00265814
Cl       2.91559603       4.01159506       8.23422916       0.00153114      -0.00218035      -0.00265883
Cl       2.91559721       4.01159530       5.04996108       0.00154117      -0.00218065       0.00265528
Cl       4.75403418       1.41165260       8.23422943      -0.00154394       0.00217295      -0.00265921
