9
Lattice="4.828928408442737 -7.420170490989664e-08 2.7879826735993185 1.6096427705013505 4.552756401353233 2.7879826083960317 -1.1875264300915465e-07 -1.6382819609385527e-07 5.575965552884243" Properties=species:S:1:pos:R:3:forces:R:3 energy=-42.73517990112305 free_energy=-42.73517990112305 stress="0.0001381865586154163 -5.285934889798227e-08 1.897947399243094e-08 -5.285934889798227e-08 0.0001383665221510455 3.2795632876059244e-09 1.897947399243094e-08 3.2795632876059244e-09 0.00013801934255752712" pbc="T T T"
Nb       1.60964195       1.13818650       2.78798635      -0.00000463      -0.00002850       0.00003898
Nb       4.82893342       3.41456546       8.36395167       0.00005047      -0.00001230       0.00003857
Au      -0.00000016       0.00000245      -0.00000075      -0.00000412       0.00000225      -0.00000374
F        1.76212526       1.24601194       5.57596354       0.00112246       0.00081605      -0.00001696
F        4.67644656       3.30674545       5.57596468      -0.00113065      -0.00079846      -0.00001102
F        3.94786420       1.24600982       4.31402806      -0.00057096       0.00079964       0.00097653
F        2.49070355       3.30674736       6.83790117       0.00055129      -0.00078558      -0.00100210
F        2.49070528       3.30674647       4.31402681       0.00056052      -0.00079131       0.00097402
F        3.94786406       1.24600936       6.83790164      -0.00057456       0.00079827      -0.00099386
