9
Lattice="5.638814638822684 3.6960002910456156e-08 3.255571157346266 1.8796048971550787 5.316325119975441 3.2555711873085302 -7.3639245138868e-08 -1.5374690758664026e-08 6.511142442239459" Properties=species:S:1:pos:R:3:forces:R:3 energy=-33.919273376464844 free_energy=-33.919273376464844 stress="-4.608599192579277e-05 -1.0471767453168468e-08 -1.2426238704676962e-08 -1.0471767453168468e-08 -4.610446194419637e-05 -4.894696203905369e-08 -1.2426238704676962e-08 -4.894696203905369e-08 -4.6005014155525714e-05" pbc="T T T"
Nb       1.87960513       1.32908108       3.25557124      -0.00000397       0.00000086      -0.00000127
Nb       5.63881446       3.98724362       9.76671334      -0.00000118       0.00000363      -0.00000075
Be       0.00000008       0.00000028       0.00000005       0.00000056      -0.00000345       0.00000087
Br       1.84275248       1.30302253       6.51114242       0.00031526       0.00022063       0.00000032
Br       5.67566696       4.01330269       6.51114232      -0.00031199      -0.00022234       0.00000089
Br       4.71743834       1.30302269       4.85144144      -0.00015719       0.00022252       0.00027181
Br       2.80098097       4.01330248       8.17084301       0.00015762      -0.00022103      -0.00026968
Br       2.80098114       4.01330267       4.85144190       0.00015648      -0.00022303       0.00027037
Br       4.71743833       1.30302259       8.17084339      -0.00015572       0.00022213      -0.00027278
