9
Lattice="5.480095641109777 -1.7101897139446356e-08 3.163934689308951 1.8266986023173912 5.166683550037287 3.163934565632524 9.032227522185018e-08 -8.760457537331144e-08 6.327869222175146" Properties=species:S:1:pos:R:3:forces:R:3 energy=-36.252777099609375 free_energy=-36.252777099609375 stress="2.161541851819493e-05 1.8407640967055272e-09 4.254752994370392e-08 1.8407640967055272e-09 2.161741394957062e-05 3.139324178391689e-08 4.254752994370392e-08 3.139324178391689e-08 2.1625690351356752e-05" pbc="T T T"
Nb       1.82669778       1.29167061       3.16393459      -0.00000612      -0.00000134      -0.00000042
Nb       5.48009621       3.87501238       9.49180610       0.00000229      -0.00000098       0.00001733
Be       0.00000045       0.00000003       0.00000089      -0.00000628      -0.00000186      -0.00001408
Cl       1.77260054       1.25341791       6.32786942      -0.00405039      -0.00286202      -0.00000220
Cl       5.53419335       3.91326505       6.32786848       0.00405961       0.00286879      -0.00000945
Cl       4.59379563       1.25341793       4.69905127       0.00202641      -0.00285980      -0.00350758
Cl       2.71299923       3.91326555       7.95668587      -0.00203479       0.00287356       0.00351039
Cl       2.71299902       3.91326617       4.69905107      -0.00202063       0.00285933      -0.00350546
Cl       4.59379518       1.25341814       7.95668627       0.00203007      -0.00287544       0.00351132
