9
Lattice="4.660636058701981 4.379091658023791e-09 2.6908197259837423 1.5535453478714465 4.3940899137856295 2.690819741845626 -1.3862769108645207e-10 1.932872307152706e-08 5.38163945220763" Properties=species:S:1:pos:R:3:forces:R:3 energy=-51.07032012939453 free_energy=-51.07032012939453 stress="3.641715375124477e-05 2.274751942366038e-08 -2.55559271522543e-08 2.274751942366038e-08 3.6243371141608804e-05 -2.8699565390866155e-08 -2.55559271522543e-08 -2.8699565390866155e-08 3.645012475317344e-05" pbc="T T T"
Nb       1.55354476       1.09852022       2.69082097      -0.00000570      -0.00002257       0.00001297
Nb       4.66063712       3.29556946       8.07245861       0.00000998       0.00001941      -0.00000780
Be      -0.00000020       0.00000030      -0.00000016      -0.00000015       0.00000131      -0.00000016
F        1.44007457       1.01828621       5.38163904       0.00020805       0.00014248      -0.00000442
F        4.77410666       3.37580378       5.38163961      -0.00020701      -0.00014188       0.00000188
F        3.94059859       1.01828578       3.93796098      -0.00010705       0.00014004       0.00018131
F        2.27358272       3.37580408       6.82531758       0.00010367      -0.00013856      -0.00018173
F        2.27358249       3.37580404       3.93796144       0.00009991      -0.00014141       0.00018118
F        3.94059901       1.01828593       6.82531767      -0.00010180       0.00014136      -0.00018314
