9
Lattice="5.762401499692953 -6.0750138472787165e-09 3.3269240301810306 1.9208005533469243 5.43284392851762 3.3269239276837155 8.051143651978007e-08 -6.860288211740122e-08 6.653847920912176" Properties=species:S:1:pos:R:3:forces:R:3 energy=-38.8248176574707 free_energy=-38.8248176574707 stress="-6.21247963863425e-05 2.385328734533232e-08 -3.811529936115221e-08 2.385328734533232e-08 -6.217063491931185e-05 -6.130676410975866e-08 -3.811529936115221e-08 -6.130676410975866e-08 -6.213042070157826e-05" pbc="T T T"
Nb       1.92080060       1.35821140       3.32692373       0.00000116       0.00000262      -0.00000316
Nb       5.76240134       4.07463214       9.98077229      -0.00000054      -0.00000333       0.00000173
Cr      -0.00000006       0.00000019       0.00000014      -0.00000246      -0.00000447      -0.00000132
Br       1.95836675       1.38477415       6.65384783      -0.00414338      -0.00292907       0.00000217
Br       5.72483553       4.04806965       6.65384787       0.00414643       0.00293209      -0.00000047
Br       4.78321830       1.38477430       5.02291929       0.00207246      -0.00292810      -0.00358736
Br       2.89998378       4.04806961       8.28477681      -0.00207169       0.00293018       0.00358953
Br       2.89998398       4.04806968       5.02291898      -0.00207284       0.00292975      -0.00358857
Br       4.78321835       1.38477428       8.28477660       0.00207082      -0.00292938       0.00358755
