9
Lattice="5.524285164282305 7.648095069792763e-08 3.189447491258416 1.8414284470258577 5.208346116947818 3.1894475140785348 -1.926861520426263e-08 1.4323831383643667e-08 6.378895015891103" Properties=species:S:1:pos:R:3:forces:R:3 energy=-37.463623046875 free_energy=-37.463623046875 stress="9.499192674411461e-05 2.693919043394999e-08 -3.276329252344112e-08 2.693919043394999e-08 9.491175296716392e-05 -6.382173722840889e-08 -3.276329252344112e-08 -6.382173722840889e-08 9.488980140304193e-05" pbc="T T T"
Nb       1.84142873       1.30208391       3.18944786       0.00000461      -0.00002824       0.00000570
Nb       5.52428491       3.90626124       9.56834145      -0.00000297       0.00001805      -0.00001272
Co      -0.00000006      -0.00000005      -0.00000036      -0.00000024       0.00000319       0.00001164
Cl       1.86114748       1.31602954       6.37889493      -0.00001909      -0.00002125      -0.00000040
Cl       5.50456583       3.89231717       6.37889547       0.00001857       0.00002530       0.00000378
Cl       4.59371157       1.31602942       4.80124832       0.00000831      -0.00002350      -0.00001732
Cl       2.77200197       3.89231686       7.95654202      -0.00000547       0.00001577       0.00001252
Cl       2.77200199       3.89231692       4.80124839      -0.00001167       0.00002334      -0.00001765
Cl       4.59371185       1.31602986       7.95654202       0.00000788      -0.00001276       0.00001461
