9
Lattice="3.2331572993526656 0.37584210442267113 2.3597441310197693 2.1059139288917037 3.2971275301871934 4.202213392694319 0.2786463762344909 -1.8683945708961425 4.0956291794552095" Properties=species:S:1:pos:R:3:forces:R:3 energy=-106124464.0 free_energy=-106124464.0 stress="362218.46875 -1092849.0 2296468.5 -1092849.0 -948739.875 999311.4375 2296468.5 999311.4375 2127003.0" pbc="T T T"
Nb       4.76522169      -3.38032457       3.66550971 10718769.00000000 -27674706.00000000 -17459114.00000000
Nb       6.86636816       1.58150407       9.09115160 271118432.00000000 1171968.00000000 -54126400.00000000
C        4.35072736       0.02999606       0.32861025 227299456.00000000 8974268.00000000 439810048.00000000
F        4.77570941      -1.73000382       4.87946577 -521883488.00000000 7951040.00000000 -428764416.00000000
F        9.52228071       1.40382805       6.65626403 -24609644.00000000 -1505281.00000000 20429488.00000000
F        5.12205863       0.75884796       3.15050851 6332674.00000000 5713463.50000000 2782203.00000000
F        7.36955456       2.19167566       8.23960716 -4567548.50000000 17627234.00000000 13775482.00000000
F        6.31679371      -0.65596129       6.22994002 36459636.00000000 -10327938.00000000 29365220.00000000
F        7.16186973      -0.17370084       6.46872522 -868179.06250000 -1930319.00000000 -5812068.50000000
