9
Lattice="4.670334067967333 -7.177478051778684e-08 2.696418815970054 1.5567779966362063 4.4032331235264275 2.6964187438295184 9.34756564161865e-08 -2.225648614200672e-08 5.392837470035535" Properties=species:S:1:pos:R:3:forces:R:3 energy=-47.176551818847656 free_energy=-47.176551818847656 stress="0.0002559498243499547 -4.0543898904843445e-08 -1.003050709158515e-08 -4.0543898904843445e-08 0.00025580357760190964 -6.153372922312883e-09 -1.003050709158515e-08 -6.153372922312883e-09 0.00025596318300813437" pbc="T T T"
Nb       1.55677699       1.10080907       2.69641939      -0.00001618       0.00000837       0.00000836
Nb       4.67033319       3.30242428       8.08925701      -0.00000870      -0.00000642       0.00001164
Cu      -0.00000015      -0.00000000       0.00000025       0.00000122       0.00000128      -0.00000657
F        1.61057310       1.13884689       5.39283699      -0.00137877      -0.00097566      -0.00000573
F        4.61653927       3.26438592       5.39283726       0.00138027       0.00096928      -0.00000568
F        3.86504831       1.13884752       4.09121596       0.00069653      -0.00096849      -0.00119510
F        2.36206502       3.26438580       6.69445916      -0.00068902       0.00097793       0.00119869
F        2.36206476       3.26438583       4.09121561      -0.00068409       0.00097108      -0.00119716
F        3.86504812       1.13884685       6.69445850       0.00069873      -0.00097729       0.00119137
