9
Lattice="4.263286197765044 9.317052842187125e-08 2.461409362157182 1.4210954523140678 4.019464854619948 2.4614094224030514 -3.0491893558210854e-08 5.222477572245352e-08 4.9228187771278815" Properties=species:S:1:pos:R:3:forces:R:3 energy=-67.18634033203125 free_energy=-67.18634033203125 stress="-6.0440321249188855e-05 -2.1467108979322802e-08 5.213142983961916e-08 -2.1467108979322802e-08 -6.027242125128396e-05 1.476732052196894e-07 5.213142983961916e-08 1.476732052196894e-07 -6.033945828676224e-05" pbc="T T T"
Nb       1.42109504       1.00486648       2.46140994      -0.00000594       0.00000594       0.00000684
Nb       4.26328588       3.01459829       7.38422794      -0.00000258      -0.00000418      -0.00000348
Cr       0.00000018       0.00000027       0.00000002       0.00000096      -0.00000786       0.00000467
O        1.47667488       1.04416654       4.92281846       0.00449017       0.00317001      -0.00000166
O        4.20770684       2.97529831       4.92281850      -0.00448206      -0.00317356       0.00000103
O        3.52494915       1.04416682       3.74024720      -0.00223821       0.00317270       0.00388804
O        2.15943282       2.97529827       6.10539022       0.00224140      -0.00316784      -0.00388569
O        2.15943282       2.97529798       3.74024710       0.00223961      -0.00317439       0.00387752
O        3.52494895       1.04416707       6.10539076      -0.00224286       0.00317952      -0.00388786
