9
Lattice="5.657274558453935 6.311293346635463e-08 3.266229133895763 1.8857582249270326 5.333729555840012 3.266229169797233 9.587469081583206e-08 1.1176379093522811e-07 6.532458101731674" Properties=species:S:1:pos:R:3:forces:R:3 energy=-32.46526336669922 free_energy=-32.46526336669922 stress="0.0003247250569984317 5.953313841899899e-09 -5.1915282739400936e-08 5.953313841899899e-09 0.00032469831057824194 -6.722239209722147e-09 -5.1915282739400936e-08 -6.722239209722147e-09 0.00032477418426424265" pbc="T T T"
Nb       1.88575807       1.33343250       3.26622847      -0.00000060      -0.00000084      -0.00000882
Nb       5.65727394       4.00029741       9.79868966      -0.00000791       0.00000542       0.00002306
C       -0.00000017       0.00000014      -0.00000021       0.00000050      -0.00000055      -0.00000023
Cl       1.94484829       1.37521550       6.53245814       0.00080842       0.00056688       0.00000086
Cl       5.59818472       3.95851439       6.53245719      -0.00080593      -0.00057247      -0.00000909
Cl       4.68485087       1.37521530       4.95051708      -0.00039773       0.00057303       0.00069761
Cl       2.85818248       3.95851418       8.11439937       0.00039921      -0.00056908      -0.00069836
Cl       2.85818291       3.95851451       4.95051681       0.00040802      -0.00056944       0.00069354
Cl       4.68485040       1.37521496       8.11439911      -0.00040390       0.00056715      -0.00069848
