9
Lattice="4.6971484187340575 9.092833419011644e-08 2.711899970319649 1.565716205885466 4.428514307088301 2.7119000039571026 1.6765322866832758e-07 1.5974604930359927e-07 5.423799650255394" Properties=species:S:1:pos:R:3:forces:R:3 energy=-50.25796890258789 free_energy=-50.25796890258789 stress="9.00048871699255e-06 -1.9485879576564002e-08 -1.6706316330328264e-07 -1.9485879576564002e-08 9.138797395280562e-06 -5.47733129963035e-08 -1.6706316330328264e-07 -5.47733129963035e-08 8.97810241440311e-06" pbc="T T T"
Nb       1.56571705       1.10712723       2.71189743       0.00001043      -0.00001415      -0.00002776
Nb       4.69715040       3.32138818       8.13570474       0.00001790       0.00002416       0.00005544
Co       0.00000002      -0.00000002       0.00000007      -0.00000056      -0.00000663       0.00000652
F        1.55124284       1.09689431       5.42380023      -0.00127316      -0.00090322       0.00000690
F        4.71162146       3.33162027       5.42379789       0.00127423       0.00090788      -0.00002227
F        3.92152700       1.09689442       4.05531577       0.00063901      -0.00090449      -0.00110795
F        2.34133663       3.33161974       6.79228320      -0.00065485       0.00090203       0.00109929
F        2.34133806       3.33162076       4.05531595      -0.00063421       0.00090997      -0.00110586
F        3.92152585       1.09689326       6.79228343       0.00062102      -0.00091559       0.00109546
