9
Lattice="5.724352134135905 -1.1610549876386917e-07 3.304956055579727 1.9081172804030277 5.396970852339346 3.30495603510161 3.0615459438486846e-09 -2.2915612408470466e-08 6.609912105856702" Properties=species:S:1:pos:R:3:forces:R:3 energy=-32.000038146972656 free_energy=-32.000038146972656 stress="-4.286055263946764e-05 2.1409187755949688e-09 7.727407602686753e-10 2.1409187755949688e-09 -4.287092087906785e-05 -2.0272395317988412e-08 7.727407602686753e-10 -2.0272395317988412e-08 -4.28546845796518e-05" pbc="T T T"
Nb       1.90811718       1.34924303       3.30495648       0.00000005       0.00000399       0.00000185
Nb       5.72435275       4.04772810       9.91486770       0.00000453      -0.00000105      -0.00000285
Cu      -0.00000003       0.00000010      -0.00000036       0.00000053       0.00000106       0.00000421
Br       1.96226178       1.38752855       6.60991213      -0.00039950      -0.00028278       0.00000040
Br       5.67020775       4.00944218       6.60991220       0.00039417       0.00027937       0.00000140
Br       4.74322116       1.38752836       5.00432444       0.00020045      -0.00028251      -0.00034508
Br       2.88924799       4.00944210       8.21549980      -0.00019713       0.00027920       0.00034085
Br       2.88924780       4.00944190       5.00432442      -0.00020029       0.00028169      -0.00034437
Br       4.74322127       1.38752853       8.21550000       0.00019711      -0.00027889       0.00034314
