9
Lattice="5.9505627725177215 3.548166906769826e-08 3.4355590440378485 1.9835209559025127 5.610244402191936 3.435559047021318 2.2747147496275322e-08 1.9738668254684476e-08 6.871118048676504" Properties=species:S:1:pos:R:3:forces:R:3 energy=-44.36133575439453 free_energy=-44.36133575439453 stress="8.630945558252279e-06 2.649171193525035e-08 1.6709146288818033e-09 2.649171193525035e-08 8.657852049509529e-06 4.38114033940451e-09 1.6709146288818033e-09 4.38114033940451e-09 8.64966023073066e-06" pbc="T T T"
Nb       1.98352144       1.40256074       3.43555898       0.00000426      -0.00000240      -0.00000068
Nb       5.95056307       4.20768344      10.30667699       0.00000052       0.00000137      -0.00000157
Cr       0.00000003       0.00000003      -0.00000013      -0.00000283       0.00000346       0.00000651
Te       2.04636140       1.44699628       6.87111793       0.00019694       0.00014187       0.00000058
Te       5.88772214       4.16324831       6.87111811      -0.00019968      -0.00014035       0.00000111
Te       4.92738174       1.44699625       5.20776013      -0.00009754       0.00013746       0.00016955
Te       3.00670175       4.16324857       8.53447607       0.00010327      -0.00014324      -0.00017549
Te       3.00670176       4.16324828       5.20776031       0.00009763      -0.00013947       0.00017294
Te       4.92738169       1.44699593       8.53447623      -0.00010245       0.00014139      -0.00017292
