9
Lattice="6.33163393641033 1.3510263127898591e-08 3.6555705355925334 2.1105446808188275 5.969521685345701 3.655570496428942 1.6311346569609508e-08 -3.6431589783047095e-08 7.311141042933029" Properties=species:S:1:pos:R:3:forces:R:3 energy=-30.089017868041992 free_energy=-30.089017868041992 stress="0.00018835329683497548 4.6506865025719435e-09 -7.110199651272353e-10 4.6506865025719435e-09 0.00018835060473065823 -1.1259710497313336e-08 -7.110199651272353e-10 -1.1259710497313336e-08 0.00018834436195902526" pbc="T T T"
Nb       2.11054455       1.49238012       3.65557055      -0.00000015       0.00000025      -0.00000001
Nb       6.33163401       4.47714117      10.96671101      -0.00000153       0.00000024      -0.00000377
Co      -0.00000005      -0.00000008      -0.00000000      -0.00000047       0.00000125       0.00000210
I        2.09884370       1.48410663       7.31114103      -0.00794796      -0.00562013       0.00000112
I        6.34333508       4.48541501       7.31114135       0.00794700       0.00561993       0.00000078
I        5.28221224       1.48410651       5.47322250       0.00397560      -0.00562087      -0.00688223
I        3.15996643       4.48541527       9.14905979      -0.00397223       0.00561909       0.00687963
I        3.15996638       4.48541510       5.47322226      -0.00397310       0.00561963      -0.00688094
I        5.28221221       1.48410687       9.14905979       0.00397288      -0.00561935       0.00688327
