9
Lattice="5.6488316706763575 -6.780001124314989e-08 3.261354543318612 1.882943853459466 5.3257694597601155 3.2613544962822463 3.2030698672158754e-08 -3.495843596171061e-08 6.522709031158414" Properties=species:S:1:pos:R:3:forces:R:3 energy=-41.09362030029297 free_energy=-41.09362030029297 stress="0.0002667695516720414 -7.06780980408439e-08 9.658509014798256e-08 -7.06780980408439e-08 0.0002666556683834642 1.2778102131960623e-08 9.658509014798256e-08 1.2778102131960623e-08 0.000266747287241742" pbc="T T T"
Nb       1.88294342       1.33144224       3.26135468      -0.00000512      -0.00000113       0.00000271
Nb       5.64883198       3.99432636       9.78406339       0.00000359      -0.00000460      -0.00000426
Cr      -0.00000012       0.00000002       0.00000007       0.00000185       0.00000267      -0.00000056
Cl       1.89490058       1.33989719       6.52270862      -0.00099408      -0.00070023       0.00000017
Cl       5.63687509       3.98587250       6.52270918       0.00099006       0.00069933      -0.00000081
Cl       4.70138163       1.33989713       4.90238659       0.00049804      -0.00069943      -0.00085923
Cl       2.83039416       3.98587240       8.14303145      -0.00049747       0.00070312       0.00085940
Cl       2.83039398       3.98587261       4.90238684      -0.00049325       0.00070076      -0.00085651
Cl       4.70138151       1.33989699       8.14303150       0.00049643      -0.00070055       0.00085897
