9
Lattice="6.349180494464985 1.4779690509740984e-09 3.66570107414052 2.116393497631809 5.9860647671475675 3.665701077460202 -2.2359041487600788e-09 2.484749128953437e-09 7.3314021521537045" Properties=species:S:1:pos:R:3:forces:R:3 energy=-27.345272064208984 free_energy=-27.345272064208984 stress="0.00013532165030483156 -2.8849489464022327e-09 -6.134106000921236e-10 -2.8849489464022327e-09 0.00013532143202610314 -1.887847433934553e-09 -6.134106000921236e-10 -1.887847433934553e-09 0.00013532968296203762" pbc="T T T"
Nb       2.11639363       1.49651618       3.66570101       0.00000039      -0.00000136      -0.00000052
Nb       6.34918034       4.48954856      10.99710331      -0.00000076       0.00000164       0.00000150
Cu      -0.00000006      -0.00000001       0.00000012       0.00000003      -0.00000004      -0.00000161
I        2.15644468       1.52483658       7.33140222       0.00807639       0.00570931      -0.00000088
I        6.30912939       4.46122824       7.33140217      -0.00807650      -0.00570984      -0.00000035
I        5.27095824       1.52483655       5.53323685      -0.00403868       0.00571233       0.00699422
I        3.19461588       4.46122802       9.12956735       0.00403690      -0.00570967      -0.00699269
I        3.19461580       4.46122826       5.53323686       0.00403956      -0.00571157       0.00699364
I        5.27095805       1.52483671       9.12956735      -0.00403735       0.00570924      -0.00699326
