9
Lattice="5.147658995341226 -1.479539685405195e-07 2.97200227537898 1.7158862496938625 4.853259259410475 2.9720021759491817 1.073611767035979e-08 -1.1418455414261046e-07 5.944004532162445" Properties=species:S:1:pos:R:3:forces:R:3 energy=-51.60026168823242 free_energy=-51.60026168823242 stress="-5.2214883908163756e-05 2.1586405551943244e-08 -7.451782835232734e-08 2.1586405551943244e-08 -5.207354115555063e-05 3.777407542315814e-08 -7.451782835232734e-08 3.777407542315814e-08 -5.222855543252081e-05" pbc="T T T"
Nb       1.71588725       1.21331475       2.97200447       0.00000952       0.00000157       0.00001770
Nb       5.14765784       3.63994372       8.91600454      -0.00001053      -0.00000253      -0.00002283
Cr       0.00000005      -0.00000008       0.00000062      -0.00000283      -0.00000036      -0.00000687
S        1.83940846       1.30065789       5.94400478       0.00152820       0.00108075      -0.00000184
S        5.02413616       3.55260128       5.94400611      -0.00152421      -0.00107354       0.00000533
S        4.22795441       1.30065818       4.56497622      -0.00076896       0.00108248       0.00132054
S        2.63559091       3.55260093       7.32303183       0.00075752      -0.00107169      -0.00131643
S        2.63559055       3.55260056       4.56497569       0.00076517      -0.00108951       0.00132143
S        4.22795524       1.30065862       7.32303174      -0.00075397       0.00107253      -0.00131726
