9
Lattice="6.367144428696645 1.9881153936690492e-09 3.6760725806152434 2.1223814841274162 6.003001293141106 3.6760725701869785 4.3162854351977805e-08 1.7748766839005795e-08 7.352145086470246" Properties=species:S:1:pos:R:3:forces:R:3 energy=-27.994827270507812 free_energy=-27.994827270507812 stress="5.682526534656063e-05 8.330379941412502e-09 5.563965732591214e-09 8.330379941412502e-09 5.68395626032725e-05 -7.220886666381432e-10 5.563965732591214e-09 -7.220886666381432e-10 5.682897608494386e-05" pbc="T T T"
Nb       2.12238197       1.50074995       3.67607191       0.00000251      -0.00000244      -0.00000365
Nb       6.36714372       4.50225184      11.02821865      -0.00000506       0.00000309       0.00000366
C       -0.00000001       0.00000007      -0.00000002       0.00000019      -0.00000021      -0.00000037
I        2.16159621       1.52847901       7.35214540       0.00200878       0.00141875       0.00000125
I        6.32792973       4.47452196       7.35214474      -0.00200759      -0.00141890      -0.00000158
I        5.28634636       1.52847897       5.54806970      -0.00100435       0.00142021       0.00173952
I        3.20317972       4.47452205       9.15622028       0.00100457      -0.00141962      -0.00173792
I        3.20318012       4.47452221       5.54806954       0.00100638      -0.00141925       0.00173800
I        5.28634602       1.52847912       9.15622077      -0.00100540       0.00141841      -0.00173873
