9
Lattice="5.05971973908708 1.2377151813845044e-08 2.921230601954832 1.6865732612539763 4.770349490594968 2.9212305963736447 -7.874053168597883e-09 -1.2403310998489585e-08 5.8424612175479105" Properties=species:S:1:pos:R:3:forces:R:3 energy=-49.00090789794922 free_energy=-49.00090789794922 stress="-0.0002553806116338819 1.2944047611540554e-08 1.615322209325143e-09 1.2944047611540554e-08 -0.00025544961681589484 -3.8023767245931595e-08 1.615322209325143e-09 -3.8023767245931595e-08 -0.00025540709611959755" pbc="T T T"
Nb       1.68657143       1.19258673       2.92123022      -0.00001397      -0.00000738      -0.00000231
Nb       5.05972117       3.57776237       8.76369230       0.00001277       0.00000412       0.00000231
Co      -0.00000018       0.00000018       0.00000007       0.00000234      -0.00000078      -0.00000219
S        1.76401322       1.24734607       5.84246146       0.00422025       0.00298470       0.00000084
S        4.98227965       3.52300348       5.84246110      -0.00421846      -0.00298542      -0.00000140
S        4.17771345       1.24734546       4.44891132      -0.00211209       0.00298649       0.00365824
S        2.56858007       3.52300374       7.23601087       0.00210965      -0.00298089      -0.00365359
S        2.56857976       3.52300403       4.44891148       0.00210765      -0.00298285       0.00365418
S        4.17771338       1.24734580       7.23601085      -0.00210842       0.00298226      -0.00365627
