9
Lattice="4.242478783026834 4.012179408281823e-08 2.4493961374310014 1.41415960619495 3.9998473261574197 2.4493961824201835 -6.860960040187097e-10 5.4615131327801375e-08 4.8987922760503615" Properties=species:S:1:pos:R:3:forces:R:3 energy=-64.01480865478516 free_energy=-64.01480865478516 stress="-0.0003370981721673161 1.3518562980152637e-07 -3.1056462290735e-08 1.3518562980152637e-07 -0.0003370994527358562 3.380773216932198e-09 -3.1056462290735e-08 3.380773216932198e-09 -0.0003371788770891726" pbc="T T T"
Nb       1.41415943       0.99996202       2.44939612       0.00000061       0.00000598      -0.00000083
Nb       4.24247860       2.99988558       7.34818895      -0.00000604      -0.00000113       0.00000853
Co      -0.00000014      -0.00000009       0.00000013       0.00000020      -0.00000367      -0.00000496
O        1.46563061       1.03635739       4.89879233       0.00637907       0.00451064      -0.00000082
O        4.19100817       2.96348963       4.89879223      -0.00637811      -0.00451517      -0.00000158
O        3.50966330       1.03635756       3.71866912      -0.00319481       0.00451481       0.00552833
O        2.14697514       2.96349011       6.07891498       0.00319436      -0.00451094      -0.00552869
O        2.14697512       2.96349010       3.71866950       0.00319695      -0.00451297       0.00553030
O        3.50966332       1.03635731       6.07891499      -0.00319296       0.00451261      -0.00553107
