9
Lattice="4.185995201925101 -1.7140957337012583e-08 2.416785470901036 1.3953317302227095 3.9465941549228662 2.4167854494091867 1.427715589148969e-09 -2.5312492641061266e-08 4.833570939329189" Properties=species:S:1:pos:R:3:forces:R:3 energy=-67.40534973144531 free_energy=-67.40534973144531 stress="-7.95538435340859e-05 1.498130615118498e-07 -1.083351222064266e-07 1.498130615118498e-07 -7.924454985186458e-05 -4.7610839715162e-08 -1.083351222064266e-07 -4.7610839715162e-08 -7.913027366157621e-05" pbc="T T T"
Nb       1.39533191       0.98664822       2.41678531      -0.00000009      -0.00000523      -0.00000052
Nb       4.18599549       2.95994561       7.25035632       0.00000506      -0.00000344      -0.00000029
C        0.00000096      -0.00000127       0.00000032       0.00002331      -0.00001062       0.00000603
O        1.29554305       0.91608777       4.83357095       0.00071788       0.00050722       0.00000253
O        4.28578297       3.03050645       4.83357096      -0.00071046      -0.00050135      -0.00000117
O        3.53822335       0.91608766       3.53875947      -0.00036779       0.00051178       0.00061980
O        2.04310337       3.03050694       6.12838264       0.00035331      -0.00050709      -0.00061053
O        2.04310340       3.03050686       3.53875920       0.00035049      -0.00050279       0.00060652
O        3.53822325       0.91608813       6.12838221      -0.00037093       0.00051226      -0.00062199
