9
Lattice="5.470270083734472 1.613867426125982e-08 3.158261852274976 1.8234233616368756 5.157420237067431 3.15826187795024 2.102490934571852e-08 4.6312521289771614e-08 6.31652366813374" Properties=species:S:1:pos:R:3:forces:R:3 energy=-47.46383285522461 free_energy=-47.46383285522461 stress="-4.826333679375239e-05 -3.312709395686397e-08 3.186428898516169e-08 -3.312709395686397e-08 -4.829160025110468e-05 -2.5602346909181506e-08 3.186428898516169e-08 -2.5602346909181506e-08 -4.833922139368951e-05" pbc="T T T"
Nb       1.82342336       1.28935480       3.15826079       0.00000346      -0.00000208      -0.00000706
Nb       5.47026951       3.86806523       9.47478608      -0.00000372      -0.00000113       0.00000327
Cr       0.00000017      -0.00000000      -0.00000015      -0.00000109      -0.00000009       0.00000429
Se       1.93913444       1.37117496       6.31652379      -0.00126600      -0.00089854       0.00000241
Se       5.35455899       3.78624524       6.31652400       0.00126725       0.00089636       0.00000056
Se       4.50070308       1.37117543       4.83760130       0.00063384      -0.00089163      -0.00109699
Se       2.79299036       3.78624504       7.79544606      -0.00063485       0.00089329       0.00109407
Se       2.79299092       3.78624525       4.83760161      -0.00063208       0.00089923      -0.00109616
Se       4.50070303       1.37117527       7.79544611       0.00063312      -0.00089574       0.00109556
