9
Lattice="5.870098232622193 6.221021103902202e-08 3.3891028319120706 1.9566994233734207 5.534381811633381 3.38910291185136 -4.643066319028223e-08 6.507384394442087e-08 6.7782057442443575" Properties=species:S:1:pos:R:3:forces:R:3 energy=-43.00479507446289 free_energy=-43.00479507446289 stress="-0.00018481563893146813 4.1284270224650754e-08 1.5075224055194347e-13 4.1284270224650754e-08 -0.00018475053366273642 1.6564528915186116e-10 1.5075224055194347e-13 1.6564528915186116e-10 -0.0001847855601226911" pbc="T T T"
Nb       1.95669941       1.38359539       3.38910270      -0.00000073       0.00000048      -0.00000026
Nb       5.87009806       4.15078666      10.16730841       0.00000121       0.00000187       0.00000012
Co      -0.00000008      -0.00000000      -0.00000011       0.00000069      -0.00000082       0.00000009
Te       1.96763666       1.39132919       6.77820582      -0.00057715      -0.00041051       0.00000089
Te       5.85916105       4.14305276       6.77820573       0.00057863       0.00041011      -0.00000007
Te       4.88627995       1.39132921       5.09312617       0.00028697      -0.00040872      -0.00049869
Te       2.94051771       4.14305273       8.46328555      -0.00028839       0.00040853       0.00050050
Te       2.94051778       4.14305267       5.09312613      -0.00028875       0.00040787      -0.00050079
Te       4.88627990       1.39132915       8.46328555       0.00028752      -0.00040884       0.00049842
