9
Lattice="4.935968496658235 1.0060949221040995e-06 2.8497823723528315 1.6453232408422445 4.653676149463121 2.8497833075433308 -2.951280594104005e-07 9.366827913394707e-07 5.699565255882398" Properties=species:S:1:pos:R:3:forces:R:3 energy=-51.80788803100586 free_energy=-51.80788803100586 stress="1.1031936082872562e-05 -2.775804297527884e-08 -2.0685261503672336e-08 -2.775804297527884e-08 1.0749351531558204e-05 -2.0360403141239658e-07 -2.0685261503672336e-08 -2.0360403141239658e-07 1.1074317626480479e-05" pbc="T T T"
Nb       1.64532235       1.16333069       2.84986703      -0.00000742      -0.00068609       0.00063912
Nb       4.93596583       3.49029231       8.54934099      -0.00001707       0.00029130      -0.00008585
Cr       0.00000008       0.00000758      -0.00001220       0.00000870       0.00004237      -0.00004087
F        1.57488379       1.11360172       5.69953673      -0.00068426      -0.00056097      -0.00022938
F        5.00640179       3.54008907       5.69956817       0.00062990       0.00067198       0.00000485
F        4.14851466       1.11360552       4.21366009       0.00025418      -0.00056493      -0.00067049
F        2.43277406       3.54010304       7.18544245      -0.00026757       0.00075614       0.00047714
F        2.43276386       3.54008216       4.21366998      -0.00035036       0.00059977      -0.00061387
F        4.14854013       1.11360041       7.18545014       0.00043383      -0.00054979       0.00051951
