9
Lattice="5.680945095595851 5.2250292687576125e-08 3.279895256175081 1.8936484158753186 5.356046624700994 3.2798952537248085 2.4652378810896645e-08 1.4430913825172105e-08 6.5597904696509595" Properties=species:S:1:pos:R:3:forces:R:3 energy=-34.993736267089844 free_energy=-34.993736267089844 stress="-0.0003134533762931824 2.9944008161919555e-08 1.929559090285693e-08 2.9944008161919555e-08 -0.00031337220571003854 1.1530182142394096e-08 1.929559090285693e-08 1.1530182142394096e-08 -0.00031345346360467374" pbc="T T T"
Nb       1.89364822       1.33901150       3.27989565      -0.00000320      -0.00000176       0.00000213
Nb       5.68094518       4.01703499       9.83968561       0.00000075      -0.00000165      -0.00000247
Co       0.00000014      -0.00000013      -0.00000029      -0.00000046       0.00000140       0.00000460
Br       1.92549481       1.36153054       6.55979042      -0.00606111      -0.00428735      -0.00000089
Br       5.64909860       3.99451648       6.55979042       0.00606506       0.00428881       0.00000136
Br       4.71819785       1.36153059       4.94742243       0.00303096      -0.00428784      -0.00525112
Br       2.85639578       3.99451626       8.17215857      -0.00303080       0.00428582       0.00524984
Br       2.85639566       3.99451602       4.94742263      -0.00303251       0.00428734      -0.00525138
Br       4.71819794       1.36153052       8.17215846       0.00303133      -0.00428484       0.00524804
