9
Lattice="5.525272545599542 -6.189809408839108e-08 3.1900175430092577 1.8417573852823599 5.209276687448085 3.1900176669537745 -1.1752682505916441e-07 6.869640623381317e-08 6.380035289580975" Properties=species:S:1:pos:R:3:forces:R:3 energy=-45.10732650756836 free_energy=-45.10732650756836 stress="0.0001056472901836969 -4.288767030402596e-08 8.33954061363329e-09 -4.288767030402596e-08 0.00010568541620159522 2.4453628455489707e-08 8.33954061363329e-09 2.4453628455489707e-08 0.00010570527956588194" pbc="T T T"
Nb       1.84175563       1.30231937       3.19001835      -0.00001970       0.00000016       0.00000350
Nb       5.52527270       3.90695550       9.57005369       0.00000645      -0.00002124       0.00000715
Fe      -0.00000010       0.00000001      -0.00000003       0.00000229       0.00000172      -0.00000354
Se       1.90815150       1.34926632       6.38003571      -0.00407970      -0.00288498       0.00000235
Se       5.45887789       3.86001097       6.38003508       0.00407517       0.00288892      -0.00000417
Se       4.57119790       1.34926792       4.84252482       0.00204939      -0.00287372      -0.00353736
Se       2.79583303       3.86000943       7.91754459      -0.00204679       0.00288963       0.00353414
Se       2.79583242       3.86000969       4.84252549      -0.00204614       0.00288051      -0.00353444
Se       4.57119823       1.34926762       7.91754435       0.00205874      -0.00288087       0.00353241
