9
Lattice="6.34795690121388 7.7752347028168e-08 3.6649947853566704 2.1159857310033745 5.984911269085846 3.664994743857149 1.0751452101212529e-07 2.5197942596593283e-08 7.329989384492712" Properties=species:S:1:pos:R:3:forces:R:3 energy=-31.41474151611328 free_energy=-31.41474151611328 stress="-3.512345574563369e-05 -6.367653071492896e-09 2.0835649872097406e-10 -6.367653071492896e-09 -3.511329850880429e-05 -5.765709687466369e-09 2.0835649872097406e-10 -5.765709687466369e-09 -3.512425610097125e-05" pbc="T T T"
Nb       2.11598568       1.49622709       3.66499509      -0.00000060       0.00000002       0.00000277
Nb       6.34795779       4.48868390      10.99498388       0.00000156      -0.00000196      -0.00000105
Fe      -0.00000034       0.00000016      -0.00000027       0.00000237      -0.00000152       0.00000365
I        2.07187290       1.46503598       7.32998919       0.00194433       0.00137419       0.00000019
I        6.39206927       4.51987556       7.32998957      -0.00194323      -0.00137389       0.00000161
I        5.31202006       1.46503588       5.45928947      -0.00097175       0.00137158       0.00168301
I        3.15192233       4.51987596       9.20068931       0.00097233      -0.00137317      -0.00168485
I        3.15192250       4.51987528       5.45929000       0.00096855      -0.00137031       0.00168008
I        5.31202081       1.46503571       9.20068950      -0.00097355       0.00137510      -0.00168540
