9
Lattice="4.728656208116378 -9.536769079781423e-08 2.730090763033173 1.5762186031030692 4.4582190100829715 2.730090837549814 -2.3630885893174806e-07 -7.583171149910811e-08 5.460181935365291" Properties=species:S:1:pos:R:3:forces:R:3 energy=-51.044944763183594 free_energy=-51.044944763183594 stress="0.00013359413424041122 1.1536065613881874e-07 2.4107549734253553e-07 1.1536065613881874e-07 0.00013518915511667728 1.9395939432342857e-07 2.4107549734253553e-07 1.9395939432342857e-07 0.0001339683512924239" pbc="T T T"
Nb       1.57622055       1.11454781       2.73009309       0.00002315      -0.00007667       0.00002225
Nb       4.72865413       3.34367283       8.19026896      -0.00002301       0.00010176      -0.00004499
Fe       0.00000013       0.00000032      -0.00000029      -0.00000130      -0.00000246       0.00000370
F        1.62587726       1.14966504       5.46018117      -0.00023491      -0.00021648      -0.00000899
F        4.67899793       3.30855305       5.46018333       0.00024371       0.00020612       0.00002061
F        3.91571597       1.14966466       4.13814181       0.00010411      -0.00022032      -0.00021126
F        2.38915824       3.30855308       6.78222236      -0.00010508       0.00020760       0.00021977
F        2.38915736       3.30855264       4.13814140      -0.00012420       0.00020292      -0.00021596
F        3.91571679       1.14966593       6.78222239       0.00011731      -0.00020228       0.00021500
