9
Lattice="4.282248896785747 8.029031453630949e-09 2.4723575985237063 1.4274163003102907 4.037342958632936 2.4723576092418993 -9.077149058074045e-09 6.7085375628407686e-09 4.944715212769497" Properties=species:S:1:pos:R:3:forces:R:3 energy=-63.205108642578125 free_energy=-63.205108642578125 stress="0.00024596910225227475 6.868414459404448e-08 1.561950924156008e-08 6.868414459404448e-08 0.00024597192532382905 -4.347877169408321e-09 1.561950924156008e-08 -4.347877169408321e-09 0.00024605594808235765" pbc="T T T"
Nb       1.42741719       1.00933539       2.47235832       0.00001443      -0.00000564       0.00000935
Nb       4.28224926       3.02800734       7.41707271       0.00000666      -0.00000106       0.00000023
Fe      -0.00000006      -0.00000005       0.00000004       0.00000161      -0.00000161       0.00000539
O        1.46566980       1.03638532       4.94471421      -0.00318423      -0.00224625      -0.00001444
O        4.24399512       3.00095768       4.94471619       0.00318094       0.00225058       0.00000802
O        3.54941399       1.03638516       3.74166460       0.00159088      -0.00224376      -0.00275397
O        2.16025061       3.00095790       6.14776504      -0.00159805       0.00224606       0.00274732
O        2.16025166       3.00095831       3.74166491      -0.00158597       0.00225376      -0.00275570
O        3.54941323       1.03638486       6.14776558       0.00157398      -0.00225157       0.00275372
