9
Lattice="5.615304499887174 -2.4470391123123485e-09 3.2419974956032207 1.87176814015447 5.294159814883701 3.241997537462542 -1.6993904582077842e-07 -6.889807334229173e-08 6.4839952855494944" Properties=species:S:1:pos:R:3:forces:R:3 energy=-38.46196746826172 free_energy=-38.46196746826172 stress="5.076310844742693e-05 -3.3726919923537935e-08 -1.2669192805958573e-08 -3.3726919923537935e-08 5.065745426691137e-05 1.5739757941446442e-08 -1.2669192805958573e-08 1.5739757941446442e-08 5.07316981384065e-05" pbc="T T T"
Nb       1.87176498       1.32353773       3.24199811      -0.00003074      -0.00002222       0.00000451
Nb       5.61530422       3.97062053       9.72599281      -0.00000122       0.00000990       0.00000442
Fe       0.00000016       0.00000017      -0.00000019       0.00000120      -0.00000113      -0.00000458
Cl       1.86578061       1.31930612       6.48399516       0.00057712       0.00040233      -0.00000338
Cl       5.62129185       3.97485430       6.48399509      -0.00057375      -0.00040272      -0.00000286
Cl       4.68241528       1.31930617       4.85781149      -0.00027944       0.00040852       0.00050303
Cl       2.80465888       3.97485419       8.11017928       0.00028905      -0.00039585      -0.00049970
Cl       2.80465856       3.97485421       4.85781108       0.00029302      -0.00039971       0.00050211
Cl       4.68241539       1.31930559       8.11017841      -0.00027531       0.00040098      -0.00050366
