9
Lattice="5.880260647839498 -2.3721381832068072e-08 3.394970210143929 1.9600868656626422 5.543963015587786 3.3949702007662412 1.5015101503254165e-08 -8.679767853675458e-10 6.78994039428095" Properties=species:S:1:pos:R:3:forces:R:3 energy=-43.77018356323242 free_energy=-43.77018356323242 stress="-5.891915498068556e-05 -3.440812079702482e-08 -2.4587693658872922e-08 -3.440812079702482e-08 -5.892697663512081e-05 7.2843140408451745e-09 -2.4587693658872922e-08 7.2843140408451745e-09 -5.891177352168597e-05" pbc="T T T"
Nb       1.96008678       1.38599118       3.39497004      -0.00000228      -0.00000003      -0.00000088
Nb       5.88026055       4.15797115      10.18491173       0.00000040      -0.00000452       0.00000531
Fe       0.00000002      -0.00000006      -0.00000015       0.00000082      -0.00000072       0.00000019
Te       1.97464149       1.39628281       6.78994038      -0.00008327      -0.00005792      -0.00000030
Te       5.86570596       4.14768023       6.78993980       0.00008652       0.00005896      -0.00000117
Te       4.89293991       1.39628295       5.10505997       0.00004594      -0.00006247      -0.00007409
Te       2.94740770       4.14768079       8.47482054      -0.00004441       0.00006372       0.00007445
Te       2.94740794       4.14768039       5.10506003      -0.00004337       0.00006104      -0.00007762
Te       4.89293976       1.39628257       8.47482089       0.00003977      -0.00005814       0.00007428
