9
Lattice="5.052480648181757 9.600472607023804e-08 2.9170510254424293 1.6841604122817284 4.7635238633874915 2.917050842352479 5.323684028757452e-09 -2.2047408452074935e-07 5.834102041663978" Properties=species:S:1:pos:R:3:forces:R:3 energy=-49.47203063964844 free_energy=-49.47203063964844 stress="3.527840453898534e-05 1.0070175449072849e-07 1.6789654111448726e-08 1.0070175449072849e-07 3.525350985000841e-05 -3.0087655034094496e-08 1.6789654111448726e-08 -3.0087655034094496e-08 3.521703911246732e-05" pbc="T T T"
Nb       1.68416064       1.19088519       2.91705087       0.00000332       0.00004554      -0.00000289
Nb       5.05248084       3.57263889       8.75115375      -0.00000199      -0.00004782       0.00001181
Fe       0.00000010       0.00000089      -0.00000068      -0.00000033       0.00001222      -0.00001166
S        1.79051959       1.26608889       5.83410234       0.00060594       0.00043255       0.00000247
S        4.94612075       3.49743425       5.83410168      -0.00060403      -0.00043273      -0.00000088
S        4.15722118       1.26608938       4.46768590      -0.00030327       0.00043511       0.00052357
S        2.57942040       3.49743496       7.20051812       0.00030529      -0.00043750      -0.00052357
S        2.57941938       3.49743421       4.46768629       0.00029945      -0.00043827       0.00052798
S        4.15722106       1.26608811       7.20051742      -0.00030547       0.00042993      -0.00052655
