9
Lattice="5.703531554200697 3.7181515024107717e-09 3.29293548723994 1.9011771410530092 5.377341315679833 3.2929355689685864 -1.6905515964007648e-08 8.814271124558514e-08 6.5858710037610955" Properties=species:S:1:pos:R:3:forces:R:3 energy=-36.322593688964844 free_energy=-36.322593688964844 stress="-0.00021084681793581694 -5.5190682246575307e-08 -1.2185113362761513e-08 -5.5190682246575307e-08 -0.00021079651196487248 7.331920670594627e-08 -1.2185113362761513e-08 7.331920670594627e-08 -0.00021090095106046647" pbc="T T T"
Nb       1.90117670       1.34433610       3.29293576       0.00000006       0.00000163      -0.00000146
Nb       5.70353203       4.03300544       9.87880718       0.00000114      -0.00000225       0.00000116
Fe      -0.00000058       0.00000052      -0.00000164       0.00000930      -0.00000818       0.00003429
Br       1.89684935       1.34127585       6.58587092      -0.00171688      -0.00121403       0.00000248
Br       5.70785955       4.03606566       6.58587040       0.00171456       0.00121063       0.00000515
Br       4.75510634       1.34127623       4.93565544       0.00086384      -0.00122461      -0.00149167
Br       2.84960130       4.03606613       8.23608716      -0.00085355       0.00120762       0.00147918
Br       2.84960236       4.03606512       4.93565544      -0.00086679       0.00122514      -0.00149590
Br       4.75510760       1.34127454       8.23608761       0.00084831      -0.00119606       0.00146687
