9
Lattice="4.892119577877877 7.052690328404899e-07 2.824466554188797 1.6307070682848515 4.612332947971011 2.824466766553065 4.3418106321401164e-07 5.671043093348029e-07 5.6489323563539475" Properties=species:S:1:pos:R:3:forces:R:3 energy=-47.171630859375 free_energy=-47.171630859375 stress="0.0002817339263856411 -9.375260390243056e-08 1.2546766292587108e-08 -9.375260390243056e-08 0.0002816561609506607 -9.712600501643465e-08 1.2546766292587108e-08 -9.712600501643465e-08 0.0002817851782310754" pbc="T T T"
Nb       1.63070562       1.15310334       2.82446634       0.00000180       0.00016439      -0.00001452
Nb       4.89213918       3.45925852       8.47338985       0.00014310       0.00006720      -0.00007371
Ge       0.00000016       0.00000075      -0.00000271      -0.00001013      -0.00002062       0.00001567
F        1.66780475       1.17931287       5.64893524       0.00082109       0.00057651       0.00000715
F        4.85502431       3.43301569       5.64893385      -0.00082302      -0.00062798       0.00001981
F        4.05821897       1.17930808       4.26882920      -0.00042571       0.00054527       0.00075362
F        2.46460247       3.43301050       7.02904310       0.00037147      -0.00063886      -0.00071489
F        2.46459647       3.43301339       4.26882433       0.00034577      -0.00064325       0.00073516
F        4.05821670       1.17931347       7.02904292      -0.00042446       0.00057705      -0.00072834
