9
Lattice="5.488837952280536 2.1920914254880897e-08 3.168982018472539 1.829612613580306 5.174926115789591 3.168982118666635 -9.989224217999001e-08 5.207775157359257e-08 6.337964209963464" Properties=species:S:1:pos:R:3:forces:R:3 energy=-43.782100677490234 free_energy=-43.782100677490234 stress="0.00012489636719692498 -6.664075158369087e-08 -4.864067548737694e-08 -6.664075158369087e-08 0.00012495776172727346 -6.897030169206175e-11 -4.864067548737694e-08 -6.897030169206175e-11 0.0001249889755854383" pbc="T T T"
Nb       1.82961241       1.29373082       3.16898147       0.00000031      -0.00000438      -0.00000967
Nb       5.48883610       3.88119553       9.50694991      -0.00001733       0.00000787       0.00004457
Ge       0.00000002       0.00000012       0.00000008      -0.00000028      -0.00000156       0.00000147
S        1.87061704       1.32272502       6.33796477       0.00073463       0.00050735       0.00000756
S        5.44783413       3.85220056       6.33796281      -0.00072914      -0.00051320      -0.00002123
S        4.55353017       1.32272671       4.78898301      -0.00035533       0.00052494       0.00062495
S        2.76492095       3.85220084       7.88694441       0.00036073      -0.00051159      -0.00063312
S        2.76492222       3.85220036       4.78898267       0.00037968      -0.00051141       0.00062180
S        4.55352876       1.32272480       7.88694415      -0.00037271       0.00050241      -0.00063598
