9
Lattice="5.885996179892093 1.8255839432422715e-07 3.398281534979658 1.9619989178086497 5.549370498431223 3.3982815019664128 6.148039231642304e-08 3.040352303598294e-09 6.796562963472201" Properties=species:S:1:pos:R:3:forces:R:3 energy=-31.972793579101562 free_energy=-31.972793579101562 stress="7.621945405844599e-05 -2.9056977268737683e-08 -2.6839986233540003e-08 -2.9056977268737683e-08 7.623183046234772e-05 1.0237682701585982e-08 -2.6839986233540003e-08 1.0237682701585982e-08 7.626017031725496e-05" pbc="T T T"
Nb       1.96199843       1.38734252       3.39828136      -0.00000674      -0.00000348      -0.00000276
Nb       5.88599640       4.16202778      10.19484411       0.00000130      -0.00000264       0.00000007
Ge       0.00000004       0.00000004       0.00000010       0.00000018       0.00000009      -0.00000033
Br       2.02070258       1.42885257       6.79656303      -0.00014414      -0.00010225       0.00000068
Br       5.82729268       4.12051827       6.79656294       0.00014583       0.00010549       0.00000080
Br       4.87564520       1.42885260       5.14826131       0.00007381      -0.00010191      -0.00012913
Br       2.97234998       4.12051824       8.44486477      -0.00007239       0.00010330       0.00012735
Br       2.97235006       4.12051837       5.14826165      -0.00007294       0.00010493      -0.00012463
Br       4.87564530       1.42885237       8.44486470       0.00007515      -0.00010369       0.00012812
