9
Lattice="5.752399591525012 1.37794800844101e-08 3.3211495710754573 1.917466529975196 5.423414492766935 3.32114959450064 2.6903239305237146e-08 4.771338620227365e-08 6.642299095553135" Properties=species:S:1:pos:R:3:forces:R:3 energy=-34.51448059082031 free_energy=-34.51448059082031 stress="0.00036673262366093695 -3.103648893443278e-08 3.9490320347113084e-08 -3.103648893443278e-08 0.0003667133569251746 -1.0120523086243338e-08 3.9490320347113084e-08 -1.0120523086243338e-08 0.00036665311199612916" pbc="T T T"
Nb       1.91746576       1.35585481       3.32114889      -0.00000981       0.00001176      -0.00000817
Nb       5.75239897       4.06755990       9.96345046      -0.00000363      -0.00001259       0.00001870
Ge       0.00000010      -0.00000022       0.00000017      -0.00000008      -0.00000169       0.00000090
Cl       1.94139604       1.37277412       6.64229918       0.00611681       0.00432402       0.00000141
Cl       5.72847032       4.05063998       6.64229798      -0.00611008      -0.00432626      -0.00000563
Cl       4.78170219       1.37277570       5.00244678      -0.00305377       0.00433220       0.00528811
Cl       2.88816433       4.05063914       8.28215129       0.00305695      -0.00432958      -0.00529353
Cl       2.88816426       4.05064071       5.00244796       0.00305710      -0.00432136       0.00529450
Cl       4.78170266       1.37277411       8.28215037      -0.00305345       0.00432349      -0.00529632
