9
Lattice="6.072015124701269 3.771331912331687e-08 3.5056795394184634 2.0240050716745888 5.7247507602616965 3.5056795488563393 1.5185006782447157e-08 2.229639797930341e-08 7.011359052535722" Properties=species:S:1:pos:R:3:forces:R:3 energy=-37.544960021972656 free_energy=-37.544960021972656 stress="-0.00017838188796304166 1.4887294952359298e-08 -1.548510120130686e-08 1.4887294952359298e-08 -0.00017840106738731265 -5.2986521836828615e-09 -1.548510120130686e-08 -5.2986521836828615e-09 -0.00017841727822087705" pbc="T T T"
Nb       2.02400398       1.43118770       3.50567908      -0.00000695      -0.00000062      -0.00000440
Nb       6.07201527       4.29356307      10.51704016       0.00000005      -0.00000104       0.00001095
Ge       0.00000003       0.00000006      -0.00000021      -0.00000222      -0.00000264       0.00000295
Te       2.13878869       1.51235194       7.01135946      -0.00183652      -0.00129800       0.00000147
Te       5.95723163       4.21239857       7.01135816       0.00184154       0.00129988      -0.00000398
Te       5.00262111       1.51235227       5.35792487       0.00092065      -0.00129824      -0.00159324
Te       3.09339920       4.21239910       8.66479309      -0.00091904       0.00129841       0.00158987
Te       3.09339975       4.21239879       5.35792488      -0.00091742       0.00130031      -0.00159241
Te       5.00262117       1.51235175       8.66479307       0.00091987      -0.00129819       0.00158863
