9
Lattice="6.555622313713382 6.669135434670295e-08 3.78489025466455 2.185207479930851 6.180699860176136 3.7848902907792326 -1.1600612925228575e-08 3.6028396561369124e-08 7.569780529421968" Properties=species:S:1:pos:R:3:forces:R:3 energy=-27.380229949951172 free_energy=-27.380229949951172 stress="8.270377293229103e-05 1.0034808539671758e-08 2.0697896174759478e-10 1.0034808539671758e-08 8.26978575787507e-05 5.944984060590741e-09 2.0697896174759478e-10 5.944984060590741e-09 8.268808596767485e-05" pbc="T T T"
Nb       2.18520728       1.54517522       3.78488971      -0.00000159       0.00000097      -0.00000318
Nb       6.55562258       4.63552543      11.35467088       0.00000140       0.00000215      -0.00000062
Ge       0.00000004       0.00000010      -0.00000005       0.00000104      -0.00000016       0.00000022
I        2.26915662       1.60453622       7.56978056       0.00028158       0.00020026       0.00000173
I        6.47167332       4.57616350       7.56978044      -0.00028191      -0.00020134       0.00000039
I        5.42104395       1.60453582       5.75003780      -0.00014022       0.00019819       0.00024512
I        3.31978575       4.57616373       9.38952366       0.00014151      -0.00020101      -0.00024447
I        3.31978582       4.57616408       5.75003775       0.00014133      -0.00019866       0.00024611
I        5.42104374       1.60453572       9.38952356      -0.00014320       0.00019962      -0.00024533
