9
Lattice="4.280612587148108 -5.722263655910942e-09 2.47141288646456 1.426870866741425 4.0358002329139095 2.4714128695706 1.88249735503723e-08 -7.379507799137284e-09 4.942825740323313" Properties=species:S:1:pos:R:3:forces:R:3 energy=-65.32612609863281 free_energy=-65.32612609863281 stress="0.00010990992450388148 -5.314309348136703e-08 -6.623481141332377e-08 -5.314309348136703e-08 0.00010996427590725943 5.453181017855968e-09 -6.623481141332377e-08 5.453181017855968e-09 0.00011005595297319815" pbc="T T T"
Nb       1.42687065       1.00894973       2.47141252      -0.00000377      -0.00000256      -0.00000555
Nb       4.28061274       3.02685029       7.41423899       0.00000489      -0.00000041       0.00000441
Ge       0.00000003      -0.00000009       0.00000004       0.00000258      -0.00000122      -0.00000506
O        1.47239087       1.04113759       4.94282605      -0.00106394      -0.00075430       0.00000197
O        4.23509261       2.99466264       4.94282546       0.00106180       0.00075370      -0.00000280
O        3.54441715       1.04113755       3.74654077       0.00052798      -0.00075364      -0.00091928
O        2.16306640       2.99466274       6.13911074      -0.00053006       0.00075847       0.00092393
O        2.16306618       2.99466260       3.74654092      -0.00053573       0.00075322      -0.00092274
O        3.54441724       1.04113769       6.13911068       0.00053573      -0.00075394       0.00092435
