9
Lattice="5.606466426730629 -2.6986358228068974e-08 3.236894785715146 1.868822106619092 5.285827242138117 3.2368948033499354 -1.3248205283230724e-07 -7.208084098936034e-08 6.4737898008959105" Properties=species:S:1:pos:R:3:forces:R:3 energy=-40.42675018310547 free_energy=-40.42675018310547 stress="-0.00020059199596289545 -3.593619268826842e-08 -4.25604547160674e-08 -3.593619268826842e-08 -0.00020059403323102742 -1.6466730201614155e-08 -4.25604547160674e-08 -1.6466730201614155e-08 -0.00020040654635522515" pbc="T T T"
Nb       1.86882258       1.32145790       3.23689471       0.00000112       0.00000531      -0.00000065
Nb       5.60646568       3.96437017       9.71068457      -0.00000178      -0.00000118       0.00000255
Ge      -0.00000004      -0.00000004       0.00000017       0.00000105       0.00000035      -0.00000171
Se       1.98139314       1.40105642       6.47378989      -0.00380945      -0.00269434       0.00000067
Se       5.49389556       3.88477024       6.47378928       0.00381282       0.00269063      -0.00000343
Se       4.61576937       1.40105614       4.95283191       0.00190376      -0.00269532      -0.00329971
Se       2.85951893       3.88477033       7.99474773      -0.00190610       0.00269423       0.00330314
Se       2.85951906       3.88477019       4.95283134      -0.00190513       0.00269191      -0.00330582
Se       4.61576936       1.40105715       7.99474798       0.00190356      -0.00269175       0.00330475
