9
Lattice="5.658589018478435 -1.2250329913788664e-08 3.2669877892670325 1.8861963356938871 5.3349689751785965 3.266987775842248 -5.048468804431702e-08 -5.213998928083063e-08 6.5339756659760955" Properties=species:S:1:pos:R:3:forces:R:3 energy=-48.31482696533203 free_energy=-48.31482696533203 stress="-0.0001683085283730179 6.607798752611416e-08 5.200939234839552e-09 6.607798752611416e-08 -0.0001683613663772121 -1.285896811253906e-08 5.200939234839552e-09 -1.285896811253906e-08 -0.00016847554070409387" pbc="T T T"
Nb       1.88619672       1.33374246       3.26698809       0.00000364       0.00000117       0.00000104
Nb       5.65858851       4.00122721       9.80096343      -0.00000766       0.00000410       0.00000031
Hf      -0.00000013      -0.00000021      -0.00000011       0.00000220       0.00000085      -0.00000101
Se       2.04665848       1.44720599       6.53397541      -0.00765105      -0.00540909      -0.00000022
Se       5.49812709       3.88776258       6.53397549       0.00765099       0.00541090       0.00000060
Se       4.63525930       1.44720592       5.03944575       0.00381983      -0.00540938      -0.00662430
Se       2.90952568       3.88776273       8.02850562      -0.00382182       0.00540531       0.00662065
Se       2.90952580       3.88776295       5.03944587      -0.00381992       0.00540430      -0.00661974
Se       4.63525975       1.44720601       8.02850539       0.00382391      -0.00540835       0.00662278
