9
Lattice="4.41312603989486 -4.383053099476142e-08 2.5479194196703325 1.4710419592718913 4.1607349975468955 2.547919441671829 -2.0141638458125303e-08 1.2703930570929672e-08 5.095838874227005" Properties=species:S:1:pos:R:3:forces:R:3 energy=-71.44046020507812 free_energy=-71.44046020507812 stress="4.570334203890525e-05 -5.778099421149818e-08 -2.9088660369325225e-08 -5.778099421149818e-08 4.60613846371416e-05 -1.141780501257017e-07 -2.9088660369325225e-08 -1.141780501257017e-07 4.598542000167072e-05" pbc="T T T"
Nb       1.47104225       1.04018278       2.54791878       0.00000161      -0.00001163      -0.00000828
Nb       4.41312523       3.12055170       7.64375881      -0.00001363       0.00000629       0.00000443
Hf      -0.00000003       0.00000012       0.00000002       0.00000183      -0.00001129      -0.00001078
O        1.57245210       1.11189203       5.09583910      -0.00743660      -0.00525266       0.00000277
O        4.31171569       3.04884320       5.09583844       0.00744317       0.00525826      -0.00000403
O        3.62689960       1.11189109       3.90970328       0.00371306      -0.00526109      -0.00643310
O        2.25726874       3.04884356       6.28197469      -0.00371462       0.00526942       0.00644720
O        2.25726880       3.04884363       3.90970303      -0.00371021       0.00526452      -0.00644694
O        3.62689949       1.11189169       6.28197485       0.00371566      -0.00526208       0.00644819
