9
Lattice="6.139517164933825 -5.2859042186829265e-09 3.5446518238215683 2.0465057033821332 5.7883922989554115 3.544651846821264 -4.2867819270749134e-08 -2.1433563954317222e-09 7.089303721892416" Properties=species:S:1:pos:R:3:forces:R:3 energy=-44.815887451171875 free_energy=-44.815887451171875 stress="-5.681151742464863e-05 -3.1190166005501396e-09 3.909767620768889e-09 -3.1190166005501396e-09 -5.683156632585451e-05 -6.304333943774054e-09 3.909767620768889e-09 -6.304333943774054e-09 -5.682154369424097e-05" pbc="T T T"
Nb       2.04650561       1.44709795       3.54465168       0.00000043      -0.00000068      -0.00000100
Nb       6.13951697       4.34129438      10.63395653      -0.00000170       0.00000034       0.00000879
Hf      -0.00000008       0.00000023      -0.00000023       0.00000386      -0.00000404       0.00000743
Te       2.18910717       1.54793246       7.08930362      -0.00122003      -0.00086619       0.00000039
Te       5.99691583       4.24045987       7.08930319       0.00121510       0.00086272      -0.00000227
Te       5.04496369       1.54793259       5.44047426       0.00061262      -0.00086406      -0.00105701
Te       3.14105898       4.24045968       8.73813306      -0.00060841       0.00086167       0.00105461
Te       3.14105948       4.24045967       5.44047420      -0.00060965       0.00086844      -0.00106083
Te       5.04496364       1.54793230       8.73813330       0.00060788      -0.00085819       0.00104989
