9
Lattice="5.303629385736412 9.80305024425739e-09 3.0620521218374934 1.7678764722137548 5.000309788233158 3.062052120002856 7.270577696900388e-08 4.9163743382640527e-08 6.124104117744903" Properties=species:S:1:pos:R:3:forces:R:3 energy=-48.79400634765625 free_energy=-48.79400634765625 stress="-2.341100753255887e-06 9.523668964561693e-09 -9.730604233482154e-08 9.523668964561693e-09 -2.411848754491075e-06 -6.564529542174569e-08 -9.730604233482154e-08 -6.564529542174569e-08 -2.3856655388954096e-06" pbc="T T T"
Nb       1.76787717       1.25007746       3.06205597       0.00000999      -0.00000008       0.00003951
Nb       5.30362788       3.75023212       9.18615229      -0.00001474      -0.00000046      -0.00004216
Ir       0.00000041       0.00000020      -0.00000027       0.00000027       0.00000005      -0.00000141
S        1.90196410       1.34489119       6.12410383       0.00089383       0.00062650      -0.00000967
S        5.16954203       3.65541835       6.12410577      -0.00088882      -0.00062788       0.00001310
S        4.35264673       1.34489121       4.70920070      -0.00045657       0.00062829       0.00076950
S        2.71885942       3.65541851       7.53900711       0.00045329      -0.00062513      -0.00076807
S        2.71885802       3.65541813       4.70920127       0.00044113      -0.00063598       0.00077021
S        4.35264803       1.34489214       7.53900714      -0.00043821       0.00063556      -0.00077081
