9
Lattice="4.407334557719278 1.6078867096944425e-08 2.5445757803363644 1.469111558422033 4.155274637622704 2.5445757387273593 7.547827455366423e-08 2.4107775361611685e-09 5.08915142994053" Properties=species:S:1:pos:R:3:forces:R:3 energy=-63.6693000793457 free_energy=-63.6693000793457 stress="-1.8543138139648363e-05 -3.2344541267548266e-08 -4.045947576969411e-08 -3.2344541267548266e-08 -1.8381111658527516e-05 -3.7609048320064176e-08 -4.045947576969411e-08 -3.7609048320064176e-08 -1.8556347640696913e-05" pbc="T T T"
Nb       1.46911129       1.03881705       2.54457483      -0.00000501      -0.00002215      -0.00001708
Nb       4.40733393       3.11645712       7.63372675      -0.00001255       0.00001712      -0.00000841
Ir      -0.00000007      -0.00000002       0.00000010       0.00000859      -0.00000146      -0.00000108
O        1.55644881       1.10057448       5.08915154      -0.00076079      -0.00055259       0.00000202
O        4.31999731       3.05470054       5.08915209       0.00075799       0.00055152       0.00000728
O        3.62911136       1.10057534       3.89249979       0.00039271      -0.00053960      -0.00065798
O        2.24733581       3.05469920       6.28580389      -0.00038439       0.00054073       0.00067419
O        2.24733575       3.05470007       3.89249970      -0.00038213       0.00055104      -0.00065762
O        3.62911069       1.10057489       6.28580317       0.00038579      -0.00054502       0.00065982
