9
Lattice="5.664533518565864 -4.623198677595911e-08 3.27042010245989 1.8881778099462432 5.340573531810249 3.2704200781898916 1.2032616157046802e-07 5.5358966418552935e-08 6.540839996508676" Properties=species:S:1:pos:R:3:forces:R:3 energy=-44.76732635498047 free_energy=-44.76732635498047 stress="-3.816082971752621e-05 1.9957102637135904e-08 1.0685049289804738e-08 1.9957102637135904e-08 -3.818058394244872e-05 -1.1994134574422333e-08 1.0685049289804738e-08 -1.1994134574422333e-08 -3.8149180909385905e-05" pbc="T T T"
Nb       1.88817812       1.33514446       3.27042065       0.00000512       0.00000719       0.00000459
Nb       5.66453308       4.00543069       9.81125972      -0.00000437       0.00000293      -0.00000637
Ir      -0.00000015      -0.00000011       0.00000000       0.00000003      -0.00000076      -0.00000130
Se       1.98633297       1.40454937       6.54084005      -0.00155067      -0.00109878      -0.00000187
Se       5.56637833       3.93602431       6.54084061       0.00154996       0.00109830       0.00000543
Se       4.67136785       1.40454943       4.99063515       0.00077659      -0.00109780      -0.00133991
Se       2.88134434       3.93602368       8.09104542      -0.00077605       0.00109625       0.00134534
Se       2.88134406       3.93602296       4.99063392      -0.00077641       0.00108942      -0.00134856
Se       4.67136717       1.40454938       8.09104522       0.00077567      -0.00109702       0.00134283
