9
Lattice="5.621071444745234 7.181187611258882e-08 3.245326998288992 1.8736905077597494 5.29959697465999 3.245327070215628 -5.380015844493455e-08 5.004936183707772e-08 6.490654089762554" Properties=species:S:1:pos:R:3:forces:R:3 energy=-35.04096221923828 free_energy=-35.04096221923828 stress="8.432599861407652e-05 1.9940687323583006e-08 -1.6177647665926997e-08 1.9940687323583006e-08 8.428621367784217e-05 -2.6079684189994623e-08 -1.6177647665926997e-08 -2.6079684189994623e-08 8.42949011712335e-05" pbc="T T T"
Nb       1.87368984       1.32489932       3.24532642      -0.00000475       0.00000392      -0.00000483
Nb       5.62107099       3.97469646       9.73598095      -0.00000567      -0.00001375       0.00000003
Mg       0.00000023       0.00000021       0.00000011       0.00000010      -0.00000077       0.00000517
Cl       1.91969437       1.35742943       6.49065406       0.00078417       0.00055680       0.00000183
Cl       5.57506774       3.94216804       6.49065386      -0.00078414      -0.00055531       0.00000067
Cl       4.66122455       1.35742911       4.90783102      -0.00038889       0.00055820       0.00068086
Cl       2.83353769       3.94216781       8.07347754       0.00039724      -0.00055908      -0.00068296
Cl       2.83353800       3.94216833       4.90783129       0.00039518      -0.00055239       0.00067995
Cl       4.66122419       1.35742967       8.07347743      -0.00039310       0.00056247      -0.00068054
