9
Lattice="4.267852061775982 -7.850554003949697e-08 2.4640454927753823 1.4226173189182387 4.023769444597042 2.464045425210393 1.39093658846425e-08 -7.291446154086691e-08 4.928090961459034" Properties=species:S:1:pos:R:3:forces:R:3 energy=-67.14852905273438 free_energy=-67.14852905273438 stress="-0.00011025078856619075 -1.6311058459450578e-07 9.383602872503616e-08 -1.6311058459450578e-07 -0.00011038615775760263 -4.358520655500797e-08 9.383602872503616e-08 -4.358520655500797e-08 -0.00010991602903231978" pbc="T T T"
Nb       1.42261768       1.00594265       2.46404500       0.00000052       0.00000284       0.00000203
Nb       4.26785220       3.01782631       7.39213634       0.00000560      -0.00000774       0.00000281
Mn      -0.00000025      -0.00000032       0.00000066       0.00001673       0.00001289      -0.00002037
O        1.46754213       1.03770847       4.92809089      -0.00042959      -0.00030418       0.00000857
O        4.22292782       2.98606070       4.92809074       0.00041044       0.00029293      -0.00000501
O        3.53408054       1.03770903       3.73497397       0.00020909      -0.00029694      -0.00037730
O        2.15638826       2.98606052       6.12120775      -0.00021353       0.00030035       0.00037539
O        2.15638787       2.98606048       3.73497481      -0.00021940       0.00030388      -0.00036663
O        3.53408134       1.03770926       6.12120719       0.00021970      -0.00030372       0.00038064
