9
Lattice="5.79200464657019 -6.351323390906463e-08 3.344015478489959 1.9306681712428426 5.460754332383767 3.3440154514693967 -4.030726744845053e-08 -6.159477626617367e-08 6.6880310267940875" Properties=species:S:1:pos:R:3:forces:R:3 energy=-32.2033805847168 free_energy=-32.2033805847168 stress="-2.204089287261013e-05 -1.7952970665646717e-08 -3.7742246661309764e-08 -1.7952970665646717e-08 -2.206828685302753e-05 -3.4831327155870895e-08 -3.7742246661309764e-08 -3.4831327155870895e-08 -2.1954221665509976e-05" pbc="T T T"
Nb       1.93066727       1.36518834       3.34401566      -0.00000990      -0.00000128      -0.00000033
Nb       5.79200436       4.09556536      10.03204744      -0.00000046      -0.00000292       0.00000560
Mg      -0.00000004      -0.00000045      -0.00000042       0.00000564       0.00000722       0.00000091
Br       1.98920335       1.40657924       6.68803075      -0.00462745      -0.00327194      -0.00000158
Br       5.73346986       4.05417549       6.68803085       0.00462397       0.00326910      -0.00000126
Br       4.79740315       1.40657919       5.06671612       0.00231719      -0.00327270      -0.00401051
Br       2.92526976       4.05417525       8.30934572      -0.00231371       0.00327265       0.00400668
Br       2.92527025       4.05417521       5.06671607      -0.00231169       0.00327420      -0.00401063
Br       4.79740317       1.40657922       8.30934560       0.00231637      -0.00327438       0.00401106
