9
Lattice="4.728973212492658 -3.225651687649758e-08 2.7302740551142306 1.5763243852872946 4.458518729320071 2.73027403513539 -7.840461990668471e-08 -7.990943038598187e-08 5.460548246029211" Properties=species:S:1:pos:R:3:forces:R:3 energy=-52.81401824951172 free_energy=-52.81401824951172 stress="2.127522020600736e-05 -2.624233275128063e-07 7.263202661533796e-08 -2.624233275128063e-07 2.122029400197789e-05 7.413241576159635e-08 7.263202661533796e-08 7.413241576159635e-08 2.065024818875827e-05" pbc="T T T"
Nb       1.57631794       1.11462006       2.73027350      -0.00007929      -0.00011581      -0.00000679
Nb       4.72897576       3.34388268       8.19081957       0.00003083      -0.00007650      -0.00003221
Mn      -0.00000009      -0.00000071      -0.00000020      -0.00000517      -0.00000249      -0.00000768
F        1.61448035       1.14161267       5.46054890       0.00652026       0.00464657       0.00000574
F        4.69081383       3.31691065       5.46054871      -0.00654923      -0.00459013       0.00001186
F        3.92173690       1.14161330       4.12845731      -0.00322533       0.00464022       0.00566666
F        2.38356639       3.31691145       6.79263733       0.00327517      -0.00457124      -0.00568228
F        2.38356409       3.31691015       4.12845891       0.00326276      -0.00458320       0.00569281
F        3.92173519       1.14161457       6.79264099      -0.00323031       0.00465234      -0.00564813
