9
Lattice="5.6163420436101035 -3.286385098545255e-08 3.2425966565350004 1.8721140097110516 5.295138104052322 3.2425966112267934 3.136486277969193e-09 -5.327314647211847e-08 6.4851933076374095" Properties=species:S:1:pos:R:3:forces:R:3 energy=-40.48350524902344 free_energy=-40.48350524902344 stress="0.000214620100450702 1.7652611816743047e-08 -4.241099915702762e-08 1.7652611816743047e-08 0.00021458632545545697 -8.583170796327977e-08 -4.241099915702762e-08 -8.583170796327977e-08 0.00021453961380757391" pbc="T T T"
Nb       1.87211400       1.32378491       3.24259700      -0.00000141       0.00000577       0.00000067
Nb       5.61634201       3.97135184       9.72779042       0.00000267      -0.00001665       0.00000934
Mn       0.00000011       0.00000015      -0.00000010      -0.00000252      -0.00000029       0.00000232
Cl       1.89939803       1.34307813       6.48519324      -0.00005155      -0.00003090      -0.00000164
Cl       5.58905775       3.95206054       6.48519346       0.00005039       0.00003505      -0.00000073
Cl       4.66664312       1.34307803       4.88752364       0.00002690      -0.00002997      -0.00004751
Cl       2.82181298       3.95206064       8.08286240      -0.00002589       0.00003443       0.00004061
Cl       2.82181344       3.95206044       4.88752351      -0.00002397       0.00003573      -0.00004695
Cl       4.66664278       1.34307744       8.08286279       0.00002525      -0.00003315       0.00004391
