9
Lattice="4.704668649041113 2.4035511709460547e-07 2.716241527667912 1.568222963166721 4.435604749682916 2.716241781337053 -3.2389489979966047e-08 2.877771686533867e-07 5.4324831114360705" Properties=species:S:1:pos:R:3:forces:R:3 energy=-50.00014877319336 free_energy=-50.00014877319336 stress="0.00015644551604054868 5.911699929583847e-08 4.847752776981906e-08 5.911699929583847e-08 0.00015669548884034157 3.417346050582637e-08 4.847752776981906e-08 3.417346050582637e-08 0.0001566171267768368" pbc="T T T"
Nb       1.56822588       1.10889769       2.71624206       0.00002977      -0.00003527       0.00000464
Nb       4.70466816       3.32670525       8.14872251      -0.00000088       0.00000964      -0.00002157
Mg       0.00000027       0.00000003       0.00000028      -0.00000055      -0.00000418      -0.00000727
F        1.56108618       1.10385510       5.43248333       0.00635937       0.00449215      -0.00000085
F        4.71180449       3.33175179       5.43248401      -0.00636955      -0.00447933       0.00001000
F        3.92412446       1.10385472       4.06818172      -0.00319288       0.00449410       0.00550619
F        2.34876640       3.33175092       6.79678451       0.00318435      -0.00448580      -0.00550339
F        2.34876568       3.33175033       4.06818273       0.00317688      -0.00448936       0.00551257
F        3.92412472       1.10385524       6.79678484      -0.00318640       0.00449814      -0.00550011
