9
Lattice="5.4529441235120135 5.409330911542729e-08 3.148258660740123 1.817648112572989 5.1410842917002535 3.1482586254016973 1.7913538644149948e-07 8.338723999755922e-08 6.296517011208698" Properties=species:S:1:pos:R:3:forces:R:3 energy=-46.26521301269531 free_energy=-46.26521301269531 stress="0.0003190030110999942 -8.349510416394423e-09 -3.732386133492582e-08 -8.349510416394423e-09 0.00031895667780190706 -1.4945390702791883e-08 -3.732386133492582e-08 -1.4945390702791883e-08 0.0003189663402736187" pbc="T T T"
Nb       1.81765206       1.28527234       3.14826078       0.00003639       0.00001097       0.00002182
Nb       5.45294521       3.85581664       9.44477475       0.00000347       0.00003134      -0.00001104
Mn      -0.00000058       0.00000004      -0.00000061      -0.00000319      -0.00000077       0.00000083
Se       1.95844378       1.38482778       6.29651539      -0.00825453      -0.00584278      -0.00001223
Se       5.31214891       3.75625479       6.29651585       0.00826174       0.00583434      -0.00000611
Se       4.47372209       1.38482815       4.84432127       0.00411975      -0.00585100      -0.00715071
Se       2.79687249       3.75625676       7.74871452      -0.00411385       0.00584367       0.00715065
Se       2.79686704       3.75625402       4.84432086      -0.00415114       0.00582537      -0.00715059
Se       4.47371887       1.38482738       7.74871455       0.00410181      -0.00585112       0.00715739
