9
Lattice="5.267523384149503 -3.932413635323138e-08 3.04120653718397 1.7558409643375892 4.966268944702069 3.0412067565257357 -1.417314771256723e-07 1.6841835832750767e-07 6.082413319854125" Properties=species:S:1:pos:R:3:forces:R:3 energy=-51.5466194152832 free_energy=-51.5466194152832 stress="-0.0001413393038092181 -1.5348106785495474e-08 -2.5645925916251144e-07 -1.5348106785495474e-08 -0.0001411789417034015 -1.9603425016612164e-07 -2.5645925916251144e-07 -1.9603425016612164e-07 -0.00014111155178397894" pbc="T T T"
Nb       1.75583863       1.24156571       3.04121189      -0.00002723      -0.00001674       0.00008002
Nb       5.26752823       3.72470312       9.12360342       0.00004614       0.00001400      -0.00015541
Mo      -0.00000092      -0.00000037       0.00000027      -0.00000134       0.00000533       0.00003836
S        1.90047978       1.34384339       6.08241362       0.00343502       0.00243819      -0.00000451
S        5.12288230       3.62242769       6.08241751      -0.00345266      -0.00242943       0.00005009
S        4.31728137       1.34384119       4.68707408      -0.00172067       0.00239319       0.00298864
S        2.70608167       3.62242740       7.47775643       0.00173563      -0.00242996      -0.00298750
S        2.70608077       3.62242407       4.68707238       0.00168717      -0.00243044       0.00297558
S        4.31728522       1.34384400       7.47775643      -0.00170177       0.00245565      -0.00298530
