9
Lattice="5.135026677014379 2.132960535352367e-07 2.9647081341970956 1.7116756453908981 4.841348690220416 2.964708332883085 -1.838150859003996e-07 1.1336276291104328e-07 5.929416586771343" Properties=species:S:1:pos:R:3:forces:R:3 energy=-50.1171989440918 free_energy=-50.1171989440918 stress="-3.242087359467405e-06 -8.552419927809751e-08 2.537705690031089e-08 -8.552419927809751e-08 -3.217902076357859e-06 6.646695993595131e-08 2.537705690031089e-08 6.646695993595131e-08 -3.4385388971713837e-06" pbc="T T T"
Nb       1.71168204       1.21033903       2.96470709       0.00009305       0.00001957      -0.00002641
Nb       5.13501513       3.63100861       8.89413388      -0.00011924      -0.00003264       0.00007533
Mn       0.00000007       0.00000030      -0.00000247       0.00000694      -0.00000077      -0.00001757
S        1.82566034       1.29093550       5.92941864       0.00095320       0.00066704       0.00001756
S        5.02104334       3.55041230       5.92941460      -0.00093925      -0.00067824      -0.00001402
S        4.22219433       1.29093959       4.54577041      -0.00048614       0.00069052       0.00079960
S        2.62450982       3.55041375       7.31305853       0.00049353      -0.00066543      -0.00081271
S        2.62451007       3.55041176       4.54577214       0.00049782      -0.00067323       0.00079656
S        4.22219305       1.29093611       7.31305998      -0.00049973       0.00067264      -0.00081921
