9
Lattice="4.421193116115308 1.470232954000358e-08 2.55257712784501 1.4737310334068563 4.168341064539041 2.552577161030646 -7.072769322580438e-09 3.564273291170291e-08 5.105154267940423" Properties=species:S:1:pos:R:3:forces:R:3 energy=-66.1461410522461 free_energy=-66.1461410522461 stress="1.3042007594776805e-05 -5.314658579891329e-08 -8.781250926404027e-08 -5.314658579891329e-08 1.2751900612784084e-05 -5.452138651662608e-08 -8.781250926404027e-08 -5.452138651662608e-08 1.2927795978612266e-05" pbc="T T T"
Nb       1.47373090       1.04208529       2.55257693      -0.00000133      -0.00000229      -0.00000013
Nb       4.42119371       3.12625514       7.65773218       0.00000711      -0.00001055       0.00001006
Mo      -0.00000002      -0.00000004      -0.00000004      -0.00000024       0.00000178       0.00000261
O        1.55428617       1.09904692       5.10515458      -0.00028396      -0.00019278       0.00000240
O        4.34063783       3.06929459       5.10515379       0.00027803       0.00019725      -0.00000629
O        3.64404989       1.09904643       3.89862878       0.00013950      -0.00019754      -0.00024146
O        2.25087402       3.06929484       6.31167953      -0.00013860       0.00020218       0.00023523
O        2.25087410       3.06929456       3.89862855      -0.00013982       0.00019361      -0.00024354
O        3.64404990       1.09904670       6.31167987       0.00013945      -0.00019124       0.00024179
