9
Lattice="5.919224788221092 -3.308518355706548e-08 3.4174660293157397 1.973074909604737 5.580698506398054 3.4174660095864335 -1.809418557733286e-09 -2.5442834940101194e-08 6.834932061765466" Properties=species:S:1:pos:R:3:forces:R:3 energy=-44.26182174682617 free_energy=-44.26182174682617 stress="0.0001458828046452254 5.1664301281562075e-08 6.2236851228192336e-09 5.1664301281562075e-08 0.00014586126781068742 2.2407840916116584e-08 6.2236851228192336e-09 2.2407840916116584e-08 0.0001458967599319294" pbc="T T T"
Nb       1.97307475       1.39517450       3.41746603       0.00000028      -0.00000108      -0.00000103
Nb       5.91922460       4.18552391      10.25239761       0.00000124       0.00000072      -0.00000243
Mn      -0.00000006      -0.00000003      -0.00000007       0.00000094       0.00000129       0.00000339
Te       2.01739067       1.42651048       6.83493206      -0.00449246      -0.00317632       0.00000110
Te       5.87490953       4.15418812       6.83493202       0.00448889       0.00317308      -0.00000045
Te       4.91052928       1.42651041       5.16457764       0.00224572      -0.00317640      -0.00388953
Te       2.98177025       4.15418801       8.50528673      -0.00224307       0.00317213       0.00388727
Te       2.98177013       4.15418796       5.16457769      -0.00224629       0.00317726      -0.00388596
Te       4.91052963       1.42651039       8.50528674       0.00224444      -0.00317070       0.00388747
