9
Lattice="5.137845946409163 1.2787595146506268e-07 2.9663367608568674 1.712615356872063 4.844008005652278 2.966336897966488 7.57580477385213e-08 2.2149333454665702e-07 5.932673390496951" Properties=species:S:1:pos:R:3:forces:R:3 energy=-46.65079116821289 free_energy=-46.65079116821289 stress="6.353396747726947e-05 7.902504250978382e-08 -6.595870871706211e-08 7.902504250978382e-08 6.348045280901715e-05 3.044000607133057e-08 -6.595870871706211e-08 3.044000607133057e-08 6.354676588671282e-05" pbc="T T T"
Nb       1.71261311       1.21100035       2.96633913      -0.00003115      -0.00001903       0.00003306
Nb       5.13784989       3.63300722       8.89900662       0.00003978       0.00001585      -0.00003551
Ni      -0.00000028      -0.00000037      -0.00000107      -0.00000043       0.00001163       0.00002563
S        1.77267231       1.25346940       5.93267304      -0.00062478      -0.00043783      -0.00000471
S        5.07778876       3.59053914       5.93267488       0.00061768       0.00043470       0.00000851
S        4.25150895       1.25346797       4.50151690       0.00031155      -0.00045380      -0.00053990
S        2.59895141       3.59054053       7.36383054      -0.00030431       0.00043470       0.00051910
S        2.59895025       3.59054033       4.50151732      -0.00031877       0.00044072      -0.00052691
S        4.25151109       1.25346898       7.36383098       0.00031030      -0.00042680       0.00052011
