9
Lattice="5.8900800875124855 -5.0629299887748774e-09 3.4006392892617847 1.96336002333948 5.553220768149854 3.4006392910942633 -3.589400391299849e-08 -2.3136585510734087e-08 6.801278640693845" Properties=species:S:1:pos:R:3:forces:R:3 energy=-41.24160385131836 free_energy=-41.24160385131836 stress="-1.1098804861831013e-05 -1.512236735834449e-08 4.897461280961579e-08 -1.512236735834449e-08 -1.104218972614035e-05 -2.928875364460737e-09 4.897461280961579e-08 -2.928875364460737e-09 -1.1119567716377787e-05" pbc="T T T"
Nb       1.96335999       1.38830467       3.40063975      -0.00000080       0.00000038       0.00000123
Nb       5.89008000       4.16491600      10.20191747       0.00000110       0.00000108      -0.00000105
Ni       0.00000013       0.00000007      -0.00000001      -0.00000285       0.00000198       0.00000223
Te       2.01373608       1.42392634       6.80127862      -0.00043482      -0.00030717       0.00000031
Te       5.83970392       4.12929444       6.80127889       0.00043438       0.00030895       0.00000027
Te       4.88321173       1.42392632       5.14458589       0.00021816      -0.00030750      -0.00037992
Te       2.97022823       4.12929441       8.45797133      -0.00021607       0.00030549       0.00037511
Te       2.97022804       4.12929427       5.14458599      -0.00021814       0.00030805      -0.00037637
Te       4.88321216       1.42392644       8.45797099       0.00021885      -0.00031099       0.00037822
