9
Lattice="5.71972086771768 -3.239762106437723e-10 3.302282452714865 1.9065736047579827 5.392604768732039 3.3022824830415423 3.577306468808673e-08 6.243785332019685e-08 6.604564843468944" Properties=species:S:1:pos:R:3:forces:R:3 energy=-33.9110107421875 free_energy=-33.9110107421875 stress="-0.00014549581101164222 2.9757066144497912e-08 3.112472413135947e-08 2.9757066144497912e-08 -0.00014543277211487293 3.153559546831275e-08 3.112472413135947e-08 3.153559546831275e-08 -0.0001454899029340595" pbc="T T T"
Nb       1.90657392       1.34815105       3.30228178      -0.00000116       0.00000204       0.00000125
Nb       5.71972017       4.04445385       9.90684739      -0.00000259      -0.00000050      -0.00000021
Ni       0.00000020       0.00000009       0.00000012      -0.00000514       0.00000123       0.00000422
Br       1.93000957       1.36472288       6.60456489      -0.00648779      -0.00458722       0.00000097
Br       5.69628501       4.02788163       6.60456497       0.00649221       0.00459398       0.00000011
Br       4.75471613       1.36472292       4.97372004       0.00324570      -0.00459146      -0.00562534
Br       2.87157846       4.02788218       8.23541024      -0.00324084       0.00458260       0.00561376
Br       2.87157849       4.02788203       4.97371972      -0.00324291       0.00458784      -0.00561602
Br       4.75471616       1.36472271       8.23540998       0.00324251      -0.00458845       0.00562119
