9
Lattice="5.5959946848514655 7.478455281499866e-08 3.2308490628772675 1.8653316313724961 5.275954310372495 3.2308490641801173 5.974020949526525e-08 4.3838371367675933e-08 6.461698022281421" Properties=species:S:1:pos:R:3:forces:R:3 energy=-35.83384704589844 free_energy=-35.83384704589844 stress="9.948603837983683e-05 -2.6384692208836213e-09 -2.0371405895502903e-08 -2.6384692208836213e-09 9.951765241567045e-05 -2.862639369993758e-08 -2.0371405895502903e-08 -2.862639369993758e-08 9.951936226570979e-05" pbc="T T T"
Nb       1.86532968       1.31898853       3.23084910      -0.00002199      -0.00000038       0.00000192
Nb       5.59599718       3.95696494       9.69254545       0.00002474      -0.00000660      -0.00001140
Ni       0.00000004       0.00000003       0.00000037      -0.00000162       0.00000348      -0.00000144
Cl       1.87766941       1.32771341       6.46169842       0.00065115       0.00046897       0.00000255
Cl       5.58365671       3.94824156       6.46169852      -0.00065368      -0.00046416       0.00000331
Cl       4.65715980       1.32771283       4.85695914      -0.00032341       0.00046112       0.00056659
Cl       2.80416620       3.94824144       8.06643756       0.00032419      -0.00046213      -0.00057122
Cl       2.80416561       3.94824152       4.85695902       0.00032106      -0.00046305       0.00057703
Cl       4.65716089       1.32771340       8.06643705      -0.00032047       0.00046280      -0.00056729
