9
Lattice="4.700168434572638 6.88824578640209e-08 2.713643175438304 1.5667228491526606 4.431361407358248 2.713643222748494 -3.589245431734625e-08 3.2563110508637025e-08 5.4272864130441345" Properties=species:S:1:pos:R:3:forces:R:3 energy=-47.501708984375 free_energy=-47.501708984375 stress="0.0002776012697722763 7.928440481919097e-08 1.905523561163136e-07 7.928440481919097e-08 0.00027789059095084667 1.3424268274775386e-07 1.905523561163136e-07 1.3424268274775386e-07 0.00027787723229266703" pbc="T T T"
Nb       1.56672885       1.10783873       2.71364378       0.00007641      -0.00002572       0.00000489
Nb       4.70017013       3.32352174       8.14092218       0.00002045       0.00001072      -0.00009251
Ni       0.00000001      -0.00000008      -0.00000015      -0.00000510       0.00000466      -0.00000129
F        1.57395900       1.11295823       5.42728799      -0.00056687      -0.00039116       0.00000820
F        4.69293029       3.31840512       5.42728890       0.00054431       0.00041488       0.00003400
F        3.91318510       1.11295616       4.07673196       0.00024332      -0.00041552      -0.00048791
F        2.35370391       3.31840422       6.77784142      -0.00027046       0.00039953       0.00049646
F        2.35370043       3.31840364       4.07673337      -0.00030705       0.00039427      -0.00046887
F        3.91318732       1.11295825       6.77784155       0.00026470      -0.00039165       0.00050753
