9
Lattice="4.372647041739682 2.4725054921654636e-08 2.5245489663764036 1.4575489968318338 4.12257137262743 2.5245490363380854 -6.077104015229959e-08 4.2713595869030414e-08 5.049098038011323" Properties=species:S:1:pos:R:3:forces:R:3 energy=-67.67364501953125 free_energy=-67.67364501953125 stress="0.00013853353448212147 1.6140541347908766e-08 2.5050777452406692e-08 1.6140541347908766e-08 0.00013852679694537073 9.138229017935373e-08 2.5050777452406692e-08 9.138229017935373e-08 0.00013848095841240138" pbc="T T T"
Nb       1.45754876       1.03064246       2.52454910      -0.00000479      -0.00000184      -0.00000064
Nb       4.37264731       3.09192822       7.57364619       0.00000566      -0.00000577      -0.00001491
Os      -0.00000006       0.00000005      -0.00000005       0.00000503       0.00000448      -0.00000126
O        1.54610702       1.09326292       5.04909808      -0.00195026      -0.00137961      -0.00000045
O        4.28408894       3.02930883       5.04909887       0.00194293       0.00137806       0.00001081
O        3.59959375       1.09326305       3.86351697       0.00097638      -0.00137573      -0.00168228
O        2.23060201       3.02930866       6.23467906      -0.00097731       0.00137740       0.00168473
O        2.23060249       3.02930858       3.86351684      -0.00097162       0.00137827      -0.00168288
O        3.59959364       1.09326303       6.23467914       0.00097454      -0.00137514       0.00168777
