9
Lattice="5.537350223946027 4.729140080976564e-08 3.1969906850097924 1.8457835301312753 5.220664034921454 3.196990550667596 1.660776629560749e-08 -1.527914575144764e-07 6.393981341254157" Properties=species:S:1:pos:R:3:forces:R:3 energy=-47.16013717651367 free_energy=-47.16013717651367 stress="0.00016571205924265087 -1.0000184147429536e-07 -1.0804023453658829e-08 -1.0000184147429536e-07 0.0001657857355894521 4.6093543204506204e-08 -1.0804023453658829e-08 4.6093543204506204e-08 0.0001658284745644778" pbc="T T T"
Nb       1.84578641       1.30516712       3.19698830       0.00002803       0.00000974      -0.00001879
Nb       5.53735084       3.91549956       9.59096884       0.00000316       0.00001241      -0.00002807
Os      -0.00000029       0.00000008       0.00000054      -0.00000191      -0.00000351       0.00000099
Se       2.00408887       1.41710481       6.39398314       0.00225341       0.00159276       0.00001707
Se       5.37904492       3.80355846       6.39398256      -0.00225413      -0.00159490       0.00000758
Se       4.53530416       1.41710377       4.93258362      -0.00113738       0.00158018       0.00194985
Se       2.84782876       3.80355848       7.85538019       0.00112897      -0.00159234      -0.00194037
Se       2.84782667       3.80355798       4.93258274       0.00111711      -0.00159681       0.00194985
Se       4.53530457       1.41710539       7.85538036      -0.00113732       0.00159258      -0.00193816
