9
Lattice="5.349483691214072 3.2364232943356296e-07 3.08852543063808 1.783161519146204 5.04354141661612 3.0885254590288334 -1.0899659191717363e-07 -4.23008215322425e-08 6.177051050063822" Properties=species:S:1:pos:R:3:forces:R:3 energy=-45.638954162597656 free_energy=-45.638954162597656 stress="-4.499418719206005e-05 7.567240345451864e-08 3.5964109912356435e-08 7.567240345451864e-08 -4.4996300857746974e-05 6.105982919279995e-08 3.5964109912356435e-08 6.105982919279995e-08 -4.522780727711506e-05" pbc="T T T"
Nb       1.78316468       1.26088633       3.08852458       0.00003067       0.00001460      -0.00001552
Nb       5.34948448       3.78265234       9.26557922       0.00000455      -0.00004313       0.00003218
P       -0.00000017       0.00000030      -0.00000008       0.00000129      -0.00000315      -0.00000111
S        1.77770289       1.25703114       6.17705228      -0.00009775      -0.00002956       0.00001093
S        5.35494078       3.78651335       6.17704999       0.00008571       0.00004894      -0.00000687
S        4.46063018       1.25702844       4.62806105       0.00002491      -0.00003183      -0.00007653
S        2.67201403       3.78651533       7.72603898      -0.00003320       0.00005311       0.00006175
S        2.67201455       3.78651425       4.62806167      -0.00002682       0.00004393      -0.00006926
S        4.46062892       1.25702552       7.72603994       0.00001055      -0.00005311       0.00006384
