9
Lattice="5.64605978796148 -4.737303600316106e-08 3.259754102094029 1.8820198908239485 5.3231561820212 3.2597540914121668 1.0768335625482947e-08 -5.468171797259573e-09 6.519508185536748" Properties=species:S:1:pos:R:3:forces:R:3 energy=-34.97726058959961 free_energy=-34.97726058959961 stress="0.0003936676948796958 1.3971525270051188e-08 5.62013324767463e-09 1.3971525270051188e-08 0.00039374720654450357 1.574595742681595e-08 5.62013324767463e-09 1.574595742681595e-08 0.00039370747981593013" pbc="T T T"
Nb       1.88201787       1.33078935       3.25975427      -0.00002222       0.00000467       0.00000241
Nb       5.64606046       3.99236708       9.77926348       0.00000945      -0.00000083       0.00001086
Pd       0.00000010      -0.00000006       0.00000007      -0.00000184      -0.00000342      -0.00000626
Cl       1.92502582       1.36119879       6.51950795      -0.00121679      -0.00085885      -0.00000208
Cl       5.60305405       3.96195715       6.51950777       0.00122275       0.00086117      -0.00000278
Cl       4.68354765       1.36119885       4.92687563       0.00061647      -0.00086205      -0.00105414
Cl       2.84453256       3.96195746       8.11214055      -0.00061464       0.00086309       0.00105376
Cl       2.84453301       3.96195724       4.92687501      -0.00060863       0.00086116      -0.00105624
Cl       4.68354731       1.36119863       8.11214071       0.00061568      -0.00086504       0.00105460
