9
Lattice="6.262474699567218 -8.009695061310107e-08 3.615641425380531 2.0874915395383664 5.904317585960681 3.615641341320491 5.354169567390466e-08 -6.509241939541963e-08 7.2312827580241015" Properties=species:S:1:pos:R:3:forces:R:3 energy=-34.496089935302734 free_energy=-34.496089935302734 stress="-1.8020144125330262e-05 3.931068803808557e-09 1.3073986337985843e-08 3.931068803808557e-09 -1.7979733456741087e-05 1.857019538142879e-09 1.3073986337985843e-08 1.857019538142879e-09 -1.800630343495868e-05" pbc="T T T"
Nb       2.08749174       1.47607897       3.61564133      -0.00000043      -0.00000278      -0.00000001
Nb       6.26247447       4.42823819      10.84692355      -0.00000082       0.00000224      -0.00000312
Pb      -0.00000009      -0.00000031       0.00000045       0.00000041       0.00000651      -0.00000434
Te       2.32079851       1.64105215       7.23128290      -0.00541227      -0.00382672      -0.00000095
Te       6.02916799       4.26326547       7.23128298       0.00540595       0.00382598       0.00000047
Te       5.10207536       1.64105200       5.62551184       0.00270453      -0.00382401      -0.00468561
Te       3.24789115       4.26326536       8.83705383      -0.00270367       0.00382492       0.00468563
Te       3.24789068       4.26326552       5.62551165      -0.00270188       0.00382384      -0.00467913
Te       5.10207542       1.64105236       8.83705356       0.00270826      -0.00383013       0.00468725
