9
Lattice="5.632641686836475 1.3592893769320815e-08 3.252007143791739 1.8775472326526308 5.310505679042546 3.2520071595678552 -2.8967542064921603e-08 -1.1614036383652577e-09 6.50401433775675" Properties=species:S:1:pos:R:3:forces:R:3 energy=-37.95474624633789 free_energy=-37.95474624633789 stress="-6.300364475464448e-05 6.082939929541453e-09 -1.7478278824256677e-09 6.082939929541453e-09 -6.29024943918921e-05 -5.0786358229970574e-08 -1.7478278824256677e-09 -5.0786358229970574e-08 -6.306996510829777e-05" pbc="T T T"
Nb       1.87754666       1.32762656       3.25200721      -0.00000805       0.00000385       0.00000020
Nb       5.63264201       3.98287847       9.75602190       0.00000183      -0.00001180       0.00000253
Pb       0.00000002       0.00000005      -0.00000004      -0.00000102      -0.00000175       0.00000037
Se       2.13452877       1.50934040       6.50401439       0.00049531       0.00035438       0.00000019
Se       5.37565982       3.80116545       6.50401413      -0.00049427      -0.00035112      -0.00000062
Se       4.56537757       1.50934041       5.10056324      -0.00024512       0.00035496       0.00042857
Se       2.94481135       3.80116566       7.90746506       0.00024637      -0.00035001      -0.00042921
Se       2.94481189       3.80116557       5.10056349       0.00024778      -0.00035176       0.00042868
Se       4.56537751       1.50934023       7.90746513      -0.00024268       0.00035322      -0.00043045
