9
Lattice="5.594060499809682 -9.701687221331558e-09 3.2297322976645906 1.8646868230112315 5.274130778113437 3.2297322995903253 -1.675304106305667e-09 1.1739142275262832e-09 6.45946459823089" Properties=species:S:1:pos:R:3:forces:R:3 energy=-41.77503967285156 free_energy=-41.77503967285156 stress="0.000344050582498312 1.3053977454546839e-08 7.455335904182903e-09 1.3053977454546839e-08 0.00034398381831124425 6.164468935310197e-10 7.455335904182903e-09 6.164468935310197e-10 0.00034398279967717826" pbc="T T T"
Nb       1.86468673       1.31853274       3.22973225      -0.00000115      -0.00000107       0.00000124
Nb       5.59406068       3.95559804       9.68919692       0.00000334       0.00000001      -0.00000162
P        0.00000003       0.00000006      -0.00000003      -0.00000250      -0.00000111       0.00000129
Se       1.88252804       1.33114831       6.45946465       0.00560880       0.00396609       0.00000009
Se       5.57621919       3.94298244       6.45946451      -0.00560695      -0.00396478       0.00000020
Se       4.65279650       1.33114839       4.86004947      -0.00280467       0.00396603       0.00485742
Se       2.80595080       3.94298238       8.05887977       0.00280410      -0.00396615      -0.00485826
Se       2.80595085       3.94298241       4.86004948       0.00280303      -0.00396502       0.00485808
Se       4.65279648       1.33114832       8.05887974      -0.00280440       0.00396585      -0.00485885
