9
Lattice="5.321180221333783 -1.894388984382019e-08 3.072184788717695 1.7737266786568553 5.0168567853736254 3.0721848648019274 9.087329836283495e-09 9.960950972311778e-08 6.144369561695679" Properties=species:S:1:pos:R:3:forces:R:3 energy=-45.0094108581543 free_energy=-45.0094108581543 stress="-4.396377698867582e-05 -2.113592634245265e-09 3.8671413293833723e-10 -2.113592634245265e-09 -4.386264117783867e-05 -7.022490144947824e-09 3.8671413293833723e-10 -7.022490144947824e-09 -4.376450669951737e-05" pbc="T T T"
Nb       1.77372628       1.25421491       3.07218466      -0.00000395       0.00000394       0.00000263
Nb       5.32118016       3.76264267       9.21655358       0.00000198      -0.00000199      -0.00000460
Pd       0.00000009      -0.00000012       0.00000004      -0.00000259       0.00000249       0.00000342
S        1.90781309       1.34902753       6.14436944      -0.00075924      -0.00053602      -0.00000021
S        5.18709432       3.66782857       6.14436984       0.00076509       0.00053471       0.00000114
S        4.36727368       1.34902760       4.72439952       0.00038326      -0.00054008      -0.00066257
S        2.72763355       3.66782940       7.56434012      -0.00038010       0.00053746       0.00065696
S        2.72763281       3.66782929       4.72439958      -0.00038373       0.00053638      -0.00065672
S        4.36727378       1.34902778       7.56434005       0.00037938      -0.00053728       0.00065958
