9
Lattice="5.823387610761529 -3.077114356486282e-08 3.3621344292188784 1.941129204172782 5.490342521387692 3.3621343779555244 2.432666296978795e-08 -4.558298563172029e-08 6.724268816302706" Properties=species:S:1:pos:R:3:forces:R:3 energy=-32.746952056884766 free_energy=-32.746952056884766 stress="8.667346992297098e-05 -9.690810820472961e-09 1.3560145895041842e-08 -9.690810820472961e-09 8.66672198753804e-05 2.2830128898476687e-08 1.3560145895041842e-08 2.2830128898476687e-08 8.668858208693564e-05" pbc="T T T"
Nb       1.94112994       1.37258515       3.36213390       0.00000279      -0.00000220      -0.00000060
Nb       5.82338677       4.11775648      10.08640087      -0.00000124      -0.00000108      -0.00000882
Pd      -0.00000019      -0.00000009       0.00000102       0.00000419       0.00000402      -0.00001294
Br       1.98880650       1.40629836       6.72426926      -0.00690470      -0.00488426       0.00000026
Br       5.77571055       4.08404434       6.72426912       0.00689769       0.00488108       0.00000143
Br       4.82898468       1.40629847       5.08449186       0.00344711      -0.00487845      -0.00597571
Br       2.93553271       4.08404385       8.36404645      -0.00345042       0.00488538       0.00598571
Br       2.93553181       4.08404413       5.08449161      -0.00345086       0.00487680      -0.00597556
Br       4.82898455       1.40629909       8.36404648       0.00345549      -0.00488147       0.00598613
