9
Lattice="5.502254713284537 1.583912756184129e-08 3.1767282234225545 1.8340848974142365 5.187575441507735 3.176728261436215 5.359072342906941e-09 5.034651157797149e-08 6.353456437562887" Properties=species:S:1:pos:R:3:forces:R:3 energy=-41.37271499633789 free_energy=-41.37271499633789 stress="0.0002564681344665587 -9.139905898791767e-08 1.0801576522112555e-08 -9.139905898791767e-08 0.0002564648457337171 -2.7208365338537988e-08 1.0801576522112555e-08 -2.7208365338537988e-08 0.0002565391478128731" pbc="T T T"
Nb       1.83408355       1.29689466       3.17672926      -0.00001089       0.00000720       0.00000795
Nb       5.50225547       3.89068134       9.53018333       0.00000796      -0.00000202      -0.00000983
Pb       0.00000004      -0.00000007      -0.00000007       0.00000593       0.00000213      -0.00000332
S        2.00503672       1.41777487       6.35345622      -0.00261453      -0.00184768      -0.00000316
S        5.33130342       3.76980016       6.35345679       0.00260884       0.00183927       0.00000176
S        4.49973640       1.41777443       4.91314128       0.00130801      -0.00184833      -0.00225940
S        2.83660306       3.76980051       7.79377171      -0.00130911       0.00185093       0.00226438
S        2.83660293       3.76980008       4.91314101      -0.00131002       0.00184602      -0.00226465
S        4.49973699       1.41777605       7.79377224       0.00131382      -0.00184779       0.00226617
