9
Lattice="6.453675846794565 6.697524035460558e-08 3.7260314659041383 2.1512253291008814 6.084583990069544 3.7260314941518486 -3.352653315738762e-08 1.0889409152018244e-08 7.452062989877944" Properties=species:S:1:pos:R:3:forces:R:3 energy=-28.81136703491211 free_energy=-28.81136703491211 stress="0.00025226594880223274 -6.498959148615313e-10 5.831444660486795e-09 -6.498959148615313e-10 0.00025226999423466623 2.244206154244921e-09 5.831444660486795e-09 2.244206154244921e-09 0.0002522782306186855" pbc="T T T"
Nb       2.15122520       1.52114588       3.72603152      -0.00000110      -0.00000011       0.00000089
Nb       6.45367636       4.56343898      11.17809404       0.00000187       0.00000561      -0.00000340
Pd       0.00000006       0.00000022       0.00000008      -0.00000199      -0.00000322      -0.00000066
I        2.18984766       1.54845599       7.45206297      -0.00747349      -0.00528811       0.00000026
I        6.41505310       4.53612769       7.45206317       0.00747922       0.00528809       0.00000109
I        5.35875183       1.54845605       5.62249526       0.00373688      -0.00528824      -0.00647265
I        3.24614927       4.53612768       9.28163058      -0.00373885       0.00528665       0.00647679
I        3.24614894       4.53612780       5.62249547      -0.00374090       0.00528697      -0.00647486
I        5.35875217       1.54845596       9.28163074       0.00373839      -0.00528770       0.00647247
