9
Lattice="5.3492275866447825 -6.349738129736318e-09 3.0883778201118286 1.7830758877402415 5.0433001102269595 3.088377765531584 -6.241345597001675e-08 -1.1097983714917622e-07 6.176755748326934" Properties=species:S:1:pos:R:3:forces:R:3 energy=-47.207393646240234 free_energy=-47.207393646240234 stress="9.648204286349937e-05 1.6994151641469557e-09 -7.731661533227907e-09 1.6994151641469557e-09 9.654882160248235e-05 -3.7283189868730915e-09 -7.731661533227907e-09 -3.7283189868730915e-09 9.644792589824647e-05" pbc="T T T"
Nb       1.78307492       1.26082488       3.08837793      -0.00000760      -0.00000019       0.00000210
Nb       5.34922794       3.78247573       9.26513333       0.00000359       0.00000585      -0.00000427
Pt      -0.00000006      -0.00000009      -0.00000012       0.00000328       0.00000214      -0.00000691
S        1.86905600       1.32162147       6.17675608      -0.00675541      -0.00477844       0.00000087
S        5.26324825       3.72167737       6.17675591       0.00675553       0.00477171       0.00000234
S        4.41469931       1.32162158       4.70702701       0.00337428      -0.00477731      -0.00584757
S        2.71760358       3.72167831       7.64648410      -0.00337896       0.00477839       0.00585008
S        2.71760366       3.72167897       4.70702755      -0.00337642       0.00477743      -0.00584453
S        4.41469998       1.32162173       7.64648340       0.00338164      -0.00477946       0.00584829
