9
Lattice="5.542016598050551 3.680836159249066e-08 3.1996846699390176 1.8473389190484752 5.2250637952382535 3.199684638193307 3.601435781090019e-08 -1.3414344440729444e-08 6.3993692774993205" Properties=species:S:1:pos:R:3:forces:R:3 energy=-41.671295166015625 free_energy=-41.671295166015625 stress="0.00019859553140122443 -4.148750232246812e-09 -3.5339162707259675e-08 -4.148750232246812e-09 0.00019866273214574903 1.9398882500354375e-08 -3.5339162707259675e-08 1.9398882500354375e-08 0.0001986360439332202" pbc="T T T"
Nb       1.84733758       1.30626599       3.19968447      -0.00001319      -0.00000019       0.00000357
Nb       5.54201627       3.91879726       9.59905066       0.00000250      -0.00000302      -0.00003186
Pd       0.00000020       0.00000025       0.00000044      -0.00000291      -0.00000008      -0.00000481
Se       2.01778238       1.42678745       6.39936947      -0.00365371      -0.00258142       0.00000195
Se       5.37157350       3.79827623       6.39937041       0.00365472       0.00258306       0.00001126
Se       4.53312612       1.42678734       4.94713636       0.00183150      -0.00258905      -0.00316137
Se       2.85623076       3.79827637       7.85160334      -0.00182116       0.00258607       0.00316638
Se       2.85622962       3.79827599       4.94713566      -0.00183040       0.00258189      -0.00315720
Se       4.53312577       1.42678844       7.85160347       0.00183257      -0.00257742       0.00317228
