9
Lattice="4.202212213377604 -3.902110045673585e-09 2.426148356183029 1.4007374048069454 3.961883744217044 2.426148349208574 3.399828606596936e-08 1.5498513867068038e-08 4.852296653479291" Properties=species:S:1:pos:R:3:forces:R:3 energy=-69.98719024658203 free_energy=-69.98719024658203 stress="0.0008166139596141875 4.269245845733849e-09 -6.616030390205196e-08 4.269245845733849e-09 0.0008166587795130908 -7.751655317633777e-08 -6.616030390205196e-08 -7.751655317633777e-08 0.0008166703046299517" pbc="T T T"
Nb       1.40073767       0.99047064       2.42614822       0.00000355      -0.00000284      -0.00000015
Nb       4.20221183       2.97141286       7.27844510      -0.00000434       0.00000006       0.00000033
P        0.00000006       0.00000009       0.00000013       0.00000134       0.00000052      -0.00000494
O        1.37361925       0.97129554       4.85229647      -0.00718749      -0.00508407       0.00000229
O        4.22933048       2.99058834       4.85229665       0.00718546       0.00508213      -0.00000131
O        3.51540261       0.97129555       3.61573759       0.00359750      -0.00508311      -0.00622791
O        2.08754698       2.99058820       6.08885580      -0.00359675       0.00508636       0.00623113
O        2.08754699       2.99058825       3.61573760      -0.00359288       0.00508633      -0.00622714
O        3.51540276       0.97129555       6.08885593       0.00359353      -0.00508544       0.00622827
