9
Lattice="4.620402610884649 9.084155879139776e-08 2.6675908520877734 1.540134280576181 4.3561576127441795 2.6675908671536495 1.4592123409078282e-07 1.2163371205203925e-07 5.335181451432563" Properties=species:S:1:pos:R:3:forces:R:3 energy=-55.79353332519531 free_energy=-55.79353332519531 stress="0.00035083747934550047 -1.4955745086808747e-07 -5.9005465402606205e-08 -1.4955745086808747e-07 0.000350486661773175 -1.744610642617772e-07 -5.9005465402606205e-08 -1.744610642617772e-07 0.00035070994636043906" pbc="T T T"
Nb       1.54013296       1.08904106       2.66759017      -0.00001917       0.00002495      -0.00001115
Nb       4.62040360       3.26711756       8.00277361       0.00001082      -0.00001392       0.00001449
Pb       0.00000003      -0.00000024       0.00000005      -0.00000322       0.00001334       0.00000691
O        1.63816260       1.15835684       5.33518154      -0.00250712      -0.00176293       0.00000510
O        4.52237461       3.19780118       5.33518056       0.00250416       0.00175724      -0.00001064
O        3.80132188       1.15835615       4.08628199       0.00125917      -0.00176621      -0.00216752
O        2.35921545       3.19780102       6.58408198      -0.00125086       0.00175232       0.00216214
O        2.35921549       3.19780143       4.08628162      -0.00125273       0.00176553      -0.00216582
O        3.80132167       1.15835644       6.58408132       0.00125919      -0.00177080       0.00216591
