9
Lattice="4.432746662638584 2.8291119876999494e-08 2.559247512921724 1.4775822103353016 4.179233894514713 2.559247577384082 -8.815159082538247e-08 1.661734287222503e-08 5.118495178526482" Properties=species:S:1:pos:R:3:forces:R:3 energy=-60.26873016357422 free_energy=-60.26873016357422 stress="-3.946019205613993e-06 -1.5881077786161768e-08 2.2595119730794977e-07 -1.5881077786161768e-08 -4.102302682440495e-06 1.1914235642507265e-07 2.2595119730794977e-07 1.1914235642507265e-07 -3.971064870711416e-06" pbc="T T T"
Nb       1.47758284       1.04480956       2.55924791       0.00001230       0.00001710       0.00000406
Nb       4.43274669       3.13442533       7.67773956       0.00000232      -0.00000079      -0.00005242
Pt       0.00000014       0.00000016      -0.00000013      -0.00000852      -0.00000734       0.00001770
O        1.56904634       1.10948333       5.11849550      -0.00275555      -0.00194579       0.00000344
O        4.34128257       3.06974997       5.11849620       0.00276747       0.00194931       0.00001822
O        3.64822268       1.10948303       3.91808176       0.00137152      -0.00195938      -0.00239158
O        2.26210587       3.06975042       6.31890920      -0.00137188       0.00194195       0.00239694
O        2.26210470       3.06975037       3.91808236      -0.00139536       0.00195238      -0.00239021
O        3.64822335       1.10948376       6.31890887       0.00137739      -0.00194690       0.00239390
