9
Lattice="4.752292141180815 -1.278457318282961e-07 2.7437371290052717 1.584097410155181 4.480503814698998 2.7437368686855104 1.686831257353494e-07 -1.9954833456151469e-07 5.487473965842804" Properties=species:S:1:pos:R:3:forces:R:3 energy=-46.75239562988281 free_energy=-46.75239562988281 stress="0.0001897726469906047 -6.996194912289866e-08 2.2174927494233998e-07 -6.996194912289866e-08 0.0001895330788102001 1.8323929396046879e-07 2.2174927494233998e-07 1.8323929396046879e-07 0.00018954946426674724" pbc="T T T"
Nb       1.58410151       1.12013789       2.74373542       0.00005625       0.00015493      -0.00002458
Nb       4.75230102       3.36038757       8.23119967       0.00011109       0.00012522      -0.00014673
Pd      -0.00000063      -0.00000104       0.00000017      -0.00000634      -0.00002498       0.00001874
F        1.68955253       1.19469196       5.48747465       0.00244676       0.00170644       0.00000930
F        4.64683755       3.28580737       5.48747873      -0.00243547      -0.00176562       0.00006176
F        3.90751344       1.19468832       4.20693506      -0.00125915       0.00166022       0.00215628
F        2.42887105       3.28580436       6.76801832       0.00119091      -0.00178825      -0.00208526
F        2.42886842       3.28580624       4.20693365       0.00114941      -0.00177399       0.00212870
F        3.90751420       1.19469118       6.76801617      -0.00125333       0.00170598      -0.00211819
