9
Lattice="5.631348741032618 -4.3784282660824044e-08 3.2512608365002573 1.8771162189274064 5.309286515535734 3.251260813642796 6.201953243835802e-08 1.5859878682283942e-08 6.502521565579521" Properties=species:S:1:pos:R:3:forces:R:3 energy=-43.35234832763672 free_energy=-43.35234832763672 stress="-4.693468872574158e-05 -4.384581941963006e-08 2.3540199123317507e-08 -4.384581941963006e-08 -4.6861718146828935e-05 5.7172480083522714e-09 2.3540199123317507e-08 5.7172480083522714e-09 -4.681810605688952e-05" pbc="T T T"
Nb       1.87711464       1.32732121       3.25126178      -0.00001565      -0.00000214       0.00000629
Nb       5.63134898       3.98196504       9.75378217       0.00000371       0.00000278      -0.00000287
Pt       0.00000005       0.00000001       0.00000019       0.00000072       0.00000159      -0.00000048
Se       1.95320689       1.38112555       6.50252136       0.00008565       0.00005877      -0.00000280
Se       5.55525820       3.92816099       6.50252176      -0.00008547      -0.00006145       0.00000106
Se       4.65474619       1.38112558       4.94278803      -0.00003791       0.00005835       0.00007498
Se       2.85371943       3.92816105       8.06225517       0.00004062      -0.00005415      -0.00007546
Se       2.85371959       3.92816067       4.94278723       0.00004283      -0.00006071       0.00007236
Se       4.65474616       1.38112581       8.06225518      -0.00003439       0.00005698      -0.00007313
