9
Lattice="4.39615537245336 5.597020236197521e-08 2.5381215581815906 1.465385153520459 4.14473512038082 2.5381215987113452 1.6914132476056773e-08 6.159872571224482e-08 5.076243087067011" Properties=species:S:1:pos:R:3:forces:R:3 energy=-62.755699157714844 free_energy=-62.755699157714844 stress="0.00046368472976610065 9.0677417574625e-08 -6.889518999741995e-08 9.0677417574625e-08 0.0004635927907656878 -3.474039189654832e-08 -6.889518999741995e-08 -3.474039189654832e-08 0.00046345681766979396" pbc="T T T"
Nb       1.46538491       1.03618485       2.53812102      -0.00000175       0.00001931      -0.00000964
Nb       4.39615534       3.10855260       7.61436476      -0.00000078       0.00002003       0.00000011
Rh       0.00000006      -0.00000008       0.00000012      -0.00000076      -0.00000018      -0.00000427
O        1.55109555       1.09678904       5.07624324      -0.00680518      -0.00482848       0.00000572
O        4.31044562       3.04794521       5.07624314       0.00681359       0.00481123      -0.00000153
O        3.62060813       1.09678959       3.88140929       0.00340568      -0.00481758      -0.00588942
O        2.24093227       3.04794497       6.27107732      -0.00340776       0.00480676       0.00589919
O        2.24093228       3.04794533       3.88140915      -0.00340627       0.00480464      -0.00589389
O        3.62060796       1.09678949       6.27107705       0.00340292      -0.00481620       0.00589344
