9
Lattice="4.38227229845413 -1.1089234531797556e-07 2.530105949474915 1.4607573741691005 4.131645457724136 2.530105869971425 -2.49332299890916e-08 -1.1500195207047551e-07 5.060211942135448" Properties=species:S:1:pos:R:3:forces:R:3 energy=-70.94881439208984 free_energy=-70.94881439208984 stress="0.00024768669391050935 6.100222549321188e-08 2.0085009566628287e-07 6.100222549321188e-08 0.00024795698118396103 -3.200581133455671e-08 2.0085009566628287e-07 -3.200581133455671e-08 0.00024787988513708115" pbc="T T T"
Nb       1.46075848       1.03290963       2.53010539       0.00001349      -0.00001909      -0.00000871
Nb       4.38227175       3.09873445       7.59031550      -0.00000457       0.00000330      -0.00003547
Re       0.00000007      -0.00000001      -0.00000021      -0.00000769       0.00000079       0.00000529
O        1.55023951       1.09618465       5.06021236      -0.00325513      -0.00229812       0.00000726
O        4.29278988       3.03546107       5.06021249       0.00325340       0.00230733       0.00000791
O        3.60715218       1.09618406       3.87265293       0.00162446      -0.00230390      -0.00281313
O        2.23587767       3.03546108       6.24777161      -0.00161883       0.00230116       0.00281855
O        2.23587685       3.03546107       3.87265313      -0.00163111       0.00231096      -0.00281486
O        3.60715226       1.09618495       6.24777186       0.00162628      -0.00230232       0.00283337
