9
Lattice="5.216304428669463 -7.701307214680506e-08 3.0116347967542363 1.7387681114067293 4.917978977571159 3.0116347255227183 3.1645949383247155e-08 -6.486335356198831e-08 6.023269538696121" Properties=species:S:1:pos:R:3:forces:R:3 energy=-50.15108871459961 free_energy=-50.15108871459961 stress="5.22068512509577e-05 6.477441694130448e-09 -4.869760150683078e-10 6.477441694130448e-09 5.220200546318665e-05 1.1002483368827143e-08 -4.869760150683078e-10 1.1002483368827143e-08 5.215140845393762e-05" pbc="T T T"
Nb       1.73876882       1.22949374       3.01163422       0.00000585      -0.00000928      -0.00000425
Nb       5.21630411       3.68848470       9.03490438      -0.00000298       0.00000846       0.00000172
Ru       0.00000006       0.00000075       0.00000009       0.00000074       0.00000342      -0.00000011
S        1.88693714       1.33426595       6.02326904      -0.00013375      -0.00009501      -0.00000349
S        5.06813564       3.58371313       6.02326954       0.00012803       0.00009263      -0.00000324
S        4.27283596       1.33426522       4.64577065       0.00006598      -0.00009441      -0.00010991
S        2.68223686       3.58371284       7.40076912      -0.00006348       0.00009465       0.00011575
S        2.68223666       3.58371335       4.64577009      -0.00006217       0.00009537      -0.00011349
S        4.27283501       1.33426560       7.40076906       0.00006211      -0.00009656       0.00011671
