9
Lattice="5.250383362033585 1.0572512780438351e-07 3.031310174276124 1.7501278236517173 4.950109468433162 3.031310284038631 -1.768116105793378e-07 9.406383364553946e-09 6.062620654798973" Properties=species:S:1:pos:R:3:forces:R:3 energy=-54.117183685302734 free_energy=-54.117183685302734 stress="2.802398921630811e-05 3.294888983873534e-08 -3.7995359747355906e-08 3.294888983873534e-08 2.800300899252761e-05 7.831769011090728e-08 -3.7995359747355906e-08 7.831769011090728e-08 2.799078356474638e-05" pbc="T T T"
Nb       1.75012902       1.23752702       3.03130986       0.00001188      -0.00000711      -0.00000845
Nb       5.25038226       3.71258363       9.09393247      -0.00000995       0.00001345       0.00001580
Re       0.00000024       0.00000004      -0.00000062      -0.00000092      -0.00000116       0.00000152
S        1.90032907       1.34373486       6.06262069       0.00052762       0.00036514       0.00000106
S        5.10018161       3.60637504       6.06261941      -0.00052834      -0.00036621      -0.00000502
S        4.30021907       1.34373556       4.67704325      -0.00025904       0.00036633       0.00045025
S        2.70029141       3.60637281       7.44819844       0.00026053      -0.00037479      -0.00045037
S        2.70029238       3.60637443       4.67704292       0.00026536      -0.00037062       0.00045502
S        4.30021889       1.34373499       7.44819828      -0.00026655       0.00037527      -0.00046015
