9
Lattice="4.367547945315315 5.1679565252029605e-08 2.521605008177186 1.455849344071342 4.1177637451438835 2.5216050423985577 1.4587050049350794e-09 4.2943913071538887e-08 5.043210013827815" Properties=species:S:1:pos:R:3:forces:R:3 energy=-65.47840118408203 free_energy=-65.47840118408203 stress="0.0004432587302289903 -5.708014683136753e-08 3.613685706227443e-08 -5.708014683136753e-08 0.00044337601866573095 2.6313595746785268e-09 3.613685706227443e-08 2.6313595746785268e-09 0.00044331629760563374" pbc="T T T"
Nb       1.45584957       1.02943994       2.52160509       0.00000294      -0.00001657       0.00000136
Nb       4.36754795       3.08832294       7.56481493      -0.00000126       0.00000132       0.00000064
Ru       0.00000023       0.00000013       0.00000009      -0.00000038       0.00000442       0.00000522
O        1.54052969       1.08931890       5.04321026      -0.00694764      -0.00491536       0.00000114
O        4.28286721       3.02844565       5.04320976       0.00693941       0.00492293      -0.00000417
O        3.59728312       1.08931923       3.85574275       0.00347918      -0.00491706      -0.00602466
O        2.22611420       3.02844486       6.23067756      -0.00347185       0.00491422       0.00602090
O        2.22611370       3.02844481       3.85574300      -0.00348377       0.00491965      -0.00601864
O        3.59728349       1.08931896       6.23067699       0.00348324      -0.00491390       0.00601816
