9
Lattice="5.264525823689313 -1.8154461531849927e-07 3.0394754106768342 1.7548417881372906 4.963442275794225 3.0394753793796303 -7.749297234425171e-08 -9.312691772939995e-08 6.0789509555754835" Properties=species:S:1:pos:R:3:forces:R:3 energy=-48.33240509033203 free_energy=-48.33240509033203 stress="4.5755832900340465e-08 1.7950332775740208e-08 4.483424742574016e-09 1.7950332775740208e-08 8.782375715554736e-08 2.694164180638836e-08 4.483424742574016e-09 2.694164180638836e-08 -1.2636501622864671e-08" pbc="T T T"
Nb       1.75484039       1.24086108       3.03947507      -0.00001063       0.00000700      -0.00000787
Nb       5.26452659       3.72258109       9.11842711       0.00000824      -0.00000545       0.00000704
Rh       0.00000000      -0.00000025      -0.00000001       0.00000330      -0.00000063      -0.00000191
S        1.89433677       1.33949830       6.07895114       0.00051653       0.00036526       0.00000348
S        5.12503084       3.62394399       6.07895086      -0.00051999      -0.00036842      -0.00000157
S        4.31735807       1.33949831       4.68001947      -0.00025457       0.00036985       0.00045264
S        2.70200957       3.62394347       7.47788215       0.00025213      -0.00036526      -0.00044811
S        2.70201016       3.62394365       4.68001894       0.00026000      -0.00036997       0.00044799
S        4.31735782       1.33949828       7.47788221      -0.00025481       0.00036818      -0.00045121
