9
Lattice="5.529946960532712 -5.346950883741796e-08 3.19271658212167 1.843315611057164 5.213684271295844 3.1927165683383287 3.857183005433467e-08 1.0393366697716985e-08 6.3854330974349605" Properties=species:S:1:pos:R:3:forces:R:3 energy=-44.403892517089844 free_energy=-44.403892517089844 stress="8.786336547927931e-05 -5.398446489834896e-08 -5.145119441607449e-09 -5.398446489834896e-08 8.793199231149629e-05 4.54507720348829e-08 -5.145119441607449e-09 4.54507720348829e-08 8.798202907200903e-05" pbc="T T T"
Nb       1.84331595       1.30342069       3.19271625       0.00000597      -0.00000222      -0.00000135
Nb       5.52994393       3.91026295       9.57814927      -0.00002947      -0.00000085      -0.00000782
Rh      -0.00000024      -0.00000010       0.00000040       0.00000521       0.00000034      -0.00000719
Se       2.00065172       1.41467382       6.38543352       0.00168699       0.00118530       0.00000308
Se       5.37261151       3.79901011       6.38543258      -0.00168496      -0.00119251      -0.00000065
Se       4.52962097       1.41467438       4.92533149      -0.00084415       0.00119036       0.00145811
Se       2.84364301       3.79900982       7.84553499       0.00085256      -0.00118458      -0.00144786
Se       2.84364200       3.79901008       4.92533168       0.00084642      -0.00119007       0.00145847
Se       4.52962151       1.41467514       7.84553479      -0.00083855       0.00119400      -0.00145483
