9
Lattice="5.775567676052002 -6.468155022675173e-08 3.334525317980532 1.9251892000092126 5.445257139680861 3.3345252562487055 7.166322222894896e-08 -2.4932195994273687e-08 6.669050511836719" Properties=species:S:1:pos:R:3:forces:R:3 energy=-30.150304794311523 free_energy=-30.150304794311523 stress="4.267886470188387e-05 6.242773853415429e-09 2.042224167553286e-09 6.242773853415429e-09 4.26111146225594e-05 -8.9242337963924e-09 2.042224167553286e-09 -8.9242337963924e-09 4.276106847100891e-05" pbc="T T T"
Nb       1.92519162       1.36131571       3.33452551       0.00002103       0.00001381       0.00000665
Nb       5.77556503       4.08394168      10.00357748      -0.00002271      -0.00001411       0.00001449
S        0.00000011      -0.00000018      -0.00000046      -0.00000043       0.00000011      -0.00000182
Cl       1.95061935       1.37929528       6.66904989       0.00183982       0.00129506      -0.00000240
Cl       5.75013775       4.06596160       6.66904988      -0.00183690      -0.00129724      -0.00000612
Cl       4.80025813       1.37929678       5.02380986      -0.00092199       0.00130543       0.00158098
Cl       2.90049875       4.06596067       8.31429092       0.00092158      -0.00130510      -0.00158513
Cl       2.90049936       4.06596051       5.02380990       0.00092268      -0.00130063       0.00157762
Cl       4.80025769       1.37929611       8.31429122      -0.00092277       0.00130266      -0.00158459
