9
Lattice="6.219258236849921 2.4992696684674466e-08 3.5906904005774045 2.0730861154070293 5.863572789334142 3.5906903782448287 2.5913939676387556e-08 -9.027776160733215e-09 7.18138075627053" Properties=species:S:1:pos:R:3:forces:R:3 energy=-35.8876838684082 free_energy=-35.8876838684082 stress="-9.101515752263367e-05 1.6704536420775185e-08 1.2874210586488744e-09 1.6704536420775185e-08 -9.103274351218715e-05 -2.0852290560924303e-08 1.2874210586488744e-09 -2.0852290560924303e-08 -9.103261982090771e-05" pbc="T T T"
Nb       2.07308611       1.46589326       3.59069021      -0.00000104       0.00000099      -0.00000310
Nb       6.21925788       4.39767895      10.77207214      -0.00000316      -0.00000493       0.00000506
Sn       0.00000018       0.00000014       0.00000009      -0.00000064       0.00000148       0.00000535
Te       2.23931015       1.58343155       7.18138064      -0.00614308      -0.00434247       0.00000043
Te       6.05303414       4.28014133       7.18138024       0.00614183       0.00434205      -0.00000169
Te       5.09960345       1.58343162       5.52998955       0.00307415      -0.00434156      -0.00531931
Te       3.19274104       4.28014151       8.83277179      -0.00306809       0.00433978       0.00531611
Te       3.19274149       4.28014151       5.52998964      -0.00306940       0.00434467      -0.00531976
Te       5.09960307       1.58343133       8.83277184       0.00306946      -0.00434002       0.00531670
