9
Lattice="5.547091617440084 4.611213336149997e-08 3.202614792431197 1.849030549986423 5.229848306829499 3.202614848957055 -2.9251952988921925e-08 4.8545495101005216e-08 6.405229635528278" Properties=species:S:1:pos:R:3:forces:R:3 energy=-42.85593032836914 free_energy=-42.85593032836914 stress="0.0001487063564127311 6.920635620133453e-09 -3.984954233260396e-08 6.920635620133453e-09 0.00014857917267363518 -4.812374498897043e-09 -3.984954233260396e-08 -4.812374498897043e-09 0.0001485790271544829" pbc="T T T"
Nb       1.84903071       1.30746172       3.20261464       0.00000643      -0.00000606      -0.00000567
Nb       5.54709088       3.92238721       9.60784485      -0.00000611       0.00000853       0.00000995
Sn       0.00000017       0.00000007       0.00000016       0.00000097      -0.00000173       0.00000058
S        1.97314696       1.39522540       6.40522990       0.00053877       0.00037962       0.00000367
S        5.42297527       3.83462291       6.40522914      -0.00053787      -0.00038072      -0.00000724
S        4.56051803       1.39522492       4.91140996      -0.00027353       0.00038162       0.00046980
S        2.83560439       3.83462331       7.89904948       0.00027281      -0.00037894      -0.00046825
S        2.83560409       3.83462307       4.91140977       0.00027415      -0.00038049       0.00046706
S        4.56051802       1.39522508       7.89904920      -0.00027570       0.00037846      -0.00046968
