9
Lattice="4.447131232168073 -7.67643015503154e-08 2.567552529514724 1.4823770748969174 4.192795396380761 2.5675524084761787 4.0813006987262995e-08 -1.1938216684874752e-07 5.135104988339231" Properties=species:S:1:pos:R:3:forces:R:3 energy=-59.52268981933594 free_energy=-59.52268981933594 stress="0.0007500320789404213 6.10730097605483e-08 -4.383577589806009e-08 6.10730097605483e-08 0.0007499533821828663 7.779787480899358e-09 -4.383577589806009e-08 7.779787480899358e-09 0.0007499776547774673" pbc="T T T"
Nb       1.48237646       1.04819922       2.56755237      -0.00000568       0.00000217      -0.00000094
Nb       4.44712979       3.14459719       7.70265783      -0.00001150       0.00000603       0.00000069
Se       0.00000043       0.00000021       0.00000052       0.00000331      -0.00000189       0.00000152
O        1.47386096       1.04217579       5.13510498      -0.00108910      -0.00077784       0.00000198
O        4.45564745       3.15061816       5.13510483       0.00109202       0.00077146      -0.00000114
O        3.71020149       1.04217673       3.84395323       0.00054961      -0.00077146      -0.00094581
O        2.21930795       3.15061805       6.42625656      -0.00054267       0.00076923       0.00094840
O        2.21930752       3.15061863       3.84395318      -0.00054517       0.00077257      -0.00094736
O        3.71020147       1.04217688       6.42625624       0.00054917      -0.00077024       0.00094283
