9
Lattice="4.848496101624641 2.428987916846019e-06 2.7992847103286946 1.6161675510782643 4.571208802889724 2.7992848942750537 -3.0726680819580806e-07 8.017141358167756e-09 5.59856995285887" Properties=species:S:1:pos:R:3:forces:R:3 energy=-42.978797912597656 free_energy=-42.978797912597656 stress="-1.67112175404327e-05 -1.6742822026571957e-06 1.1227545826386631e-07 -1.6742822026571957e-06 -1.7676960851531476e-05 6.070615654607536e-08 1.1227545826386631e-07 6.070615654607536e-08 -2.1494095562957227e-05" pbc="T T T"
Nb       1.61614166       1.14279197       2.79929991      -0.00017190      -0.00006854       0.00011396
Nb       4.84853392       3.42842031       8.39786595       0.00027094       0.00007651       0.00009297
S       -0.00000160       0.00000001      -0.00000340      -0.00001332      -0.00000583      -0.00002861
F        1.65951429       1.17346494       5.59856247       0.00453997       0.00327426      -0.00005304
F        4.80514663       3.39774848       5.59856711      -0.00455642      -0.00326002      -0.00002812
F        4.01875035       1.17345119       4.23648677      -0.00221622       0.00317079       0.00404042
F        2.44590736       3.39776273       6.96064582       0.00216356      -0.00315183      -0.00409639
F        2.44591114       3.39775684       4.23648479       0.00218567      -0.00318837       0.00403744
F        4.01874942       1.17344855       6.96064909      -0.00220257       0.00315285      -0.00407809
