9
Lattice="5.7271524534751475 -1.000522932124624e-07 3.306572904504701 1.9090507255213105 5.399610971819529 3.3065729009947433 -4.1939518639078076e-08 -3.395450329564089e-08 6.613145881650781" Properties=species:S:1:pos:R:3:forces:R:3 energy=-39.17338943481445 free_energy=-39.17338943481445 stress="0.0003255154879298061 2.0726733662712604e-09 6.327649959558812e-09 2.0726733662712604e-09 0.0003255268093198538 1.6568240113201682e-08 6.327649959558812e-09 1.6568240113201682e-08 0.0003255477931816131" pbc="T T T"
Nb       1.90905086       1.34990268       3.30657246      -0.00000055       0.00000008      -0.00000187
Nb       5.72715243       4.04970808       9.91971852       0.00000270      -0.00000140      -0.00000041
Sn       0.00000029      -0.00000014       0.00000017      -0.00000384       0.00000232      -0.00000057
Se       2.08595351       1.47499165       6.61314593      -0.00751555      -0.00531302       0.00000171
Se       5.55024954       3.92461889       6.61314579       0.00751445       0.00531395      -0.00000036
Se       4.68417562       1.47499223       5.11306155       0.00376056      -0.00531523      -0.00651389
Se       2.95202752       3.92461885       8.11323003      -0.00375798       0.00531250       0.00650871
Se       2.95202743       3.92461889       5.11306218      -0.00375862       0.00531586      -0.00650683
Se       4.68417534       1.47499217       8.11323003       0.00375888      -0.00531535       0.00651336
