9
Lattice="5.301740228399873 1.5991821982301754e-07 3.060961100129687 1.7672469258647925 4.998528692673713 3.060961044197552 2.1078883686968243e-08 -5.359760833623761e-08 6.1219221637496855" Properties=species:S:1:pos:R:3:forces:R:3 energy=-41.26561737060547 free_energy=-41.26561737060547 stress="-0.00010120711522176862 8.738052770240756e-08 5.793984314550471e-08 8.738052770240756e-08 -0.0001012813372653909 -3.9023944964355906e-08 5.793984314550471e-08 -3.9023944964355906e-08 -0.00010128562280442566" pbc="T T T"
Nb       1.76724678       1.24963249       3.06095988      -0.00000191       0.00000210      -0.00001812
Nb       5.30174055       3.74889555       9.18288496       0.00000261      -0.00000906       0.00002159
Se       0.00000108       0.00000105      -0.00000033      -0.00001543      -0.00001784       0.00000470
S        1.83271444       1.29592561       6.12192277       0.00089672       0.00064004       0.00000905
S        5.23627139       3.70260340       6.12192177      -0.00087769      -0.00062028      -0.00000922
S        4.38538355       1.29592484       4.64813807      -0.00044348       0.00063848       0.00077684
S        2.68360401       3.70260371       7.59570581       0.00044389      -0.00063749      -0.00077789
S        2.68360458       3.70260375       4.64813849       0.00044765      -0.00062861       0.00077017
S        4.38538248       1.29592480       7.59570578      -0.00045256       0.00063268      -0.00077711
