9
Lattice="4.198014448330403 3.35431013541146e-08 2.4237247572601803 1.3993381847434676 3.957926068377006 2.4237247508944453 6.846429935058828e-09 -2.955252995265282e-09 4.84744950266199" Properties=species:S:1:pos:R:3:forces:R:3 energy=-71.3393783569336 free_energy=-71.3393783569336 stress="-9.040463191922754e-05 5.183548168474772e-08 3.5072098114596884e-08 5.183548168474772e-08 -9.040754230227321e-05 -3.4692204664565907e-09 3.5072098114596884e-08 -3.4692204664565907e-09 -9.058573050424457e-05" pbc="T T T"
Nb       1.39933868       0.98948118       2.42372455       0.00000172      -0.00000007      -0.00000198
Nb       4.19801440       2.96844468       7.27117391      -0.00000012      -0.00000091      -0.00000199
Si      -0.00000004       0.00000020      -0.00000007       0.00000387      -0.00000343       0.00000449
O        1.40147561       0.99099297       4.84744960      -0.00497353      -0.00351781      -0.00000147
O        4.19587710       2.96693307       4.84744975       0.00497282       0.00351983       0.00000045
O        3.49727669       0.99099301       3.63743818       0.00248235      -0.00351512      -0.00430733
O        2.10007586       2.96693313       6.05746087      -0.00248599       0.00351804       0.00430673
O        2.10007585       2.96693320       3.63743832      -0.00248498       0.00351572      -0.00430781
O        3.49727652       0.99099297       6.05746091       0.00248414      -0.00351638       0.00430763
