9
Lattice="6.037109476118478 -6.8779487800753844e-09 3.4855267391653744 2.012369826831014 5.691841346596898 3.4855267254080613 2.0008914608439208e-08 -2.7007593681063143e-09 6.971053443674279" Properties=species:S:1:pos:R:3:forces:R:3 energy=-38.715782165527344 free_energy=-38.715782165527344 stress="-0.00022753111261408776 1.4616827748170635e-08 -6.25731966241716e-10 1.4616827748170635e-08 -0.00022752505901735276 -3.5871634551654097e-09 -6.25731966241716e-10 -3.5871634551654097e-09 -0.00022755809186492115" pbc="T T T"
Nb       2.01236995       1.42296014       3.48552704       0.00000083      -0.00000110       0.00000182
Nb       6.03710967       4.26888124      10.45658033       0.00000168       0.00000146      -0.00000032
Si       0.00000010       0.00000005       0.00000018      -0.00000113       0.00000103      -0.00000108
Te       2.06398370       1.45945679       6.97105340      -0.00168651      -0.00119291      -0.00000159
Te       5.98549550       4.23238445       6.97105358       0.00168531       0.00119217       0.00000074
Te       5.00511741       1.45945685       5.27298892       0.00084106      -0.00119130      -0.00145914
Te       3.04436159       4.23238444       8.66911761      -0.00084413       0.00119221       0.00145884
Te       3.04436174       4.23238457       5.27298892      -0.00084177       0.00119090      -0.00145771
Te       5.00511764       1.45945682       8.66911763       0.00084465      -0.00119253       0.00145868
