9
Lattice="5.580678401269667 3.224332199365682e-08 3.222006086986898 1.8602261467093946 5.261513766177651 3.222006117205037 -4.5660921591348845e-08 4.7223665967370565e-09 6.444012253060823" Properties=species:S:1:pos:R:3:forces:R:3 energy=-42.669029235839844 free_energy=-42.669029235839844 stress="-0.000158906594151631 -1.0939221750660977e-09 -1.8089062692183688e-08 -1.0939221750660977e-09 -0.00015881203580647707 7.753993003234427e-09 -1.8089062692183688e-08 7.753993003234427e-09 -0.00015889994392637163" pbc="T T T"
Nb       1.86022653       1.31537919       3.22200568       0.00000250       0.00000381      -0.00000353
Nb       5.58067846       3.94613566       9.66601866       0.00000251       0.00000346       0.00000201
Si      -0.00000008      -0.00000003       0.00000009       0.00000123       0.00000066      -0.00000202
Se       1.89186455       1.33775005       6.44401220      -0.00432175      -0.00305633      -0.00000049
Se       5.54904019       3.92376355       6.44401176       0.00432330       0.00305350      -0.00000248
Se       4.63474595       1.33774976       4.86040889       0.00215818      -0.00305751      -0.00374158
Se       2.80615843       3.92376354       8.02761583      -0.00216113       0.00305599       0.00374717
Se       2.80615825       3.92376369       4.86040889      -0.00216189       0.00305618      -0.00374362
Se       4.63474572       1.33774980       8.02761583       0.00215714      -0.00305954       0.00374492
