9
Lattice="4.257989125726768 -2.853769100785412e-08 2.458351142219256 1.4193296991469118 4.01447056887886 2.4583511119483545 2.541464367244195e-09 -3.527704653303879e-08 4.916702280036569" Properties=species:S:1:pos:R:3:forces:R:3 energy=-62.9957389831543 free_energy=-62.9957389831543 stress="1.4626127267547417e-05 2.1908984848550972e-08 7.462348960984855e-09 2.1908984848550972e-08 1.4667880350316409e-05 -4.3113640657566066e-08 7.462348960984855e-09 -4.3113640657566066e-08 1.4677585568279028e-05" pbc="T T T"
Nb       1.41932997       1.00361766       2.45835066       0.00000200       0.00000067      -0.00000455
Nb       4.25798864       3.01085283       7.37505366      -0.00000528      -0.00000130       0.00000455
S        0.00000009       0.00000002      -0.00000012       0.00000456      -0.00000103       0.00000039
O        1.38168832       0.97700125       4.91670222       0.00020500       0.00014587       0.00000149
O        4.29563046       3.03746925       4.91670244      -0.00020580      -0.00014424      -0.00000074
O        3.56714499       0.97700102       3.65492843      -0.00010169       0.00014658       0.00017717
O        2.11017391       3.03746942       6.17847620       0.00010272      -0.00014616      -0.00017700
O        2.11017389       3.03746939       3.65492842       0.00010238      -0.00014473       0.00017528
O        3.56714505       0.97700117       6.17847619      -0.00010383       0.00014419      -0.00017675
