9
Lattice="4.489973933965891 9.829525883973077e-08 2.5922876975504208 1.4966580556879228 4.2331880910228055 2.592287723486775 3.267540760233761e-08 5.48704220906321e-08 5.184575338505365" Properties=species:S:1:pos:R:3:forces:R:3 energy=-60.89250946044922 free_energy=-60.89250946044922 stress="0.00013884290819987655 2.6544960007868212e-08 -1.0697497998535255e-07 2.6544960007868212e-08 0.00013888398825656623 -1.0051058296767224e-07 -1.0697497998535255e-07 -1.0051058296767224e-07 0.00013885035878047347" pbc="T T T"
Nb       1.49665839       1.05829629       2.59228691       0.00000416      -0.00000711      -0.00001148
Nb       4.48997443       3.17489165       7.77686336       0.00000731       0.00000771       0.00000404
Sn       0.00000015       0.00000011       0.00000006      -0.00000516       0.00000186      -0.00000217
O        1.59184004       1.12560070       5.18457555      -0.00244039      -0.00173014       0.00000196
O        4.39479191       3.10758766       5.18457541       0.00244129       0.00173056      -0.00000211
O        3.69405401       1.12560061       3.97086171       0.00122225      -0.00172782      -0.00210899
O        2.29257743       3.10758745       6.39828916      -0.00122520       0.00172627       0.00210971
O        2.29257803       3.10758763       3.97086138      -0.00121856       0.00172430      -0.00210917
O        3.69405387       1.12560098       6.39828956       0.00121453      -0.00172591       0.00211793
