9
Lattice="6.524493272770917 3.669039712289925e-08 3.76691804130547 2.1748311175258697 6.151351358512235 3.7669180551442247 -1.0193327122941738e-08 9.741166139401484e-09 7.533836100266292" Properties=species:S:1:pos:R:3:forces:R:3 energy=-25.34383773803711 free_energy=-25.34383773803711 stress="4.660723789129406e-05 1.2017578931988737e-08 -4.397008979140082e-09 1.2017578931988737e-08 4.661085768020712e-05 -3.386518843129238e-09 -4.397008979140082e-09 -3.386518843129238e-09 4.660486229113303e-05" pbc="T T T"
Nb       2.17483118       1.53783688       3.76691808       0.00000105      -0.00000435       0.00000079
Nb       6.52449260       4.61351402      11.30075419      -0.00000260       0.00000140       0.00000263
S        0.00000032       0.00000010       0.00000034      -0.00000017      -0.00000077       0.00000115
I        2.29583807       1.62340199       7.53383594       0.00136211       0.00096039      -0.00000026
I        6.40348636       4.52794955       7.53383589      -0.00136107      -0.00096013      -0.00000138
I        5.37657429       1.62340235       5.75517179      -0.00067990       0.00096308       0.00117935
I        3.32274995       4.52794929       9.31250047       0.00068004      -0.00096121      -0.00118015
I        3.32275012       4.52794909       5.75517163       0.00068225      -0.00096184       0.00117765
I        5.37657455       1.62340239       9.31250054      -0.00068176       0.00096339      -0.00117969
