9
Lattice="5.235685915834997 8.502590358571648e-08 3.0228246998227832 1.745228849336258 4.9362511308639165 3.022824473683798 3.9316073001522347e-07 1.0440108470065747e-09 6.045648718671213" Properties=species:S:1:pos:R:3:forces:R:3 energy=-51.24901580810547 free_energy=-51.24901580810547 stress="-7.869140972616151e-05 5.802200320204065e-08 -2.5071580367352908e-08 5.802200320204065e-08 -7.865592488087714e-05 -6.063632440600486e-08 -2.5071580367352908e-08 -6.063632440600486e-08 -7.870137778809294e-05" pbc="T T T"
Nb       1.74522644       1.23406368       3.02282707      -0.00002303       0.00000450       0.00002186
Nb       5.23569067       3.70218802       9.06847201       0.00003283      -0.00000415      -0.00001530
Ti       0.00000054      -0.00000016       0.00000000      -0.00000841       0.00000017       0.00000053
S        1.87880480       1.32851597       6.04564852       0.00029182       0.00021410      -0.00000113
S        5.10210991       3.60773463       6.04565072      -0.00028104      -0.00021118       0.00001183
S        4.29628247       1.32851537       4.64991639      -0.00015530       0.00020850       0.00025368
S        2.68463026       3.60773626       7.44137948       0.00014043      -0.00021052      -0.00026530
S        2.68463082       3.60773631       4.64991778       0.00014165      -0.00020671       0.00025934
S        4.29628503       1.32851463       7.44137963      -0.00013861       0.00020587      -0.00026470
