9
Lattice="4.297291503897521 6.145222013310976e-08 2.481042362131019 1.4324305386074048 4.051525394352924 2.481042397862336 -4.6310252647460825e-08 1.1015455222208343e-08 4.962084804473742" Properties=species:S:1:pos:R:3:forces:R:3 energy=-71.09469604492188 free_energy=-71.09469604492188 stress="5.7370172726223245e-05 3.617625665697233e-08 1.6873391928129422e-07 3.617625665697233e-08 5.7444663980277255e-05 1.483431617543829e-07 1.6873391928129422e-07 1.483431617543829e-07 5.719574983231723e-05" pbc="T T T"
Nb       1.43243038       1.01288087       2.48104292      -0.00000300      -0.00000168       0.00000441
Nb       4.29729143       3.03864469       7.44312651      -0.00000410       0.00000599      -0.00000756
Ti      -0.00000005      -0.00000009      -0.00000017       0.00000192      -0.00000159       0.00000383
O        1.50870291       1.06681398       4.96208443      -0.00324392      -0.00229326      -0.00000727
O        4.22101910       2.98471146       4.96208530       0.00324637       0.00229168       0.00000744
O        3.54294024       1.06681396       3.78761741       0.00162512      -0.00229719      -0.00280684
O        2.18678181       2.98471147       6.13655230      -0.00162169       0.00229222       0.00280666
O        2.18678225       2.98471163       3.78761728      -0.00161844       0.00229916      -0.00280851
O        3.54293994       1.06681396       6.13655224       0.00161797      -0.00229496       0.00280839
