9
Lattice="5.674723075229056 2.00944825715565e-07 3.2763027801314824 1.891574495038214 5.3501803087301605 3.2763028716254916 3.004035960045941e-08 1.3329851703001665e-07 6.552605508231539" Properties=species:S:1:pos:R:3:forces:R:3 energy=-40.712432861328125 free_energy=-40.712432861328125 stress="0.000224264818825759 1.2529724813248322e-08 -6.487670134447399e-08 1.2529724813248322e-08 0.0002241009206045419 -5.3644253483753346e-08 -6.487670134447399e-08 -5.3644253483753346e-08 0.00022424705093726516" pbc="T T T"
Nb       1.89157703       1.33754368       3.27630260       0.00002167      -0.00001733       0.00000205
Nb       5.67472366       4.01263855       9.82890426       0.00000192       0.00002909      -0.00003358
Ti      -0.00000028      -0.00000026      -0.00000025      -0.00000127       0.00000055       0.00000902
Cl       1.94904154       1.37817932       6.55260582      -0.00613070      -0.00434498       0.00000062
Cl       5.61725546       3.97200099       6.55260705       0.00612891       0.00434485       0.00001379
Cl       4.70020191       1.37817897       4.96422253       0.00305839      -0.00434887      -0.00530984
Cl       2.86609488       3.97200072       8.14099019      -0.00306134       0.00433283       0.00531206
Cl       2.86609385       3.97200110       4.96422220      -0.00307417       0.00433852      -0.00530505
Cl       4.70020229       1.37817954       8.14099016       0.00305652      -0.00433457       0.00531115
