9
Lattice="6.5630099122654695 5.721401997456938e-08 3.7891554260393203 2.187669986321238 6.187665048507951 3.7891554925082014 -9.198898552912604e-08 1.6361350298563688e-08 7.57831101140828" Properties=species:S:1:pos:R:3:forces:R:3 energy=-32.69245147705078 free_energy=-32.69245147705078 stress="7.064266537781805e-05 2.5603497988413437e-08 6.953349895866268e-09 2.5603497988413437e-08 7.060669304337353e-05 -3.6568084116339605e-09 6.953349895866268e-09 -3.6568084116339605e-09 7.059972995193675e-05" pbc="T T T"
Nb       2.18767020       1.54691615       3.78915507       0.00000208      -0.00000146      -0.00000258
Nb       6.56300988       4.64074845      11.36746633      -0.00000092      -0.00000093      -0.00000233
Ti       0.00000013      -0.00000002      -0.00000008      -0.00000251       0.00000166       0.00000523
I        2.21757044       1.56805902       7.57831111       0.00032805       0.00023190       0.00000180
I        6.53310917       4.61960608       7.57831086      -0.00032826      -0.00023039       0.00000105
I        5.45422474       1.56805931       5.70962766      -0.00016370       0.00023212       0.00028475
I        3.29645517       4.61960626       9.44699453       0.00016718      -0.00023611      -0.00028816
I        3.29645476       4.61960616       5.70962784       0.00016426      -0.00023225       0.00028664
I        5.45422472       1.56805906       9.44699440      -0.00016621       0.00023552      -0.00028650
