9
Lattice="6.0622901395065645 -1.2149499622913711e-08 3.5000648436531594 2.0207633684577035 5.715581912180026 3.5000648435200756 2.414976328627616e-09 1.5446537982799838e-09 7.000129683123467" Properties=species:S:1:pos:R:3:forces:R:3 energy=-43.38468933105469 free_energy=-43.38468933105469 stress="-0.00014099427789915353 -3.4371677060107686e-08 8.541449214582997e-10 -3.4371677060107686e-08 -0.000140966207254678 1.1580546299683192e-08 8.541449214582997e-10 1.1580546299683192e-08 -0.00014097357052378356" pbc="T T T"
Nb       2.02076353       1.42889568       3.50006476       0.00000246       0.00000173      -0.00000106
Nb       6.06229079       4.28668612      10.50019548       0.00000314      -0.00000314       0.00000590
Ti      -0.00000019      -0.00000015       0.00000019       0.00000022       0.00000229      -0.00000627
Te       2.11812387       1.49774031       7.00012958      -0.00209156      -0.00147808      -0.00000203
Te       5.96492947       4.21784193       7.00012950       0.00208633       0.00147677      -0.00000035
Te       5.00322806       1.49774006       5.33441402       0.00104403      -0.00147651      -0.00181153
Te       3.07982521       4.21784179       8.66584508      -0.00104775       0.00148072       0.00181321
Te       3.07982547       4.21784208       5.33441392      -0.00104256       0.00147764      -0.00181042
Te       5.00322782       1.49773978       8.66584498       0.00104565      -0.00148147       0.00181238
