9
Lattice="5.827300518912509 5.025708423954609e-08 3.3643933900309997 1.942433533438322 5.49403164327843 3.3643934251028167 -3.8260452015610816e-08 1.589979589564846e-08 6.728786846331102" Properties=species:S:1:pos:R:3:forces:R:3 energy=-38.11980056762695 free_energy=-38.11980056762695 stress="4.246563548804261e-05 5.466654329211451e-08 -1.9290409547512155e-10 5.466654329211451e-08 4.241931310389191e-05 -2.2953752676357908e-08 -1.9290409547512155e-10 -2.2953752676357908e-08 4.2508519982220605e-05" pbc="T T T"
Nb       1.94243351       1.37350707       3.36439332      -0.00000110      -0.00000480      -0.00000020
Nb       5.82730098       4.12052381      10.09317970       0.00000307      -0.00000062      -0.00000141
Ti      -0.00000019      -0.00000002      -0.00000024       0.00000309       0.00000346       0.00001308
Br       2.00476906       1.41758606       6.72878680      -0.00195614      -0.00138161       0.00000393
Br       5.76496508       4.07644606       6.72878632       0.00194897       0.00137857       0.00000415
Br       4.82491558       1.41758606       5.10057422       0.00097880      -0.00138481      -0.00169159
Br       2.94481732       4.07644670       8.35700004      -0.00096808       0.00137309       0.00168228
Br       2.94481824       4.07644586       5.10057440      -0.00098063       0.00138791      -0.00169238
Br       4.82491647       1.41758522       8.35700004       0.00097204      -0.00137122       0.00168221
