9
Lattice="5.682953586656569 -1.3678664750781077e-07 3.2810547108011217 1.8943177638716564 5.357939870091053 3.281054657771827 -3.537174070780085e-08 -8.995897547859788e-08 6.562109482867909" Properties=species:S:1:pos:R:3:forces:R:3 energy=-50.0927734375 free_energy=-50.0927734375 stress="-3.514948548399843e-05 -8.826690134355886e-08 3.281649396669195e-09 -8.826690134355886e-08 -3.5087738069705665e-05 -2.243983665550786e-08 3.281649396669195e-09 -2.243983665550786e-08 -3.494909833534621e-05" pbc="T T T"
Nb       1.89431840       1.33948498       3.28105480       0.00000603      -0.00000036       0.00000078
Nb       5.68295345       4.01845519       9.84316395       0.00000056       0.00000364      -0.00000569
Ta       0.00000001       0.00000005       0.00000003       0.00000356       0.00000077      -0.00000315
Se       2.00981027       1.42115036       6.56210956      -0.00622655      -0.00440238       0.00000121
Se       5.56746104       3.93678922       6.56210953       0.00622137       0.00440121       0.00000187
Se       4.67804794       1.42115016       5.02160154       0.00311182      -0.00440575      -0.00539598
Se       2.89922308       3.93678912       8.10261728      -0.00311547       0.00440533       0.00539732
Se       2.89922297       3.93678904       5.02160157      -0.00311626       0.00440533      -0.00539698
Se       4.67804809       1.42115045       8.10261710       0.00311507      -0.00440764       0.00540055
