9
Lattice="4.398955630838193 -9.929831048786978e-09 2.539738204269019 1.4663185415395492 4.1473751728427635 2.5397381916445143 -3.3582908792683456e-08 -3.9208495569424846e-08 5.079476466705339" Properties=species:S:1:pos:R:3:forces:R:3 energy=-74.49430847167969 free_energy=-74.49430847167969 stress="1.7018675862345845e-05 -1.049498266070259e-08 1.8019978398342573e-08 -1.049498266070259e-08 1.6911559214349836e-05 1.2985290709366382e-07 1.8019978398342573e-08 1.2985290709366382e-07 1.7063935956684873e-05" pbc="T T T"
Nb       1.46631871       1.03684376       2.53973843       0.00000286      -0.00000110       0.00000179
Nb       4.39895580       3.11053113       7.61921413       0.00000126      -0.00000300      -0.00000722
Ta      -0.00000003      -0.00000008       0.00000006      -0.00000022       0.00000173      -0.00000203
O        1.55706778       1.10101288       5.07947634      -0.00185312      -0.00131097      -0.00000125
O        4.30820644       3.04636230       5.07947669       0.00184839       0.00131159       0.00000331
O        3.62042181       1.10101323       3.88819829       0.00093041      -0.00130979      -0.00160743
O        2.24485209       3.04636190       6.27075452      -0.00093133       0.00131214       0.00160866
O        2.24485210       3.04636207       3.88819833      -0.00092537       0.00130656      -0.00160230
O        3.62042186       1.10101324       6.27075458       0.00092722      -0.00130742       0.00160577
