9
Lattice="5.524191135236166 5.984964850030985e-08 3.189393010923029 1.8413970743488395 5.208257338729516 3.1893930579597667 -4.983771207198095e-09 5.4083972491127425e-08 6.378786030478178" Properties=species:S:1:pos:R:3:forces:R:3 energy=-46.83214569091797 free_energy=-46.83214569091797 stress="-3.573069625417702e-05 2.91125452633878e-08 3.3543432920168925e-08 2.91125452633878e-08 -3.576843300834298e-05 -1.1557646395488064e-08 3.3543432920168925e-08 -1.1557646395488064e-08 -3.5847147955792025e-05" pbc="T T T"
Nb       1.84139848       1.30206559       3.18939267       0.00001121       0.00001294       0.00000015
Nb       5.52418955       3.90619194       9.56817817      -0.00001624      -0.00001046      -0.00000680
Ti      -0.00000012       0.00000013      -0.00000023       0.00000060      -0.00000216       0.00000364
Se       1.97044113       1.39331209       6.37878623      -0.00773361      -0.00547017       0.00000364
Se       5.39514764       3.81494430       6.37878610       0.00774226       0.00546677       0.00000105
Se       4.53897010       1.39331273       4.89584463       0.00386178      -0.00546815      -0.00670344
Se       2.82661813       3.81494521       7.86172785      -0.00386108       0.00546588       0.00670084
Se       2.82661767       3.81494493       4.89584515      -0.00386849       0.00546996      -0.00670195
Se       4.53897026       1.39331285       7.86172777       0.00386383      -0.00546472       0.00670338
