9
Lattice="5.43309625219966 4.9200331756708285e-08 3.1367998310370586 1.811032102960162 5.122372462079902 3.1367998786561855 9.797599801126486e-08 1.2760077680029535e-07 6.273599492374704" Properties=species:S:1:pos:R:3:forces:R:3 energy=-54.9439697265625 free_energy=-54.9439697265625 stress="0.0001953352038981393 -8.566956921640667e-08 -9.659574828901896e-08 -8.566956921640667e-08 0.0001953725441126153 -2.4617042626573493e-08 -9.659574828901896e-08 -2.4617042626573493e-08 0.00019548260024748743" pbc="T T T"
Nb       1.81103171       1.28059287       3.13680049      -0.00000081      -0.00000106       0.00000818
Nb       5.43309571       3.84177930       9.41039797      -0.00000452      -0.00000281      -0.00001357
Ta      -0.00000015      -0.00000014       0.00000034       0.00000468       0.00000238      -0.00000961
S        1.93490994       1.36818758       6.27359904      -0.00368315      -0.00260827      -0.00000369
S        5.30921850       3.75418544       6.27360012       0.00367951       0.00260708       0.00000264
S        4.46564212       1.36818821       4.81248109       0.00184420      -0.00260520      -0.00319171
S        2.77848746       3.75418420       7.73471822      -0.00184724       0.00261483       0.00320160
S        2.77848644       3.75418446       4.81248110      -0.00184390       0.00260374      -0.00319028
S        4.46564206       1.36818863       7.73471845       0.00185117      -0.00261024       0.00319624
