9
Lattice="6.134866938763158 -2.9118124412299404e-08 3.541967104958019 2.0449556387193826 5.78400798121436 3.541967070459347 3.699693642583202e-08 -1.6091295757230028e-08 7.083934145835484" Properties=species:S:1:pos:R:3:forces:R:3 energy=-46.164825439453125 free_energy=-46.164825439453125 stress="-0.00017953319184016436 -3.562407036028503e-09 7.184705719254225e-09 -3.562407036028503e-09 -0.0001795554271666333 -1.136638072551932e-08 7.184705719254225e-09 -1.136638072551932e-08 -0.00017956086958292872" pbc="T T T"
Nb       2.04495540       1.44600195       3.54196677      -0.00000079       0.00000170      -0.00000299
Nb       6.13486711       4.33800617      10.62590130       0.00000160       0.00000139       0.00000007
Ta      -0.00000005       0.00000019       0.00000017      -0.00000165      -0.00000265      -0.00000018
Te       2.16002647       1.52736931       7.08393417      -0.00481647      -0.00340636      -0.00000006
Te       6.01979628       4.25663850       7.08393419       0.00481763       0.00340571       0.00000047
Te       5.05485384       1.52736898       5.41260478       0.00240774      -0.00340435      -0.00416751
Te       3.12496885       4.25663864       8.75526321      -0.00240918       0.00340630       0.00417084
Te       3.12496900       4.25663870       5.41260496      -0.00240672       0.00340535      -0.00417177
Te       5.05485358       1.52736928       8.75526371       0.00240768      -0.00340711       0.00417119
