9
Lattice="4.890286247215734 -3.9835521694894476e-07 2.8234080912363284 1.6300951872397689 4.61060562665053 2.8234078364964796 -3.344619797531969e-07 -5.48491629011808e-07 5.646816761777818" Properties=species:S:1:pos:R:3:forces:R:3 energy=-55.034278869628906 free_energy=-55.034278869628906 stress="0.0006998444441705942 -6.179158518193617e-09 5.742205999581529e-08 -6.179158518193617e-09 0.0006997845484875143 3.7953572729065854e-08 5.742205999581529e-08 3.7953572729065854e-08 0.0006998357712291181" pbc="T T T"
Nb       1.63009769       1.15265242       2.82341262       0.00001868       0.00000816       0.00002736
Nb       4.89029665       3.45795116       8.47021309       0.00007309      -0.00001727      -0.00008024
Ti       0.00000017      -0.00000070      -0.00000020      -0.00000850       0.00000250       0.00000138
F        1.62887129       1.15178988       5.64681465      -0.00091854      -0.00062400      -0.00000890
F        4.89150644       3.45881738       5.64682192       0.00089891       0.00064161       0.00002898
F        4.07584721       1.15178594       4.23405518       0.00043578      -0.00064920      -0.00077880
F        2.44453046       3.45881662       7.05957744      -0.00046485       0.00063954       0.00078318
F        2.44452708       3.45881691       4.23405720      -0.00048461       0.00063563      -0.00076890
F        4.07584744       1.15178884       7.05957871       0.00044995      -0.00063689       0.00079591
