9
Lattice="5.988196583536761 4.983385464549895e-09 3.4572869186549213 1.9960655279176196 5.645725959285335 3.4572869266680084 -2.6911251956927243e-08 -9.215127932645324e-09 6.914573883921513" Properties=species:S:1:pos:R:3:forces:R:3 energy=-43.949405670166016 free_energy=-43.949405670166016 stress="5.158282874617726e-06 1.717527275957309e-08 2.778606678077722e-09 1.717527275957309e-08 5.17357239004923e-06 7.095338983020838e-09 2.778606678077722e-09 7.095338983020838e-09 5.164834419701947e-06" pbc="T T T"
Nb       1.99606511       1.41143181       3.45728664      -0.00000193       0.00000008      -0.00000266
Nb       5.98819649       4.23429442      10.37185951       0.00000000       0.00000046      -0.00000700
V        0.00000010       0.00000004       0.00000002      -0.00000093       0.00000050       0.00000029
Te       2.08285767       1.47280259       6.91457395      -0.00034422      -0.00024453       0.00000162
Te       5.90140451       4.17292319       6.91457422       0.00034568       0.00024515       0.00000140
Te       4.94676815       1.47280244       5.26109485       0.00017249      -0.00024475      -0.00029612
Te       3.03749443       4.17292319       8.56805346      -0.00017115       0.00024402       0.00029880
Te       3.03749410       4.17292317       5.26109478      -0.00017332       0.00024126      -0.00029814
Te       4.94676779       1.47280297       8.56805348       0.00017323      -0.00024222       0.00030157
