9
Lattice="5.480358205949351 1.546713328489972e-07 3.1640864188449562 1.826786177760585 5.16693165913454 3.1640864824366868 1.637227070857186e-08 8.94606207562911e-08 6.32817280933228" Properties=species:S:1:pos:R:3:forces:R:3 energy=-46.84014892578125 free_energy=-46.84014892578125 stress="5.742571738664992e-05 -2.0628954544577027e-08 2.3552590988629163e-08 -2.0628954544577027e-08 5.735783270210959e-05 -1.3582874380801968e-08 2.3552590988629163e-08 -1.3582874380801968e-08 5.7338223996339366e-05" pbc="T T T"
Nb       1.82678609       1.29173284       3.16408745      -0.00000008      -0.00000263       0.00000904
Nb       5.48035879       3.87519900       9.49226022       0.00000359       0.00000236       0.00000808
V        0.00000014      -0.00000017      -0.00000003      -0.00000073       0.00000313      -0.00000188
Se       1.96882510       1.39217046       6.32817172       0.00030351       0.00022024      -0.00001157
Se       5.33831888       3.77476172       6.32817311      -0.00030684      -0.00021774      -0.00000033
Se       4.49594550       1.39217027       4.86913908      -0.00015414       0.00021487       0.00026518
Se       2.81119871       3.77476158       7.78720636       0.00015160      -0.00021535      -0.00026757
Se       2.81119931       3.77476208       4.86913907       0.00015828      -0.00021559       0.00026524
Se       4.49594508       1.39216988       7.78720599      -0.00015554       0.00021064      -0.00026613
