9
Lattice="5.612957158846458 -1.445656647258531e-07 3.240642257078739 1.870985570975809 5.2919466909523125 3.240642278455458 -4.7372094633356815e-08 -7.316080546048838e-09 6.481284596208336" Properties=species:S:1:pos:R:3:forces:R:3 energy=-41.25026321411133 free_energy=-41.25026321411133 stress="0.0003364853037055582 1.7262905771531223e-08 -6.217046877310395e-09 1.7262905771531223e-08 0.00033650713157840073 1.6061775243159104e-09 -6.217046877310395e-09 1.6061775243159104e-09 0.0003365078882779926" pbc="T T T"
Nb       1.87098468       1.32298666       3.24064188      -0.00000650       0.00000200      -0.00000405
Nb       5.61295871       3.96896020       9.72192743       0.00001389       0.00000120       0.00000661
V       -0.00000008      -0.00000003       0.00000029      -0.00000123      -0.00000230      -0.00000185
Cl       1.90286257       1.34552733       6.48128473      -0.00185298      -0.00130586       0.00000195
Cl       5.58108017       3.94641920       6.48128408       0.00185411       0.00130804      -0.00000378
Cl       4.66152557       1.34552706       4.88856992       0.00092825      -0.00130890      -0.00159665
Cl       2.82241674       3.94641949       8.07399915      -0.00093243       0.00130751       0.00160091
Cl       2.82241690       3.94641946       4.88856994      -0.00092918       0.00130888      -0.00159944
Cl       4.66152550       1.34552677       8.07399908       0.00092596      -0.00131040       0.00159634
