9
Lattice="4.936446837780124 -1.262114467129596e-06 2.8500603234572113 1.6454815310148414 4.654131400666817 2.850059558432165 8.419390485405051e-07 -3.4161974948082344e-07 5.700119188633463" Properties=species:S:1:pos:R:3:forces:R:3 energy=-53.17063522338867 free_energy=-53.17063522338867 stress="1.1003419785993174e-05 2.049612959353908e-07 -5.92475259963976e-08 2.049612959353908e-07 1.0832322914211545e-05 9.168374504042731e-09 -5.92475259963976e-08 9.168374504042731e-09 1.1131014616694301e-05" pbc="T T T"
Nb       1.64549050       1.16354591       2.85006519       0.00003935       0.00009839       0.00002734
Nb       4.93644315       3.49059239       8.55018866      -0.00002082      -0.00001785       0.00006057
V       -0.00000001      -0.00000719      -0.00000393      -0.00001041       0.00007498       0.00000292
F        1.60233383       1.13302172       5.70012065      -0.00089625      -0.00062522      -0.00001364
F        4.97960335       3.52110753       5.70011776       0.00086749       0.00058779      -0.00002839
F        4.13527534       1.13302628       4.23771936       0.00042501      -0.00061047      -0.00081787
F        2.44664986       3.52110563       7.16252544      -0.00042656       0.00057086       0.00075832
F        2.44664342       3.52111249       4.23771705      -0.00042593       0.00057721      -0.00075486
F        4.13527911       1.13301686       7.16250429       0.00044821      -0.00065601       0.00076568
