9
Lattice="5.765715798693521 1.0860217772306511e-07 3.328837558749485 1.921905341542748 5.43596914537687 3.3288376056526614 5.287237653441047e-08 9.483080933651516e-08 6.6576750259213515" Properties=species:S:1:pos:R:3:forces:R:3 energy=-38.6153450012207 free_energy=-38.6153450012207 stress="-4.910031930194236e-05 3.618099597701985e-08 3.973201856410924e-08 3.618099597701985e-08 -4.911749419989064e-05 8.004258233995643e-08 3.973201856410924e-08 8.004258233995643e-08 -4.9152793508255854e-05" pbc="T T T"
Nb       1.92190474       1.35899141       3.32883709      -0.00000416      -0.00000373      -0.00000287
Nb       5.76571590       4.07697684       9.98651208       0.00000393      -0.00000247      -0.00000056
V       -0.00000016       0.00000026       0.00000028       0.00000409      -0.00000387      -0.00000046
Br       1.98111785       1.40086213       6.65767552      -0.00342470      -0.00242269      -0.00000103
Br       5.70650348       4.03510743       6.65767512       0.00342534       0.00242387      -0.00000092
Br       4.77515730       1.40086213       5.04453621       0.00170904      -0.00241926      -0.00296024
Br       2.91246455       4.03510746       8.27081414      -0.00171385       0.00242645       0.00296763
Br       2.91246395       4.03510761       5.04453586      -0.00170973       0.00241933      -0.00296158
Br       4.77515719       1.40086212       8.27081449       0.00171000      -0.00241741       0.00295993
