9
Lattice="6.453939126079362 8.60372512890692e-08 3.726183330108158 2.1513130715109035 6.084832191498212 3.7261834195378762 -6.298923724710546e-08 6.498843848607418e-08 7.4523667693169395" Properties=species:S:1:pos:R:3:forces:R:3 energy=-33.2010383605957 free_energy=-33.2010383605957 stress="0.00015731810708530247 1.5066904168747897e-08 -4.911824280640076e-10 1.5066904168747897e-08 0.00015733337204437703 -5.15447373672373e-09 -4.911824280640076e-10 -5.15447373672373e-09 0.00015731835446786135" pbc="T T T"
Nb       2.15131327       1.52120810       3.72618357       0.00000004      -0.00000098       0.00000228
Nb       6.45393956       4.56362433      11.17855046       0.00000282       0.00000123       0.00000222
V        0.00000001      -0.00000014       0.00000008       0.00000092      -0.00000089      -0.00000106
I        2.17491865       1.53789983       7.45236679      -0.00263185      -0.00186064      -0.00000189
I        6.43033355       4.54693277       7.45236669       0.00262940       0.00186039      -0.00000167
I        5.36647970       1.53789961       5.60971798       0.00131360      -0.00185806      -0.00227705
I        3.23877207       4.54693250       9.29501543      -0.00131652       0.00186129       0.00227781
I        3.23877204       4.54693276       5.60971787      -0.00131458       0.00185865      -0.00227780
I        5.36647971       1.53789959       9.29501523       0.00131618      -0.00186105       0.00227720
