9
Lattice="5.705064202573357 -1.3109722197731687e-07 3.2938201405922407 1.901687855430937 5.378786501757624 3.2938202938681216 -1.7848621864091362e-07 6.151502354047703e-08 6.587640590331744" Properties=species:S:1:pos:R:3:forces:R:3 energy=-49.168514251708984 free_energy=-49.168514251708984 stress="0.00021702240337617695 1.3921461317067951e-08 -4.464177649765588e-08 1.3921461317067951e-08 0.00021697641932405531 2.0455626525972548e-08 -4.464177649765588e-08 2.0455626525972548e-08 0.0002169420477002859" pbc="T T T"
Nb       1.90168662       1.34469681       3.29382118      -0.00000928       0.00000260       0.00000945
Nb       5.70506446       4.03408929       9.88146049       0.00000150      -0.00000805      -0.00000856
W        0.00000024       0.00000008      -0.00000096      -0.00001333      -0.00000391       0.00001521
Se       1.98889306       1.40636041       6.58764067      -0.00674206      -0.00476271       0.00000025
Se       5.61785859       3.97242595       6.58764101       0.00675508       0.00477329       0.00000429
Se       4.71061670       1.40636030       5.01625208       0.00337578      -0.00477669      -0.00584754
Se       2.89613461       3.97242621       8.15902875      -0.00337167       0.00476667       0.00583452
Se       2.89613500       3.97242629       5.01625221      -0.00337297       0.00477228      -0.00584069
Se       4.71061819       1.40636035       8.15902863       0.00337727      -0.00476363       0.00583297
