9
Lattice="5.451006905068634 4.112794368642562e-07 3.1471406677614895 1.8170026040522493 5.139259038512827 3.147140815670338 1.7471205368304463e-07 3.0469066567198897e-07 6.294281032912862" Properties=species:S:1:pos:R:3:forces:R:3 energy=-53.587162017822266 free_energy=-53.587162017822266 stress="0.00025688018649816513 1.414036603364366e-07 1.0083681445394177e-08 1.414036603364366e-07 0.0002567023620940745 3.182315566618854e-08 1.0083681445394177e-08 3.182315566618854e-08 0.0002565144095569849" pbc="T T T"
Nb       1.81700762       1.28481713       3.14714128       0.00005028       0.00001641       0.00000334
Nb       5.45100878       3.85444259       9.44142546       0.00000885      -0.00001485       0.00003280
W       -0.00000094       0.00000027      -0.00000109      -0.00001252       0.00000281       0.00000582
S        1.91187405       1.35189889       6.29428030      -0.00594980      -0.00419676      -0.00000477
S        5.35613413       3.78736115       6.29428163       0.00594258       0.00420702      -0.00000543
S        4.49506858       1.35189974       4.80287027       0.00295398      -0.00418508      -0.00516009
S        2.77293718       3.78735980       7.78569104      -0.00298211       0.00417322       0.00513369
S        2.77293969       3.78736156       4.80287125      -0.00296545       0.00418913      -0.00514317
S        4.49506969       1.35189853       7.78569015       0.00295442      -0.00419158       0.00513738
