9
Lattice="6.094045870770041 4.784373340026938e-09 3.518399019630826 2.031348629378149 5.745521535144795 3.518399017418358 5.657068916642693e-09 1.2904441816651474e-09 7.0367980294632995" Properties=species:S:1:pos:R:3:forces:R:3 energy=-45.940486907958984 free_energy=-45.940486907958984 stress="-0.00014667004870716482 3.361136435842127e-08 -2.428195244874587e-08 3.361136435842127e-08 -0.00014669878873974085 1.1308632252848838e-08 -2.428195244874587e-08 1.1308632252848838e-08 -0.000146744423545897" pbc="T T T"
Nb       2.03134857       1.43638039       3.51839903      -0.00000119      -0.00000017      -0.00000037
Nb       6.09404618       4.30914128      10.55519729       0.00000169      -0.00000081       0.00000322
W        0.00000007       0.00000005      -0.00000010      -0.00000218      -0.00000764       0.00000112
Te       2.13707130       1.51113786       7.03679808      -0.00397444      -0.00281133      -0.00000082
Te       5.98832280       4.23438368       7.03679792       0.00398117       0.00281410      -0.00000045
Te       5.02551009       1.51113787       5.36915721       0.00198753      -0.00281037      -0.00344081
Te       3.09988445       4.23438354       8.70443857      -0.00199060       0.00281541       0.00344519
Te       3.09988452       4.23438371       5.36915736      -0.00198749       0.00281121      -0.00344589
Te       5.02551006       1.51113778       8.70443892       0.00198555      -0.00281037       0.00343905
