9
Lattice="6.163985228914705 3.7135226497515794e-08 3.5587785633620035 2.0546617641748806 5.811460998819059 3.558778587278366 8.794683606082795e-09 3.5510235390511276e-08 7.117557111491156" Properties=species:S:1:pos:R:3:forces:R:3 energy=-43.34404754638672 free_energy=-43.34404754638672 stress="-0.00013794425467494875 4.257813657204679e-08 -3.2977371944298284e-09 4.257813657204679e-08 -0.0001379648019792512 1.1639444075228766e-08 -3.2977371944298284e-09 1.1639444075228766e-08 -0.00013800198212265968" pbc="T T T"
Nb       2.05466177       1.45286504       3.55877839       0.00000098      -0.00000004      -0.00000240
Nb       6.16398520       4.35859574      10.67633555      -0.00000094      -0.00000015      -0.00000303
Zr      -0.00000013       0.00000030      -0.00000000       0.00000340      -0.00000718       0.00000402
Te       2.19645870       1.55313100       7.11755721      -0.00451799      -0.00319521       0.00000113
Te       6.02218824       4.25833021       7.11755732       0.00451797       0.00319377      -0.00000064
Te       5.06575606       1.55313073       5.46096752       0.00225761      -0.00318889      -0.00390556
Te       3.15289127       4.25833003       8.77414668      -0.00225916       0.00319319       0.00391230
Te       3.15289111       4.25833039       5.46096751      -0.00225750       0.00319494      -0.00391130
Te       5.06575577       1.55313082       8.77414689       0.00225551      -0.00319051       0.00390531
