9
Lattice="5.690295249029554 -7.612205359555906e-08 3.2852934759666796 1.8967650337885757 5.364861781711492 3.28529343691365 -1.8823567013126908e-08 -6.114027343410979e-08 6.570586984536733" Properties=species:S:1:pos:R:3:forces:R:3 energy=-46.692543029785156 free_energy=-46.692543029785156 stress="-3.999385080533102e-05 -3.8082500708469524e-08 3.6941688819069896e-08 -3.8082500708469524e-08 -3.992819620179944e-05 -3.770077228182345e-08 3.6941688819069896e-08 -3.770077228182345e-08 -3.984184513683431e-05" pbc="T T T"
Nb       1.89676465       1.34121514       3.28529426      -0.00000572      -0.00000061       0.00000459
Nb       5.69029569       4.02364675       9.85588132       0.00000459       0.00000420       0.00000906
Zr      -0.00000011       0.00000013      -0.00000031       0.00000132      -0.00000131      -0.00000023
Se       2.04898600       1.44885173       6.57058700      -0.00112715      -0.00079464      -0.00000149
Se       5.53807440       3.91600974       6.57058664       0.00112845       0.00079761      -0.00000477
Se       4.66580215       1.44885182       5.05976711       0.00056207      -0.00079967      -0.00098062
Se       2.92125789       3.91601003       8.08140628      -0.00056516       0.00080065       0.00097649
Se       2.92125807       3.91600981       5.05976736      -0.00056709       0.00079964      -0.00098038
Se       4.66580230       1.44885140       8.08140588       0.00056845      -0.00080632       0.00097708
