9
Lattice="5.434109338815521 -4.901932356811005e-08 3.1373844332019822 1.8113697263150221 5.12332744858643 3.1373844454550217 -8.019933242750695e-08 -4.170263592346087e-08 6.2747690053132805" Properties=species:S:1:pos:R:3:forces:R:3 energy=-51.29615783691406 free_energy=-51.29615783691406 stress="0.00018414958321955055 -1.4582318685896212e-09 1.760533274719478e-09 -1.4582318685896212e-09 0.00018412100325804204 1.3090926564984784e-08 1.760533274719478e-09 1.3090926564984784e-08 0.00018411289784125984" pbc="T T T"
Nb       1.81136955       1.28083164       3.13738433      -0.00000238      -0.00000164      -0.00000239
Nb       5.43410947       3.84249524       9.41215414       0.00000354      -0.00000217       0.00000731
Zr       0.00000003       0.00000001       0.00000001      -0.00000203      -0.00000088      -0.00000059
S        1.96512617       1.38955461       6.27476909      -0.00453305      -0.00319824       0.00000014
S        5.28035264       3.73377282       6.27476871       0.00453579       0.00320423      -0.00000173
S        4.45154582       1.38955432       4.83923386       0.00226408      -0.00320497      -0.00392577
S        2.79393294       3.73377309       7.71030371      -0.00226694       0.00320563       0.00392243
S        2.79393334       3.73377332       4.83923404      -0.00226372       0.00320515      -0.00392428
S        4.45154583       1.38955439       7.71030356       0.00226498      -0.00320697       0.00392482
