9
Lattice="5.792309375730703 2.7419984184721e-08 3.3441913946668373 1.9307698158316968 5.461041616769386 3.3441913980102913 7.388053293411122e-10 4.6172943579809426e-09 6.688382788054021" Properties=species:S:1:pos:R:3:forces:R:3 energy=-29.962844848632812 free_energy=-29.962844848632812 stress="0.00038145948201417923 -1.9590952859971367e-08 -9.679205215107345e-10 -1.9590952859971367e-08 0.0003814510127995163 -2.592529391165499e-08 -9.679205215107345e-10 -2.592529391165499e-08 0.00038148704334162176" pbc="T T T"
Nb       1.93076982       1.36526043       3.34419140       0.00000197       0.00000037      -0.00000257
Nb       5.79230941       4.09578144      10.03257408      -0.00000189       0.00000107      -0.00000405
Zn      -0.00000001      -0.00000003      -0.00000001      -0.00000065      -0.00000106       0.00000564
Br       1.98979400       1.40699684       6.68838279       0.00205791       0.00145461       0.00000220
Br       5.73328513       4.05404472       6.68838278      -0.00205716      -0.00145479       0.00000220
Br       4.79741237       1.40699685       5.06740360      -0.00102726       0.00145324       0.00178236
Br       2.92566679       4.05404482       8.30936204       0.00103141      -0.00145757      -0.00178404
Br       2.92566681       4.05404477       5.06740356       0.00102666      -0.00145427       0.00178267
Br       4.79741244       1.40699677       8.30936209      -0.00103074       0.00145850      -0.00178456
