9
Lattice="4.4803966122920516 7.584883041846186e-09 2.5867582492139434 1.4934655864193787 4.224158288885442 2.586758176749096 1.6594565070293154e-07 2.8590346122705475e-08 5.173516211001591" Properties=species:S:1:pos:R:3:forces:R:3 energy=-68.24148559570312 free_energy=-68.24148559570312 stress="8.168218482751399e-05 -4.369396577885709e-08 -1.5160662769631017e-07 -4.369396577885709e-08 8.153471571858972e-05 -2.0326616834154265e-07 -1.5160662769631017e-07 -2.0326616834154265e-07 8.170885848812759e-05" pbc="T T T"
Nb       1.49346571       1.05604025       2.58675805       0.00000188       0.00001145       0.00000089
Nb       4.48039709       3.16811936       7.76027620       0.00000353       0.00001078       0.00002721
Zr      -0.00000007       0.00000017      -0.00000000       0.00000459       0.00000040       0.00001129
O        1.60267987       1.13326523       5.17351619      -0.00281651      -0.00199720      -0.00000209
O        4.37118247       3.09089302       5.17351582       0.00281349       0.00199257      -0.00000960
O        3.67905726       1.13326569       3.97471950       0.00141477      -0.00199412      -0.00243977
O        2.29480484       3.09089245       6.37231281      -0.00141595       0.00198501       0.00243172
O        2.29480556       3.09089195       3.97471877      -0.00141130       0.00198743      -0.00245318
O        3.67905697       1.13326517       6.37231301       0.00140496      -0.00199638       0.00243320
