9
Lattice="4.747168752464243 -3.656190619859649e-08 2.740779218203277 1.5823895221249797 4.475673922313662 2.740779265936659 2.0003007726715454e-08 7.260545068367535e-08 5.48155840176032" Properties=species:S:1:pos:R:3:forces:R:3 energy=-45.70706558227539 free_energy=-45.70706558227539 stress="0.00021300282969605178 5.8395709601199997e-08 -2.586771188362036e-07 5.8395709601199997e-08 0.00021269614808261395 -1.5657376195576944e-07 -2.586771188362036e-07 -1.5657376195576944e-07 0.00021314076730050147" pbc="T T T"
Nb       1.58239392       1.11891945       2.74077687       0.00004323       0.00000926      -0.00001904
Nb       4.74716895       3.35674895       8.22234621       0.00000402      -0.00006968       0.00008941
Zn      -0.00000011      -0.00000008       0.00000060       0.00000224      -0.00000241      -0.00000234
F        1.60912761       1.13782812       5.48155831      -0.00050218      -0.00032384       0.00000456
F        4.72042857       3.33784841       5.48155454       0.00048156       0.00035326      -0.00003939
F        3.94260411       1.13782913       4.13432365       0.00024344      -0.00031146      -0.00044779
F        2.38695217       3.33784716       6.82879089      -0.00026621       0.00033889       0.00041633
F        2.38695498       3.33784760       4.13432451      -0.00023260       0.00034405      -0.00043387
F        3.94260287       1.13782714       6.82879215       0.00022632      -0.00033781       0.00043201
