9
Lattice="5.612830467843682 -1.2875299309303167e-08 3.2405691532244374 1.8709434728292755 5.2918272882681325 3.2405691606947298 -9.055294942491338e-08 -5.4881368422736355e-08 6.481138463291176" Properties=species:S:1:pos:R:3:forces:R:3 energy=-32.36260986328125 free_energy=-32.36260986328125 stress="0.0002851853205356747 2.1236191471984966e-08 2.547926669649314e-08 2.1236191471984966e-08 0.0002851197205018252 -3.5423934008349534e-08 2.547926669649314e-08 -3.5423934008349534e-08 0.0002851562458090484" pbc="T T T"
Nb       1.87094347       1.32295755       3.24056888       0.00000050       0.00000671      -0.00000085
Nb       5.61283080       3.96887012       9.72170730       0.00000104      -0.00000384      -0.00000137
Zn      -0.00000009       0.00000003      -0.00000017      -0.00000119       0.00000048       0.00000195
Cl       1.91640174       1.35510087       6.48113843       0.00027309       0.00019777       0.00000242
Cl       5.56737193       3.93672649       6.48113845      -0.00027196      -0.00019192      -0.00000135
Cl       4.65462939       1.35510046       4.90022202      -0.00013879       0.00019249       0.00023714
Cl       2.82914439       3.93672625       8.06205526       0.00013908      -0.00020047      -0.00023800
Cl       2.82914423       3.93672651       4.90022203       0.00013600      -0.00019622       0.00023952
Cl       4.65462950       1.35510065       8.06205493      -0.00013776       0.00019502      -0.00023945
