9
Lattice="5.73845613455088 -1.4044738401877834e-08 3.3130991463016306 1.9128186803998886 5.4102684343527265 3.3130991772629934 -1.2509588781681131e-08 2.9074170710480272e-08 6.626198314270477" Properties=species:S:1:pos:R:3:forces:R:3 energy=-21.359134674072266 free_energy=-21.359134674072266 stress="0.00019170493760611862 -4.4590473535777164e-09 -1.343773758932798e-09 -4.4590473535777164e-09 0.0001917035988299176 -7.319111983150606e-09 -1.343773758932798e-09 -7.319111983150606e-09 0.00019173749024048448" pbc="T T T"
Ni       1.91281902       1.35256754       3.31309878       0.00000073       0.00000188      -0.00000217
Ni       5.73845586       4.05770106       9.93929817      -0.00000169      -0.00000071       0.00000592
Au       0.00000008      -0.00000003       0.00000030      -0.00000099       0.00000098      -0.00000840
Cl       1.97189238       1.39433864       6.62619821       0.00282335       0.00199620       0.00000066
Cl       5.67938248       4.01592959       6.62619802      -0.00282282      -0.00199719      -0.00000285
Cl       4.75251001       1.39433856       5.02080788      -0.00141154       0.00199933       0.00244568
Cl       2.89876479       4.01592971       8.23158867       0.00140938      -0.00199650      -0.00244258
Cl       2.89876511       4.01593011       5.02080786       0.00141530      -0.00199781       0.00244616
Cl       4.75250948       1.39433864       8.23158865      -0.00141189       0.00199378      -0.00244236
