9
Lattice="6.054664712674854 2.381253757857761e-08 3.495662350276558 2.018221590542396 5.708392676510716 3.4956623551261456 3.5135463223910654e-08 3.078401904323606e-08 6.9913246396967175" Properties=species:S:1:pos:R:3:forces:R:3 energy=-19.16608238220215 free_energy=-19.16608238220215 stress="0.00016425807552877814 1.5027152855395798e-09 -6.183201950449302e-09 1.5027152855395798e-09 0.0001642642164370045 2.4604627224533715e-09 -6.183201950449302e-09 2.4604627224533715e-09 0.0001642818533582613" pbc="T T T"
Ni       2.01822139       1.42709816       3.49566233      -0.00000010       0.00000019      -0.00000132
Ni       6.05466492       4.28129482      10.48698705       0.00000089       0.00000050       0.00000063
Au       0.00000013       0.00000000      -0.00000005      -0.00000092       0.00000009       0.00000040
Br       2.09402597       1.48069986       6.99132473       0.00172599       0.00122045       0.00000028
Br       5.97886043       4.22769295       6.99132464      -0.00172566      -0.00122076      -0.00000043
Br       5.00765180       1.48069978       5.30914202      -0.00086256       0.00121999       0.00149524
Br       3.06523445       4.22769275       8.67350729       0.00086258      -0.00122067      -0.00149472
Br       3.06523444       4.22769286       5.30914196       0.00086240      -0.00122015       0.00149547
Br       5.00765184       1.48069972       8.67350730      -0.00086255       0.00122032      -0.00149563
