9
Lattice="5.692871614936467 -2.2034166936339936e-08 3.2867810133659 1.8976238563087096 5.367290865200919 3.2867810039483425 -4.3761706610432654e-08 -4.2478321259663354e-08 6.573562102529277" Properties=species:S:1:pos:R:3:forces:R:3 energy=-20.884281158447266 free_energy=-20.884281158447266 stress="0.0001518524659331888 2.5645774393012744e-09 4.065205061465349e-09 2.5645774393012744e-09 0.00015183314098976552 -2.5061663855296956e-09 4.065205061465349e-09 -2.5061663855296956e-09 0.00015183781215455383" pbc="T T T"
Ni       1.89762375       1.34182256       3.28678103      -0.00000005       0.00000004       0.00000093
Ni       5.69287151       4.02546829       9.86034265      -0.00000018      -0.00000001      -0.00000076
Ag       0.00000013       0.00000015       0.00000022      -0.00000046      -0.00000413       0.00000136
Cl       1.97176779       1.39425031       6.57356213       0.00088623       0.00062749      -0.00000001
Cl       5.61872773       3.97304049       6.57356215      -0.00088465      -0.00062658       0.00000004
Cl       4.70698751       1.39425017       4.99438213      -0.00044379       0.00062643       0.00076875
Cl       2.88350784       3.97304034       8.15274202       0.00044356      -0.00062558      -0.00076821
Cl       2.88350778       3.97304041       4.99438214       0.00044227      -0.00062497       0.00076705
Cl       4.70698769       1.39425049       8.15274197      -0.00044294       0.00062725      -0.00076932
