9
Lattice="6.481951098908534 -1.765335151889062e-08 3.7423562271957915 2.1606503421268375 6.11124225316275 3.7423562402420667 -2.186199757920756e-08 5.196094733465626e-10 7.48471249225766" Properties=species:S:1:pos:R:3:forces:R:3 energy=-17.5720272064209 free_energy=-17.5720272064209 stress="8.412153692916036e-05 1.751956912876551e-09 6.735223934128953e-09 1.751956912876551e-09 8.412011084146798e-05 1.599523735684727e-09 6.735223934128953e-09 1.599523735684727e-09 8.41314613353461e-05" pbc="T T T"
Ni       2.16065029       1.52781082       3.74235621      -0.00000041       0.00000108      -0.00000010
Ni       6.48195115       4.58343141      11.22706821       0.00000031      -0.00000159      -0.00000226
Au      -0.00000010      -0.00000006       0.00000019       0.00000159      -0.00000024      -0.00000113
I        2.28265857       1.61408347       7.48471247      -0.00144675      -0.00102315      -0.00000018
I        6.35994292       4.49715887       7.48471263       0.00144596       0.00102182       0.00000069
I        5.34062177       1.61408342       5.71919666       0.00072310      -0.00102247      -0.00125083
I        3.30197977       4.49715866       9.25022836      -0.00072353       0.00102370       0.00125413
I        3.30197949       4.49715873       5.71919666      -0.00072401       0.00102241      -0.00125319
I        5.34062180       1.61408366       9.25022843       0.00072370      -0.00102155       0.00125280
