9
Lattice="4.203268839780465 9.972861193483802e-08 2.4267584748839828 1.4010896893591136 3.962879949002591 2.426758505932807 8.499891738868168e-08 9.813024816068634e-08 4.853516802545469" Properties=species:S:1:pos:R:3:forces:R:3 energy=-37.84354019165039 free_energy=-37.84354019165039 stress="0.00010905900126090273 -1.583948971983773e-08 -5.788730206290893e-08 -1.583948971983773e-08 0.0001089072393369861 3.471454945724872e-08 -5.788730206290893e-08 3.471454945724872e-08 0.00010913224832620472" pbc="T T T"
Ni       1.40108954       0.99072025       2.42675845      -0.00000192      -0.00000417      -0.00000168
Ni       4.20326849       2.97215958       7.28027535      -0.00000072       0.00000366       0.00000139
Be       0.00000004       0.00000007       0.00000025      -0.00000083      -0.00000072      -0.00000217
F        1.36317448       0.96390937       4.85351708       0.00004631       0.00004128      -0.00000351
F        4.24118446       2.99897087       4.85351666      -0.00004733      -0.00004119      -0.00000277
F        3.52168203       0.96390929       3.60730240      -0.00002486       0.00004336       0.00003988
F        2.08267732       2.99897057       6.09973166       0.00002170      -0.00003314      -0.00003564
F        2.08267659       2.99897110       3.60730222       0.00002542      -0.00004596       0.00004143
F        3.52168164       0.96390971       6.09973140      -0.00001737       0.00003746      -0.00003624
