9
Lattice="6.307698333631575 8.47418379023317e-10 3.6417513218068653 2.1025661129546696 5.946954992682548 3.6417513201697242 2.766342558521636e-09 -4.895708183481263e-11 7.283502638822277" Properties=species:S:1:pos:R:3:forces:R:3 energy=-19.66473960876465 free_energy=-19.66473960876465 stress="-0.00010038237815024331 -2.938607357449996e-09 -5.4425646212052925e-09 -2.938607357449996e-09 -0.00010036225285148248 2.37333019903474e-09 -5.4425646212052925e-09 2.37333019903474e-09 -0.00010036919411504641" pbc="T T T"
Ni       2.10256623       1.48673864       3.64175130      -0.00000039      -0.00000015      -0.00000003
Ni       6.30769831       4.46021627      10.92525378      -0.00000002      -0.00000037      -0.00000012
Be      -0.00000007       0.00000002       0.00000007       0.00000106       0.00000002      -0.00000017
I        2.08274689       1.47272444       7.28350262      -0.00360801      -0.00255047      -0.00000025
I        6.32751758       4.47423060       7.28350268       0.00360693       0.00255026      -0.00000002
I        5.26632484       1.47272437       5.44546298       0.00180362      -0.00254984      -0.00312366
I        3.14393964       4.47423052       9.12154229      -0.00180387       0.00255085       0.00312423
I        3.14393951       4.47423057       5.44546312      -0.00180377       0.00255039      -0.00312385
I        5.26632485       1.47272455       9.12154228       0.00180442      -0.00255073       0.00312390
