9
Lattice="5.859426774479221 -4.8438558167199016e-08 3.3829416051943304 1.953142246343331 5.524320593002884 3.382941546561072 8.612951848208062e-09 -6.572045239171545e-08 6.765883195470609" Properties=species:S:1:pos:R:3:forces:R:3 energy=-22.294116973876953 free_energy=-22.294116973876953 stress="2.7111391318612732e-05 -1.7607785229856177e-09 -2.2420429957037413e-09 -1.7607785229856177e-09 2.7124171538162045e-05 1.6836979810364028e-08 -2.2420429957037413e-09 1.6836979810364028e-08 2.7086625777883455e-05" pbc="T T T"
Ni       1.95314240       1.38108072       3.38294135       0.00000119       0.00000172      -0.00000169
Ni       5.85942568       4.14323915      10.14882497      -0.00000505      -0.00000524       0.00000032
Be      -0.00000000      -0.00000006      -0.00000002       0.00000061       0.00000021       0.00000084
Br       1.92948711       1.36435358       6.76588308       0.00187440       0.00132710       0.00000054
Br       5.88308230       4.15996723       6.76588281      -0.00187759      -0.00132867       0.00000211
Br       4.89468344       1.36435367       5.05392637      -0.00093649       0.00132820       0.00162286
Br       2.91788600       4.15996702       8.47784020       0.00094124      -0.00132893      -0.00162248
Br       2.91788603       4.15996721       5.05392645       0.00093941      -0.00132576       0.00162250
Br       4.89468321       1.36435333       8.47784016      -0.00093764       0.00133126      -0.00162500
