9
Lattice="5.413689696286435 -7.624635442520848e-08 3.1255951675912392 1.8045631614245017 5.104075523222528 3.1255951654871934 1.7674759096693295e-08 9.921003302342811e-09 6.251190304568911" Properties=species:S:1:pos:R:3:forces:R:3 energy=-25.36838150024414 free_energy=-25.36838150024414 stress="0.00010806456702994183 1.2262559856424105e-08 -2.7038876027063452e-08 1.2262559856424105e-08 0.00010809771629283205 -4.7500172684067365e-09 -2.7038876027063452e-08 -4.7500172684067365e-09 0.00010805929196067154" pbc="T T T"
Ni       1.80456340       1.27601796       3.12559592       0.00000355      -0.00000570       0.00000423
Ni       5.41369033       3.82805751       9.37678298       0.00000269       0.00000367      -0.00001503
Be       0.00000001      -0.00000002      -0.00000017      -0.00000077      -0.00000081      -0.00000016
Cl       1.77396076       1.25437986       6.25119010      -0.00552830      -0.00390774       0.00000015
Cl       5.44429163       3.84969546       6.25119142       0.00552954       0.00391154       0.00000517
Cl       4.52670875       1.25437920       4.66189049       0.00276099      -0.00391427      -0.00478508
Cl       2.69154410       3.84969630       7.84049047      -0.00276246       0.00391294       0.00478706
Cl       2.69154340       3.84969561       4.66189067      -0.00276726       0.00391030      -0.00478584
Cl       4.52670910       1.25437995       7.84049063       0.00276222      -0.00390992       0.00478914
