9
Lattice="4.830219668222719 1.882209668555637e-07 2.7887285201041156 1.6100733994280414 4.553974685500783 2.788728521436528 -3.54389899519217e-08 -2.3427266379874445e-08 5.577457101590416" Properties=species:S:1:pos:R:3:forces:R:3 energy=-27.16815185546875 free_energy=-27.16815185546875 stress="0.00016012701962608844 8.569419662762812e-08 1.0475186940084313e-07 8.569419662762812e-08 0.00016042018251027912 5.2831172325795706e-08 1.0475186940084313e-07 5.2831172325795706e-08 0.00016016392328310758" pbc="T T T"
Ni       1.61007356       1.13849126       2.78873083       0.00000147      -0.00002178       0.00001803
Ni       4.83021809       3.41548269       8.36618473      -0.00001266       0.00001414      -0.00000506
Cd      -0.00000007      -0.00000006       0.00000024      -0.00000219      -0.00000086      -0.00000638
F        1.70978328       1.20899831       5.57745603       0.00104579       0.00072905      -0.00000833
F        4.73050910       3.34497743       5.57745736      -0.00104454      -0.00072250       0.00000059
F        3.97532862       1.20899850       4.26944436      -0.00052430       0.00073379       0.00090516
F        2.46496545       3.34497665       6.88546992       0.00052629      -0.00072706      -0.00090528
F        2.46496516       3.34497545       4.26944320       0.00052670      -0.00073835       0.00090247
F        3.97532894       1.20899938       6.88546999      -0.00051653       0.00073373      -0.00090092
