9
Lattice="4.43056427774057 -5.151562290360568e-08 2.5579875024918652 1.4768547215053858 4.177176044792108 2.5579874837373455 -1.9659395516613962e-08 -3.6870787314037486e-08 5.1159750390347885" Properties=species:S:1:pos:R:3:forces:R:3 energy=-31.99149513244629 free_energy=-31.99149513244629 stress="0.0007719467976130545 4.084481641797311e-09 3.574524853888761e-08 4.084481641797311e-09 0.0007718942943029106 -4.3446785724654546e-08 3.574524853888761e-08 -4.3446785724654546e-08 0.0007718867273069918" pbc="T T T"
Ni       1.47685480       1.04429373       2.55798757       0.00000055      -0.00000302       0.00000322
Ni       4.43056445       3.13288199       7.67396297       0.00000176       0.00000137       0.00000556
Cu       0.00000008      -0.00000007      -0.00000002      -0.00000330      -0.00000116      -0.00000086
F        1.50132261       1.06159514       5.11597491      -0.00703838      -0.00497864      -0.00000033
F        4.40609606       3.11558085       5.11597488       0.00704179       0.00498279      -0.00000228
F        3.67990317       1.06159533       3.85817086       0.00352057      -0.00497538      -0.00609718
F        2.22751558       3.11558099       6.37377901      -0.00352184       0.00497648       0.00609415
F        2.22751592       3.11558062       3.85817085      -0.00352089       0.00497667      -0.00609902
F        3.67990320       1.06159522       6.37377906       0.00351973      -0.00497894       0.00609681
