9
Lattice="5.6474695636974515 2.732382087813077e-08 3.2605680904168652 1.8824898877371041 5.324485550337245 3.2605680775821395 -9.968959664247826e-09 -2.2768398047430044e-08 6.521136198100465" Properties=species:S:1:pos:R:3:forces:R:3 energy=-31.702491760253906 free_energy=-31.702491760253906 stress="0.0002924602886196226 -1.0713726794620015e-08 -1.517830638952944e-09 -1.0713726794620015e-08 0.00029246113263070583 -2.2144351630171144e-10 -1.517830638952944e-09 -2.2144351630171144e-10 0.00029243816970847547" pbc="T T T"
Ni       1.88248994       1.33112107       3.26056774       0.00000252      -0.00000061      -0.00000188
Ni       5.64746876       3.99336401       9.78170481      -0.00000563      -0.00000196       0.00000234
Cr       0.00000009       0.00000014      -0.00000038      -0.00000125      -0.00000140       0.00000391
Cl       1.85210571       1.30963661       6.52113646      -0.00211928      -0.00149894       0.00000081
Cl       5.67785361       4.01484900       6.52113616       0.00212114       0.00150065      -0.00000051
Cl       4.72141690       1.30963689       4.86453834       0.00106252      -0.00149938      -0.00183618
Cl       2.80854284       4.01484919       8.17773405      -0.00105901       0.00149957       0.00183464
Cl       2.80854326       4.01484880       4.86453828      -0.00105929       0.00150141      -0.00183830
Cl       4.72141665       1.30963650       8.17773392       0.00105827      -0.00149928       0.00183525
