9
Lattice="5.973432954210269 -7.840493997452932e-08 3.448763196091924 1.991144311005377 5.631806426495689 3.448763080293622 6.919296182082479e-08 -9.289655302009576e-08 6.897526272338134" Properties=species:S:1:pos:R:3:forces:R:3 energy=-21.230783462524414 free_energy=-21.230783462524414 stress="-0.00011555276432773098 -1.274153049735105e-08 5.648140621872244e-09 -1.274153049735105e-08 -0.00011556778918020427 -8.800376427586798e-09 5.648140621872244e-09 -8.800376427586798e-09 -0.00011556588287930936" pbc="T T T"
Ni       1.99114472       1.40795174       3.44876352       0.00000219       0.00000030       0.00000265
Ni       5.97343336       4.22385509      10.34628909       0.00000126       0.00000193      -0.00000164
C       -0.00000004       0.00000004      -0.00000001      -0.00000060       0.00000061       0.00000058
Br       1.93123698       1.36558993       6.89752631      -0.00024158      -0.00017148      -0.00000099
Br       6.03334021       4.26621610       6.89752614       0.00024220       0.00017095       0.00000067
Br       5.00781446       1.36559029       5.12126318       0.00012018      -0.00017183      -0.00020981
Br       2.95676244       4.26621591       8.67378941      -0.00012194       0.00017072       0.00020929
Br       2.95676267       4.26621546       5.12126320      -0.00012381       0.00016959      -0.00021075
Br       5.00781455       1.36559047       8.67378939       0.00012216      -0.00017084       0.00020979
