9
Lattice="6.29470661428772 4.161049838299204e-08 3.634250486454818 2.0982355820624097 5.934706252214392 3.634250478252276 2.957404062941818e-08 1.086599377433366e-08 7.268500921685885" Properties=species:S:1:pos:R:3:forces:R:3 energy=-19.697132110595703 free_energy=-19.697132110595703 stress="0.00010380242019891739 -1.5191607971587473e-08 -2.6142650266791634e-09 -1.5191607971587473e-08 0.0001038212503772229 -8.314021471278465e-09 -2.6142650266791634e-09 -8.314021471278465e-09 0.00010381590254837647" pbc="T T T"
Ni       2.09823522       1.48367613       3.63425047      -0.00000075      -0.00000154      -0.00000055
Ni       6.29470693       4.45102980      10.90275208      -0.00000004       0.00000023       0.00000111
C        0.00000012      -0.00000001       0.00000024       0.00000100       0.00000054       0.00000037
I        2.12002598       1.49908495       7.26850090      -0.00271919      -0.00192291      -0.00000028
I        6.27291600       4.43562160       7.26850060       0.00271901       0.00192231      -0.00000065
I        5.23469389       1.49908471       5.47024662       0.00136061      -0.00192261      -0.00235415
I        3.15824855       4.43562159       9.06675501      -0.00136006       0.00192341       0.00235516
I        3.15824855       4.43562176       5.47024660      -0.00135992       0.00192380      -0.00235575
I        5.23469369       1.49908473       9.06675501       0.00135945      -0.00192314       0.00235465
