9
Lattice="6.092360055384523 -2.6948876894370332e-08 3.5174257341739463 2.0307866870405924 5.743932044041293 3.5174256868541707 3.8463669075912836e-08 -3.075670157757323e-08 7.03485140172685" Properties=species:S:1:pos:R:3:forces:R:3 energy=-18.0206356048584 free_energy=-18.0206356048584 stress="0.00019000186875928193 9.10307029755586e-09 2.2647302699851934e-08 9.10307029755586e-09 0.00018999038729816675 -3.3184073267022995e-09 2.2647302699851934e-08 -3.3184073267022995e-09 0.00018998869927600026" pbc="T T T"
Ni       2.03078681       1.43598314       3.51742556       0.00000031       0.00000074      -0.00000012
Ni       6.09235959       4.30794925      10.55227608      -0.00000258      -0.00000063      -0.00000647
Cd       0.00000010       0.00000007      -0.00000031      -0.00000033      -0.00000285       0.00000242
Br       2.14564633       1.51720096       7.03485146       0.00045088       0.00031868       0.00000022
Br       5.97750040       4.22673074       7.03485184      -0.00044858      -0.00031771       0.00000329
Br       5.01953684       1.51720076       5.37561002      -0.00022569       0.00031754       0.00039200
Br       3.10361005       4.22673124       8.69409330       0.00022792      -0.00031990      -0.00039005
Br       3.10360996       4.22673093       5.37561000       0.00022393      -0.00031689       0.00038914
Br       5.01953703       1.51720088       8.69409333      -0.00022592       0.00032103      -0.00039051
