9
Lattice="5.624647061101944 -2.913834384445344e-08 3.247391501036076 1.8748823216879866 5.302968113516029 3.247391508900967 -3.042154722535897e-08 -1.1878818402570955e-08 6.494783054763843" Properties=species:S:1:pos:R:3:forces:R:3 energy=-23.42656898498535 free_energy=-23.42656898498535 stress="-0.00016490808047819883 1.4032459638713135e-08 2.3128918780201957e-09 1.4032459638713135e-08 -0.0001649154582992196 -1.4349084587195193e-08 2.3128918780201957e-09 -1.4349084587195193e-08 -0.0001649374607950449" pbc="T T T"
Ni       1.87488183       1.32574131       3.24739129      -0.00000185      -0.00000273      -0.00000139
Ni       5.62464772       3.97722660       9.74217413       0.00000182       0.00000182      -0.00000173
C       -0.00000045       0.00000197      -0.00000049      -0.00000430       0.00002057      -0.00000621
Cl       1.80587557       1.27694689       6.49478300      -0.00372022      -0.00263074      -0.00000062
Cl       5.69365305       4.02602074       6.49478329       0.00371511       0.00262683       0.00000014
Cl       4.72170924       1.27694680       4.81132554       0.00185924      -0.00262915      -0.00321873
Cl       2.77782051       4.02602073       8.17823992      -0.00185737       0.00262624       0.00321478
Cl       2.77782064       4.02602077       4.81132654      -0.00185383       0.00262169      -0.00320903
Cl       4.72170928       1.27694652       8.17824104       0.00186138      -0.00263441       0.00322305
