9
Lattice="4.183929367029037 2.65935893568828e-09 2.4155927031704025 1.3946431273442028 3.94464638466867 2.415592698850816 9.583869852673518e-09 1.4864176616509332e-09 4.831185389741074" Properties=species:S:1:pos:R:3:forces:R:3 energy=-35.020721435546875 free_energy=-35.020721435546875 stress="0.00010573455801932141 -8.062986722734422e-08 -2.8947596319994773e-08 -8.062986722734422e-08 0.00010574360203463584 -3.757092859046907e-09 -2.8947596319994773e-08 -3.757092859046907e-09 0.00010582979302853346" pbc="T T T"
Ni       1.39464306       0.98616161       2.41559279      -0.00000088      -0.00000022      -0.00000023
Ni       4.18392945       2.95848476       7.24677804      -0.00000011       0.00000012       0.00000005
C        0.00000021       0.00000005      -0.00000008      -0.00000051      -0.00000227       0.00000133
F        1.25368436       0.88648870       4.83118540      -0.00036329      -0.00025421       0.00000128
F        4.32488820       3.05815794       4.83118541       0.00036094       0.00025351       0.00000083
F        3.55708707       0.88648865       3.50131528       0.00018650      -0.00025912      -0.00031868
F        2.02148522       3.05815765       6.16105559      -0.00018364       0.00025934       0.00031540
F        2.02148529       3.05815761       3.50131521      -0.00018376       0.00026001      -0.00031647
F        3.55708714       0.88648865       6.16105548       0.00018482      -0.00025694       0.00031632
