9
Lattice="5.623378193793332 1.3251156416622627e-07 3.2466592285396785 1.8744594991847483 5.301772525679505 3.2466592695536733 -4.4912853453740425e-08 1.8473520088835717e-08 6.493318534870734" Properties=species:S:1:pos:R:3:forces:R:3 energy=-23.426530838012695 free_energy=-23.426530838012695 stress="-0.00040082185296341777 -6.684533815359828e-09 -2.3802360971103553e-08 -6.684533815359828e-09 -0.00040085651562549174 -5.60609381139443e-09 -2.3802360971103553e-08 -5.60609381139443e-09 -0.0004008170508313924" pbc="T T T"
Ni       1.87446060       1.32544251       3.24665771       0.00000559      -0.00000246      -0.00000645
Ni       5.62337776       3.97633089       9.73997471      -0.00000147       0.00000531      -0.00001164
C       -0.00000120       0.00000145      -0.00000260      -0.00001405       0.00001734      -0.00002956
Cl       1.80564596       1.27678485       6.49331941      -0.00197679      -0.00140060       0.00000326
Cl       5.69219142       4.02498753       6.49331934       0.00197763       0.00139900       0.00000340
Cl       4.72055445       1.27678464       4.81039576       0.00098646      -0.00140059      -0.00170935
Cl       2.77728315       4.02498831       8.17624326      -0.00098918       0.00140101       0.00172076
Cl       2.77728302       4.02498681       4.81039669      -0.00098201       0.00139060      -0.00169895
Cl       4.72055537       1.27678361       8.17624394       0.00099376      -0.00140973       0.00172860
