9
Lattice="6.425349342547452 6.52564426627987e-08 3.7096771241976634 2.1417831930172704 6.057877404469958 3.709677094215114 4.33523241376941e-08 -6.066224262228684e-09 7.4193541733068935" Properties=species:S:1:pos:R:3:forces:R:3 energy=-25.76795768737793 free_energy=-25.76795768737793 stress="5.602346936939284e-05 1.1290299362087808e-08 1.0679283235504045e-08 1.1290299362087808e-08 5.600611984846182e-05 -2.3198852616701515e-08 1.0679283235504045e-08 -2.3198852616701515e-08 5.600824806606397e-05" pbc="T T T"
Ni       2.14178339       1.51446905       3.70967701       0.00000084       0.00000047      -0.00000075
Ni       6.42534932       4.54340848      11.12903118      -0.00000044       0.00000054      -0.00000015
Cr       0.00000009      -0.00000013      -0.00000013      -0.00000065       0.00000111       0.00000064
I        2.14020940       1.51335621       7.41935417      -0.00074226      -0.00052541       0.00000015
I        6.42692342       4.54452123       7.41935427       0.00074080       0.00052533      -0.00000001
I        5.35524490       1.51335613       5.56315275       0.00037066      -0.00052311      -0.00064144
I        3.21188744       4.54452129       9.27555629      -0.00036946       0.00052171       0.00063888
I        3.21188763       4.54452106       5.56315230      -0.00036987       0.00052391      -0.00064101
I        5.35524473       1.51335656       9.27555573       0.00037044      -0.00052458       0.00064375
