9
Lattice="5.560484876758891 4.30661286105744e-08 3.2103474713855467 1.8534950208387828 5.24247542731433 3.21034743446509 2.6267543403610174e-08 -2.6644172246645193e-08 6.4206948972743305" Properties=species:S:1:pos:R:3:forces:R:3 energy=-23.374536514282227 free_energy=-23.374536514282227 stress="7.322101009776816e-05 2.02924486103484e-08 -6.7867471642557575e-09 2.02924486103484e-08 7.321593875531107e-05 1.0328866650866075e-09 -6.7867471642557575e-09 1.0328866650866075e-09 7.324136095121503e-05" pbc="T T T"
Ni       1.85349560       1.31061872       3.21034740       0.00000428       0.00000039       0.00000007
Ni       5.56048489       3.93185670       9.63104230      -0.00000067      -0.00000079       0.00000020
Cu      -0.00000018       0.00000018      -0.00000005       0.00000219      -0.00000475      -0.00000043
Cl       1.86895486       1.32155059       6.42069481       0.00011641       0.00008103       0.00000096
Cl       5.54502493       3.92092473       6.42069478      -0.00011528      -0.00008020      -0.00000093
Cl       4.62600748       1.32155051       4.82890960      -0.00006071       0.00008377       0.00010362
Cl       2.78797242       3.92092491       8.01248005       0.00005621      -0.00008026      -0.00009903
Cl       2.78797232       3.92092458       4.82891002       0.00005826      -0.00008154       0.00009835
Cl       4.62600745       1.32155084       8.01248028      -0.00006072       0.00008222      -0.00010309
