9
Lattice="4.945086388881899 -7.096089925984518e-08 2.8550468067312913 1.6483620907031613 4.662272125343899 2.855046758271235 4.712502307654039e-08 -2.6028768659738934e-08 5.710093531839636" Properties=species:S:1:pos:R:3:forces:R:3 energy=-35.187835693359375 free_energy=-35.187835693359375 stress="6.795879744458944e-05 1.326621656971838e-07 -2.2326332782540703e-08 1.326621656971838e-07 6.794217915739864e-05 -3.805626391795158e-08 -2.2326332782540703e-08 -3.805626391795158e-08 6.807667523389682e-05" pbc="T T T"
Ni       1.64836222       1.16556899       2.85504605       0.00000196       0.00000755      -0.00000662
Ni       4.94508429       3.49670349       8.56514237      -0.00002128      -0.00000695       0.00001975
C        0.00000011      -0.00000020      -0.00000004      -0.00000131       0.00000250      -0.00000020
S        1.51629474       1.07218148       5.71009328       0.00299241       0.00210957      -0.00000001
S        5.07715431       3.59008982       5.71009117      -0.00298559      -0.00211400      -0.00002262
S        4.18693968       1.07218285       4.16819536      -0.00149207       0.00212388       0.00258445
S        2.40650974       3.59008839       7.25199245       0.00150024      -0.00213252      -0.00258150
S        2.40651083       3.59009038       4.16819542       0.00151102      -0.00211377       0.00258546
S        4.18693818       1.07218290       7.25199236      -0.00150529       0.00212377      -0.00257863
