9
Lattice="4.5329038783230775 3.031837154661495e-08 2.6170733432545226 1.5109679734360857 4.2736628029485555 2.6170733685240775 -6.018508034924888e-08 -1.1608548760355136e-08 5.2341467907526855" Properties=species:S:1:pos:R:3:forces:R:3 energy=-39.88414764404297 free_energy=-39.88414764404297 stress="0.0004482273361645639 -3.169547824199981e-08 7.542559643525237e-08 -3.169547824199981e-08 0.0004483374650590122 -5.264326929932395e-08 7.542559643525237e-08 -5.264326929932395e-08 0.00044830149272456765" pbc="T T T"
Ni       1.51096831       1.06841528       2.61707270       0.00000511      -0.00000209      -0.00000855
Ni       4.53290399       3.20524817       7.85122013      -0.00000067       0.00000992       0.00000176
Cr      -0.00000009      -0.00000009       0.00000011      -0.00000236       0.00000371       0.00000062
F        1.52427890       1.07782737       5.23414720       0.00074214       0.00052238       0.00000333
F        4.51959299       3.19583515       5.23414681      -0.00074106      -0.00052091      -0.00000111
F        3.77076441       1.07782771       3.93713753      -0.00037095       0.00052056       0.00064281
F        2.27310723       3.19583492       6.53115605       0.00036949      -0.00052807      -0.00064412
F        2.27310740       3.19583486       3.93713753       0.00036851      -0.00052273       0.00064301
F        3.77076419       1.07782773       6.53115582      -0.00037050       0.00051728      -0.00063723
