9
Lattice="5.566418490259352 -3.4043003581854057e-08 3.2137731264854867 1.8554727973164742 5.248069592321917 3.213773127652734 -1.123165733461637e-08 -6.512372532039539e-09 6.427546272424796" Properties=species:S:1:pos:R:3:forces:R:3 energy=-26.741153717041016 free_energy=-26.741153717041016 stress="0.00010068710253108293 1.52017172183605e-08 -1.6718843198759714e-08 1.52017172183605e-08 0.00010068151459563524 -1.5376128814637013e-08 -1.6718843198759714e-08 -1.5376128814637013e-08 0.00010071566794067621" pbc="T T T"
Ni       1.85547285       1.31201703       3.21377319      -0.00000185      -0.00000105       0.00000150
Ni       5.56641932       3.93605271       9.64131837       0.00000531       0.00000261      -0.00000704
Co      -0.00000025      -0.00000009       0.00000011       0.00000214      -0.00000009       0.00000195
Cl       1.83293231       1.29607955       6.42754624       0.00007915       0.00005667       0.00000087
Cl       5.58895906       3.95199011       6.42754643      -0.00008172      -0.00005847       0.00000132
Cl       4.64995183       1.29607841       4.80113969      -0.00004123       0.00005470       0.00007035
Cl       2.77193905       3.95199086       8.05395325       0.00004089      -0.00005746      -0.00006986
Cl       2.77193861       3.95199068       4.80113963       0.00003949      -0.00005445       0.00007053
Cl       4.64995230       1.29607897       8.05395327      -0.00004233       0.00005729      -0.00006939
