9
Lattice="5.973738863986938 -3.1908065477121385e-08 3.448939532245088 1.9912461915885027 5.632094726961943 3.448939647121631 1.9379988140213395e-08 1.5439812385895015e-07 6.8978790309230975" Properties=species:S:1:pos:R:3:forces:R:3 energy=-21.230783462524414 free_energy=-21.230783462524414 stress="-0.00012392214557621628 2.4553477473432395e-08 -2.449564462381204e-08 2.4553477473432395e-08 -0.0001238813274540007 -3.242142199155751e-08 -2.449564462381204e-08 -3.242142199155751e-08 -0.00012386997696012259" pbc="T T T"
Ni       1.99124400       1.40802439       3.44893926      -0.00000948       0.00000217      -0.00000159
Ni       5.97374050       4.22407080      10.34681488       0.00000646      -0.00000098      -0.00001299
C        0.00000014      -0.00000128       0.00000282       0.00000241      -0.00000311       0.00000641
Br       1.93092721       1.36537274       6.89787845       0.00157669       0.00111696      -0.00000006
Br       6.03405727       4.26672266       6.89788063      -0.00157422      -0.00111264       0.00000373
Br       5.00827658       1.36537154       5.12117274      -0.00078773       0.00111403       0.00136690
Br       2.95671067       4.26672247       8.67458684       0.00078797      -0.00111686      -0.00136550
Br       2.95670872       4.26672349       5.12117203       0.00078511      -0.00111419       0.00136754
Br       5.00827518       1.36537259       8.67458561      -0.00078726       0.00111471      -0.00136440
