9
Lattice="6.3086430810425425 -5.471088758047572e-09 3.6422968103070597 2.102881015567843 5.947845732535009 3.64229682119843 -4.600054253157795e-08 -1.9188152197176556e-08 7.284593700289423" Properties=species:S:1:pos:R:3:forces:R:3 energy=-21.966228485107422 free_energy=-21.966228485107422 stress="-4.1961000533774495e-05 4.114711904534829e-10 -2.0719239657296384e-09 4.114711904534829e-10 -4.1976247302955016e-05 -3.8542293800958305e-09 -2.0719239657296384e-09 -3.8542293800958305e-09 -4.195843212073669e-05" pbc="T T T"
Ni       2.10288071       1.48696127       3.64229686      -0.00000118      -0.00000015      -0.00000002
Ni       6.30864301       4.46088450      10.92689030       0.00000007       0.00000080      -0.00000014
Co       0.00000005       0.00000016       0.00000021      -0.00000066      -0.00000028      -0.00000030
I        2.10314225       1.48714602       7.28459375      -0.00089704      -0.00063571      -0.00000001
I        6.30838179       4.46069969       7.28459360       0.00089863       0.00063600      -0.00000043
I        5.25707218       1.48714601       5.46367162       0.00044898      -0.00063559      -0.00077781
I        3.15445208       4.46069951       9.10551570      -0.00044934       0.00063554       0.00077869
I        3.15445204       4.46069941       5.46367146      -0.00044915       0.00063526      -0.00077853
I        5.25707209       1.48714628       9.10551586       0.00044966      -0.00063588       0.00077853
