9
Lattice="3.856380118344199 6.2451467904152385e-09 2.226482097324489 1.2854600474007485 3.635829995046388 2.226482093748324 4.462076733726428e-09 -1.2247260000385366e-09 4.452964186920434" Properties=species:S:1:pos:R:3:forces:R:3 energy=-40.89768981933594 free_energy=-40.89768981933594 stress="-0.0004623002896551043 -7.687654601795657e-08 3.589432040485008e-08 -7.687654601795657e-08 -0.0004626802692655474 -1.1328504712082577e-07 3.589432040485008e-08 -1.1328504712082577e-07 -0.00046238969662226737" pbc="T T T"
Ni       1.28546007       0.90895747       2.22648209       0.00000036       0.00000024       0.00000014
Ni       3.85638009       2.72687251       6.67944628       0.00000127       0.00000209       0.00000159
C        0.00000000      -0.00000001      -0.00000006      -0.00000248      -0.00000154      -0.00000222
O        1.22530109       0.86641867       4.45296416      -0.00119233      -0.00083673      -0.00000249
O        3.91653912       2.76941136       4.45296415       0.00118494       0.00083971       0.00000094
O        3.24372959       0.86641868       3.28762395       0.00059402      -0.00083721      -0.00102913
O        1.89811055       2.76941131       5.61830456      -0.00059140       0.00083661       0.00102293
O        1.89811060       2.76941132       3.28762395      -0.00059283       0.00083745      -0.00102556
O        3.24372959       0.86641872       5.61830449       0.00059974      -0.00083959       0.00103271
