9
Lattice="5.9893751635071215 3.134605618433795e-08 3.4579672745240257 1.996458391354127 5.6468371109513225 3.4579673196178033 -7.720705441168884e-08 6.347749264289051e-10 6.915934682774558" Properties=species:S:1:pos:R:3:forces:R:3 energy=-28.910659790039062 free_energy=-28.910659790039062 stress="7.052710861898959e-05 2.2651116537986127e-08 1.9348361135484993e-08 2.2651116537986127e-08 7.053776789689437e-05 2.8248278383102843e-08 1.9348361135484993e-08 2.8248278383102843e-08 7.048842962831259e-05" pbc="T T T"
Ni       1.99645898       1.41171009       3.45796719       0.00000202       0.00000779      -0.00000095
Ni       5.98937524       4.23512810      10.37390269       0.00000097       0.00000032       0.00000305
Cr       0.00000027      -0.00000019      -0.00000031      -0.00000504      -0.00000252       0.00000617
Br       1.96632432       1.39040142       6.91593468       0.00047818       0.00033635      -0.00000076
Br       6.01950884       4.25643551       6.91593449      -0.00047480      -0.00033592      -0.00000079
Br       5.00621305       1.39040127       5.16085422      -0.00023884       0.00033558       0.00041171
Br       2.97962024       4.25643551       8.67101502       0.00023860      -0.00034004      -0.00041569
Br       2.97962033       4.25643551       5.16085381       0.00023972      -0.00034052       0.00041324
Br       5.00621265       1.39040135       8.67101535      -0.00024086       0.00033896      -0.00041601
