9
Lattice="5.937006743802454 -3.272111718660838e-09 3.427732483058094 1.979002251642097 5.597463731099378 3.427732471292382 1.418319341774532e-08 -4.38095160781633e-09 6.855464941550146" Properties=species:S:1:pos:R:3:forces:R:3 energy=-24.147960662841797 free_energy=-24.147960662841797 stress="0.00016832184337545186 3.6835601235907234e-09 1.515859615608406e-08 3.6835601235907234e-09 0.000168303755344823 9.177646975722098e-10 1.515859615608406e-08 9.177646975722098e-10 0.0001683407899690792" pbc="T T T"
Ni       1.97900236       1.39936580       3.42773242       0.00000024      -0.00000088       0.00000019
Ni       5.93700702       4.19809846      10.28319822       0.00000084       0.00000365       0.00000350
Co      -0.00000012       0.00000021       0.00000009      -0.00000001      -0.00000065       0.00000044
Br       1.96442380       1.38905711       6.85546500      -0.00000349      -0.00000403      -0.00000001
Br       5.95158519       4.20840618       6.85546453       0.00000519       0.00000390      -0.00000202
Br       4.95479488       1.38905724       5.12897338       0.00000087      -0.00000345      -0.00000515
Br       2.96121394       4.20840642       8.58195631      -0.00000318       0.00000369       0.00000394
Br       2.96121413       4.20840631       5.12897345      -0.00000171       0.00000320      -0.00000486
Br       4.95479488       1.38905714       8.58195620       0.00000115      -0.00000545       0.00000397
