9
Lattice="5.931132448998225 -4.7788565106285915e-08 3.4243408490120437 1.9770441228222224 5.591925175584048 3.424340817468568 -6.663304107034484e-09 -4.3344393586108554e-08 6.848681709565265" Properties=species:S:1:pos:R:3:forces:R:3 energy=-20.951263427734375 free_energy=-20.951263427734375 stress="0.00019032236014027148 -4.4017980371791054e-09 7.573526694670818e-09 -4.4017980371791054e-09 0.00019034233991988003 3.9242205041034595e-09 7.573526694670818e-09 3.9242205041034595e-09 0.00019031991541851312" pbc="T T T"
Ni       1.97704392       1.39798113       3.42434094      -0.00000223      -0.00000035       0.00000067
Ni       5.93113269       4.19394371      10.27302237       0.00000189      -0.00000115      -0.00000033
Cu      -0.00000016       0.00000001      -0.00000023       0.00000163       0.00000016       0.00000088
Br       1.98899559       1.40643225       6.84868175      -0.00083542      -0.00058916       0.00000058
Br       5.91918115       4.18549294       6.84868177       0.00083345       0.00058882       0.00000004
Br       4.93663473       1.40643215       5.14686155       0.00041708      -0.00058898      -0.00072315
Br       2.97154176       4.18549301       8.55050190      -0.00041766       0.00059021       0.00072190
Br       2.97154178       4.18549292       5.14686152      -0.00041708       0.00058986      -0.00072220
Br       4.93663478       1.40643214       8.55050193       0.00041831      -0.00058940       0.00072163
