9
Lattice="5.603650146058797 -2.400228224068468e-08 3.2352687446896327 1.8678833393461636 5.283172122268012 3.2352687794065873 -1.0163259187003748e-07 -2.9345661279423727e-08 6.470537665412123" Properties=species:S:1:pos:R:3:forces:R:3 energy=-29.275108337402344 free_energy=-29.275108337402344 stress="0.00022042526688892394 -1.4523777736030752e-08 5.579813500133923e-09 -1.4523777736030752e-08 0.00022040665498934686 4.892809357670558e-08 5.579813500133923e-09 4.892809357670558e-08 0.00022036787413526326" pbc="T T T"
Ni       1.86788356       1.32079296       3.23526803       0.00000189      -0.00000055      -0.00000319
Ni       5.60364950       3.96237985       9.70580833      -0.00000273       0.00000389       0.00000941
Fe       0.00000002       0.00000009      -0.00000099      -0.00000151      -0.00000378       0.00002172
Cl       1.80244244       1.27451894       6.47053734       0.00014615       0.00010297       0.00000074
Cl       5.66909088       4.00865278       6.47053682      -0.00014198      -0.00010097      -0.00000242
Cl       4.70242867       1.27451950       4.79623014      -0.00006720       0.00009675       0.00011757
Cl       2.76910462       4.00865262       8.14484569       0.00007389      -0.00010698      -0.00013046
Cl       2.76910513       4.00865265       4.79622993       0.00006941      -0.00009717       0.00011894
Cl       4.70242867       1.27451889       8.14484550      -0.00007781       0.00010644      -0.00013252
