9
Lattice="6.323548815896222 5.804067103837643e-09 3.650902357350355 2.1078495900987266 5.96189897286533 3.6509023931555533 4.126337966853747e-08 7.302988965397138e-08 7.301804643230352" Properties=species:S:1:pos:R:3:forces:R:3 energy=-24.316307067871094 free_energy=-24.316307067871094 stress="-0.00011133724183309823 -3.5034297685143656e-09 -2.7117799117348795e-09 -3.5034297685143656e-09 -0.00011135905515402555 1.4203881626428938e-08 -2.7117799117348795e-09 1.4203881626428938e-08 -0.0001113699545385316" pbc="T T T"
Ni       2.10784974       1.49047436       3.65090262       0.00000107      -0.00000097       0.00000075
Ni       6.32354869       4.47142504      10.95270745      -0.00000133       0.00000185       0.00000062
Fe      -0.00000032       0.00000001      -0.00000046       0.00000811       0.00000310       0.00000652
I        1.95648769       1.38344568       7.30180457       0.00583334       0.00412566      -0.00000017
I        6.47491136       4.57845369       7.30180446      -0.00584091      -0.00413072      -0.00000124
I        5.34530459       1.38344542       5.34527006      -0.00291730       0.00412512       0.00505410
I        3.08609364       4.57845335       9.25833947       0.00291902      -0.00412738      -0.00505709
I        3.08609360       4.57845336       5.34526988       0.00291861      -0.00412642       0.00505561
I        5.34530491       1.38344526       9.25833970      -0.00292075       0.00412980      -0.00505915
