9
Lattice="6.0505540609234565 1.6949521374477037e-07 3.49328881673537 2.0168515398897715 5.704516776431385 3.493288770927768 9.953592273645286e-09 -4.906436042303069e-08 6.9865776162305995" Properties=species:S:1:pos:R:3:forces:R:3 energy=-27.401912689208984 free_energy=-27.401912689208984 stress="-0.00011556228855624795 1.6244757716776803e-07 9.710121595674082e-09 1.6244757716776803e-07 -0.00011567179171834141 -1.7330139101545683e-08 9.710121595674082e-09 -1.7330139101545683e-08 -0.00011587571498239413" pbc="T T T"
Ni       2.01685163       1.42612933       3.49328877       0.00000074       0.00000045      -0.00000042
Ni       6.05055430       4.27838782      10.47986646      -0.00000093       0.00000039      -0.00000076
Fe      -0.00000009       0.00000000      -0.00000034      -0.00000380      -0.00000535       0.00001854
Br       1.83879838       1.30022654       6.98657776       0.00127764       0.00090370      -0.00000077
Br       6.22860682       4.40428991       6.98657767      -0.00127041      -0.00089888      -0.00000010
Br       5.13115546       1.30022611       5.08573405      -0.00064563       0.00091121       0.00111842
Br       2.93625024       4.40429085       8.88742114       0.00064804      -0.00091705      -0.00112531
Br       2.93625041       4.40429090       5.08573408       0.00064228      -0.00091124       0.00111591
Br       5.13115535       1.30022616       8.88742131      -0.00064797       0.00091667      -0.00112516
