9
Lattice="6.530622243802644 8.942376532601073e-09 3.770456579140207 2.1768741268702994 6.157129612034624 3.770456514756784 5.1252582615119087e-08 -4.2612234609283835e-08 7.5409130695083215" Properties=species:S:1:pos:R:3:forces:R:3 energy=-19.50948143005371 free_energy=-19.50948143005371 stress="0.00011561533028725535 2.6041142575650156e-09 3.894059297238073e-09 2.6041142575650156e-09 0.00011560528218979016 -5.399853453269543e-09 3.894059297238073e-09 -5.399853453269543e-09 0.00011559834820218384" pbc="T T T"
Ni       2.17687384       1.53928254       3.77045649      -0.00000169       0.00000108       0.00000012
Ni       6.53062252       4.61784697      11.31136922       0.00000129      -0.00000078      -0.00000185
Ge      -0.00000007      -0.00000016      -0.00000004      -0.00000045       0.00000046       0.00000005
I        2.27132187       1.60606717       7.54091310      -0.00118113      -0.00083433      -0.00000013
I        6.43617463       4.55106260       7.54091328       0.00118080       0.00083432       0.00000074
I        5.39496146       1.60606700       5.73747898       0.00059071      -0.00083509      -0.00102213
I        3.31253491       4.55106257       9.34434733      -0.00059035       0.00083442       0.00102262
I        3.31253492       4.55106259       5.73747886      -0.00059076       0.00083400      -0.00102206
I        5.39496161       1.60606704       9.34434743       0.00059158      -0.00083417       0.00102273
