9
Lattice="6.053979583986381 5.1561606981301694e-08 3.495266801077353 2.017993266998433 5.70774672696761 3.4952667599869507 7.27111598859819e-08 1.0892751926663423e-09 6.990533476215301" Properties=species:S:1:pos:R:3:forces:R:3 energy=-22.56006622314453 free_energy=-22.56006622314453 stress="0.00018790026661008596 9.351133201107587e-09 4.3123415949253285e-09 9.351133201107587e-09 0.00018789251043926924 -1.975980268298372e-09 4.3123415949253285e-09 -1.975980268298372e-09 0.00018791192269418389" pbc="T T T"
Ni       2.01799317       1.42693600       3.49526698      -0.00000026      -0.00000160       0.00000038
Ni       6.05397980       4.28080978      10.48580032       0.00000064      -0.00000019       0.00000208
Ge      -0.00000017      -0.00000021      -0.00000011       0.00000182       0.00000354       0.00000112
Br       1.98503300       1.40363025       6.99053346       0.00008982       0.00006370      -0.00000016
Br       6.08694008       4.30411687       6.99053346      -0.00009333      -0.00006447      -0.00000055
Br       5.06146328       1.40363038       5.21435553      -0.00004534       0.00006449       0.00007796
Br       3.01050946       4.30411695       8.76671147       0.00004614      -0.00006545      -0.00008112
Br       3.01050962       4.30411673       5.21435551       0.00004608      -0.00006429       0.00007925
Br       5.06146349       1.40363037       8.76671157      -0.00004558       0.00006412      -0.00007893
