9
Lattice="4.453811609065497 -5.290252082387975e-08 2.571409336666697 1.4846038598601088 4.199093669670974 2.5714092673005324 1.7199268572098143e-08 -7.279413183468171e-08 5.142818643543389" Properties=species:S:1:pos:R:3:forces:R:3 energy=-36.81562042236328 free_energy=-36.81562042236328 stress="0.0004795762652065605 4.180959578548027e-08 -2.0726947269622542e-08 4.180959578548027e-08 0.00047966124839149415 3.138764625987278e-08 -2.0726947269622542e-08 3.138764625987278e-08 0.0004796319408342242" pbc="T T T"
Ni       1.48460384       1.04977349       2.57140963       0.00000021       0.00000100       0.00000395
Ni       4.45381147       3.14932026       7.71422813      -0.00000016       0.00000128       0.00000329
Ge       0.00000011      -0.00000009      -0.00000013      -0.00000261      -0.00000042       0.00001432
F        1.45953370       1.03204596       5.14281857      -0.00086324      -0.00060986      -0.00000203
F        4.47888185       3.16704751       5.14281853       0.00086550       0.00061017      -0.00000182
F        3.72404479       1.03204601       3.83540238       0.00043162      -0.00061072      -0.00074957
F        2.21437063       3.16704766       6.45023477      -0.00042845       0.00060604       0.00073928
F        2.21437070       3.16704743       3.83540235      -0.00043216       0.00060929      -0.00074911
F        3.72404484       1.03204595       6.45023474       0.00042923      -0.00060695       0.00074156
