9
Lattice="5.710290961707067 9.035265935885281e-08 3.2968380985011807 1.903430400841793 5.383713939181847 3.2968381070099624 5.777542439099566e-08 5.127448721650938e-08 6.59367609693238" Properties=species:S:1:pos:R:3:forces:R:3 energy=-26.04922103881836 free_energy=-26.04922103881836 stress="0.00025268038734793663 9.736226047607488e-09 -2.459103476404323e-10 9.736226047607488e-09 0.00025264793657697737 -6.265760355006478e-09 -2.459103476404323e-10 -6.265760355006478e-09 0.0002527375763747841" pbc="T T T"
Ni       1.90343043       1.34592856       3.29683806      -0.00000053      -0.00000119       0.00000028
Ni       5.71029089       4.03778575       9.89051273       0.00000001       0.00000012      -0.00000549
Ge       0.00000013       0.00000014       0.00000011      -0.00000042      -0.00000306      -0.00000113
Cl       1.85304570       1.31030105       6.59367620      -0.00076341      -0.00053942       0.00000018
Cl       5.76067563       4.07341248       6.59367679       0.00076756       0.00054282       0.00000314
Cl       4.78376809       1.31030113       4.90162295       0.00038043      -0.00054058      -0.00066188
Cl       2.82995351       4.07341279       8.28572964      -0.00038175       0.00054037       0.00066480
Cl       2.82995317       4.07341308       4.90162306      -0.00038399       0.00054096      -0.00066420
Cl       4.78376810       1.31030135       8.28572967       0.00038212      -0.00054007       0.00066422
