9
Lattice="5.606515583304244 1.2622490486583545e-08 3.236923363419266 1.8688385197719573 5.285873733978897 3.2369233978813883 1.5968674990197752e-08 5.3498879202937195e-08 6.473846699179952" Properties=species:S:1:pos:R:3:forces:R:3 energy=-23.996267318725586 free_energy=-23.996267318725586 stress="0.00013070319255348295 1.719224052010304e-08 -1.6449724915545971e-09 1.719224052010304e-08 0.00013073449372313917 -4.247363794007697e-09 -1.6449724915545971e-09 -4.247363794007697e-09 0.00013072806177660823" pbc="T T T"
Ni       1.86883918       1.32146876       3.23692334       0.00000296       0.00000306       0.00000124
Ni       5.60651522       3.96440499       9.71077149      -0.00000098      -0.00000270       0.00000745
Mg      -0.00000009       0.00000004       0.00000000       0.00000111      -0.00000022      -0.00000362
Cl       1.92498491       1.36117036       6.47384666      -0.00022865      -0.00016075      -0.00000094
Cl       5.55036906       3.92470352       6.47384600       0.00022641       0.00016127      -0.00000386
Cl       4.64402296       1.36117022       4.90400920       0.00011299      -0.00015972      -0.00019861
Cl       2.83133113       3.92470367       8.04368392      -0.00011482       0.00016046       0.00019737
Cl       2.83133131       3.92470341       4.90400906      -0.00011235       0.00016036      -0.00019776
Cl       4.64402273       1.36117021       8.04368418       0.00011336      -0.00016185       0.00019884
