9
Lattice="4.568832282965267 -1.4102486124677023e-08 2.63781655643429 1.522944050596549 4.307536783618949 2.6378166091392936 2.8502194216426472e-08 8.470428890664958e-08 5.275633063501353" Properties=species:S:1:pos:R:3:forces:R:3 energy=-39.06795120239258 free_energy=-39.06795120239258 stress="-0.00010441428457852453 4.021171662316192e-08 5.181773676810053e-09 4.021171662316192e-08 -0.00010451359412400052 -4.70407499619796e-08 5.181773676810053e-09 -4.70407499619796e-08 -0.00010434791329316795" pbc="T T T"
Ni       1.52294626       1.07688685       2.63781557       0.00002018       0.00002145      -0.00000969
Ni       4.56882917       3.23065136       7.91344865      -0.00002797      -0.00001066      -0.00000849
Mn       0.00000019      -0.00000009       0.00000019      -0.00000598      -0.00000095       0.00001105
F        1.51255719       1.06953963       5.27563329      -0.00029835      -0.00021422       0.00000341
F        4.57921902       3.23799695       5.27563337       0.00030804       0.00021273       0.00000277
F        3.81255358       1.06953966       3.94772948       0.00015049      -0.00021327      -0.00026667
F        2.27922335       3.23799645       6.60353754      -0.00014473       0.00020330       0.00027198
F        2.27922332       3.23799665       3.94772934      -0.00014739       0.00020760      -0.00027290
F        3.81255325       1.06954005       6.60353754       0.00014573      -0.00020617       0.00026873
