9
Lattice="6.041254815315693 6.048295558797845e-08 3.4879197886681523 2.01375164166955 5.695750088659401 3.4879198241050537 -4.306527199226736e-08 1.294954441853629e-08 6.975839651927388" Properties=species:S:1:pos:R:3:forces:R:3 energy=-28.39875602722168 free_energy=-28.39875602722168 stress="0.00026002927916124463 -1.4801111447582116e-08 9.333081862905601e-09 -1.4801111447582116e-08 0.0002600163861643523 -1.1112805786694935e-08 9.333081862905601e-09 -1.1112805786694935e-08 0.0002599739527795464" pbc="T T T"
Ni       2.01375181       1.42393810       3.48791966       0.00000114       0.00000242      -0.00000150
Ni       6.04125431       4.27181268      10.46375900      -0.00000227       0.00000139      -0.00000011
Mn      -0.00000003      -0.00000023       0.00000024      -0.00000189       0.00000107      -0.00000574
Br       1.89657210       1.34107912       6.97583971      -0.00051249      -0.00036167       0.00000027
Br       6.15843467       4.35467085       6.97583976       0.00051107       0.00036046      -0.00000100
Br       5.09296824       1.34107905       5.13039929       0.00025502      -0.00036077      -0.00044148
Br       2.96203846       4.35467063       8.82128009      -0.00025567       0.00036309       0.00044255
Br       2.96203791       4.35467096       5.13039935      -0.00025412       0.00036054      -0.00044002
Br       5.09296822       1.34107951       8.82127991       0.00025919      -0.00036643       0.00044687
