9
Lattice="6.383817869990973 1.1996794250995497e-08 3.685698961061584 2.1279393000649063 6.018721194920855 3.685698963214148 -1.9617074693044642e-10 2.4976222222452195e-09 7.371397922462937" Properties=species:S:1:pos:R:3:forces:R:3 energy=-25.119686126708984 free_energy=-25.119686126708984 stress="-6.171720451675355e-05 1.0122287008584863e-08 1.070112443102289e-09 1.0122287008584863e-08 -6.172288703965023e-05 -4.392156416344051e-09 1.070112443102289e-09 -4.392156416344051e-09 -6.172695429995656e-05" pbc="T T T"
Ni       2.12793912       1.50468019       3.68569899      -0.00000013       0.00000013      -0.00000003
Ni       6.38381788       4.51404093      11.05709692      -0.00000025      -0.00000064      -0.00000184
Mn       0.00000010       0.00000018      -0.00000019       0.00000083      -0.00000109       0.00000287
I        2.09969995       1.48471227       7.37139791       0.00580654       0.00410493       0.00000006
I        6.41205715       4.53400897       7.37139794      -0.00580509      -0.00410423       0.00000093
I        5.33396796       1.48471221       5.50409244      -0.00290362       0.00410557       0.00502853
I        3.17778930       4.53400903       9.23870337       0.00290387      -0.00410619      -0.00502867
I        3.17778930       4.53400886       5.50409255       0.00290163      -0.00410488       0.00502755
I        5.33396794       1.48471219       9.23870345      -0.00290379       0.00410646      -0.00502947
