9
Lattice="5.6545733745022195 5.0802297905001426e-08 3.2646695220452164 1.884857819878714 5.331183031253685 3.2646695558528966 -2.7101653388346973e-08 2.2242090326263476e-08 6.529339091031841" Properties=species:S:1:pos:R:3:forces:R:3 energy=-31.050518035888672 free_energy=-31.050518035888672 stress="0.0004088348359800875 1.1009741562872932e-08 -1.1957648204941052e-08 1.1009741562872932e-08 0.0004088426358066499 7.2860260047491465e-09 -1.1957648204941052e-08 7.2860260047491465e-09 0.0004088283167220652" pbc="T T T"
Ni       1.88485760       1.33279612       3.26466945      -0.00000065       0.00000098      -0.00000040
Ni       5.65457249       3.99838677       9.79400849      -0.00000372      -0.00000192      -0.00000075
Mn      -0.00000006       0.00000024       0.00000015       0.00000403      -0.00000488      -0.00000261
Cl       1.84221383       1.30264183       6.52933921      -0.00614563      -0.00434636      -0.00000118
Cl       5.69721756       4.02854097       6.52933886       0.00614706       0.00434577       0.00000049
Cl       4.73346670       1.30264212       4.86007328       0.00307183      -0.00434453      -0.00532061
Cl       2.80596496       4.02854115       8.19860491      -0.00307368       0.00434890       0.00532819
Cl       2.80596480       4.02854118       4.86007338      -0.00307254       0.00434663      -0.00532484
Cl       4.73346677       1.30264207       8.19860485       0.00307317      -0.00434462       0.00532192
