9
Lattice="6.525875832661007 3.8454888473381445e-09 3.767716252709844 2.175291951095359 6.152654832449818 3.7677162470816152 -3.465204935187707e-09 -9.34343290567061e-09 7.535432511421617" Properties=species:S:1:pos:R:3:forces:R:3 energy=-18.18779945373535 free_energy=-18.18779945373535 stress="8.447628351859748e-05 -8.773350934632163e-09 -4.005716647270674e-09 -8.773350934632163e-09 8.447674917988479e-05 -1.0865279342908707e-08 -4.005716647270674e-09 -1.0865279342908707e-08 8.448866719845682e-05" pbc="T T T"
Ni       2.17529235       1.53816407       3.76771612       0.00000103       0.00000122      -0.00000015
Ni       6.52587589       4.61449077      11.30314817       0.00000038      -0.00000056      -0.00000162
Mg       0.00000011      -0.00000017      -0.00000007      -0.00000120       0.00000158       0.00000188
I        2.27975942       1.61203357       7.53543257      -0.00067519      -0.00047624       0.00000053
I        6.42140821       4.54062140       7.53543273       0.00067417       0.00047683       0.00000048
I        5.38599602       1.61203336       5.74204620       0.00033828      -0.00047819      -0.00058513
I        3.31517175       4.54062123       9.32881921      -0.00033730       0.00047555       0.00058322
I        3.31517152       4.54062142       5.74204594      -0.00033724       0.00047705      -0.00058417
I        5.38599588       1.61203362       9.32881914       0.00033715      -0.00047721       0.00058497
