9
Lattice="4.344625228589366 -8.161445358946332e-08 2.508370501834031 1.4482083370899257 4.096151954449299 2.5083704940277247 -2.2188161753225827e-09 -1.1129685042009444e-08 5.016741007511154" Properties=species:S:1:pos:R:3:forces:R:3 energy=-34.539894104003906 free_energy=-34.539894104003906 stress="7.439498585881665e-05 5.5314636426828656e-08 -3.285334670977136e-08 5.5314636426828656e-08 7.435876614181325e-05 -3.4469476162257706e-08 -3.285334670977136e-08 -3.4469476162257706e-08 7.442243804689497e-05" pbc="T T T"
Ni       1.44820799       1.02403849       2.50837026      -0.00000378       0.00000285      -0.00000146
Ni       4.34462464       3.07211312       7.52511146      -0.00000570      -0.00000548       0.00000192
Mg      -0.00000004       0.00000001      -0.00000011       0.00000438      -0.00000277       0.00000691
F        1.48457327       1.04975168       5.01674101       0.00018315       0.00012830       0.00000304
F        4.30826052       3.04640009       5.01674100      -0.00018183      -0.00012945      -0.00000135
F        3.60233882       1.04975215       3.79404840      -0.00008696       0.00013180       0.00015417
F        2.19049517       3.04639975       6.23943382       0.00009236      -0.00013320      -0.00015547
F        2.19049498       3.04640016       3.79404879       0.00008924      -0.00012338       0.00015310
F        3.60233892       1.04975188       6.23943333      -0.00009071       0.00013123      -0.00016076
