9
Lattice="5.879284747716939 5.987215302984521e-11 3.394406603773886 1.9597615748043393 5.54304283979675 3.394406617326188 3.900093275882138e-08 4.417590944695999e-08 6.788813139996218" Properties=species:S:1:pos:R:3:forces:R:3 energy=-33.540122985839844 free_energy=-33.540122985839844 stress="7.59813774493523e-05 -2.735538195963727e-08 3.267717207933174e-09 -2.735538195963727e-08 7.597640797030181e-05 -9.265696654381372e-09 3.267717207933174e-09 -9.265696654381372e-09 7.59812246542424e-05" pbc="T T T"
Ni       1.95976208       1.38576049       3.39440632       0.00000221      -0.00000103      -0.00000134
Ni       5.87928489       4.15728212      10.18321877      -0.00000004       0.00000052      -0.00000211
Nb      -0.00000009       0.00000016      -0.00000015      -0.00000346      -0.00000069       0.00000404
Cl       1.94279875       1.37376647       6.78881335      -0.00024599      -0.00017343      -0.00000033
Cl       5.89624705       4.16927656       6.78881339       0.00024852       0.00017558       0.00000072
Cl       4.90788511       1.37376640       5.07692001       0.00012504      -0.00017741      -0.00021546
Cl       2.93116103       4.16927639       8.50070677      -0.00012410       0.00017609       0.00021490
Cl       2.93116133       4.16927630       5.07692024      -0.00012653       0.00017704      -0.00021638
Cl       4.90788529       1.37376671       8.50070678       0.00012439      -0.00017677       0.00021611
