9
Lattice="6.701843907210958 2.5769952801434904e-09 3.8693114342891892 2.233947932004235 6.318559240070278 3.869311502697771 -4.415020535642975e-08 5.2564087909216724e-08 7.738622945048833" Properties=species:S:1:pos:R:3:forces:R:3 energy=-26.452632904052734 free_energy=-26.452632904052734 stress="0.00010432788985781372 -2.1715926834531274e-08 4.862324765042558e-09 -2.1715926834531274e-08 0.00010434131399961188 2.948440380734496e-09 4.862324765042558e-09 2.948440380734496e-09 0.00010435878357384354" pbc="T T T"
Ni       2.23394784       1.57963981       3.86931159      -0.00000051      -0.00000022       0.00000058
Ni       6.70184391       4.73891928      11.60793474       0.00000037      -0.00000082       0.00000122
Nb      -0.00000005      -0.00000033      -0.00000002      -0.00000059       0.00000430      -0.00000172
I        2.24953173       1.59065946       7.73862287      -0.00114281      -0.00080769      -0.00000043
I        6.68625999       4.72789992       7.73862274       0.00114078       0.00080687      -0.00000045
I        5.57707782       1.59065971       5.81746351       0.00057315      -0.00080946      -0.00099264
I        3.35871402       4.72789995       9.65978229      -0.00057203       0.00080925       0.00099092
I        3.35871398       4.72789993       5.81746338      -0.00057121       0.00080806      -0.00099021
I        5.57707792       1.59065945       9.65978244       0.00057281      -0.00081030       0.00099269
