9
Lattice="4.63108832068549 -1.4606658485249372e-07 2.6737600401013584 1.5436959801995385 4.366231730716293 2.6737600210188535 -1.55352017028203e-09 -2.4469682409055333e-08 5.347520082893534" Properties=species:S:1:pos:R:3:forces:R:3 energy=-43.44837188720703 free_energy=-43.44837188720703 stress="-0.000140501739224419 -4.4374406371616715e-08 -4.427398447859332e-09 -4.4374406371616715e-08 -0.00014051585458219051 -2.9737215356817615e-08 -4.427398447859332e-09 -2.9737215356817615e-08 -0.00014048468437977135" pbc="T T T"
Ni       1.54369641       1.09155730       2.67376016       0.00000408      -0.00000444       0.00000004
Ni       4.63108841       3.27467403       8.02127998       0.00000096       0.00000255       0.00000135
Nb      -0.00000020      -0.00000015      -0.00000004       0.00000379       0.00000295      -0.00000596
F        1.60206052       1.13282781       5.34752000      -0.00096279      -0.00067922      -0.00000055
F        4.57272371       3.23340386       5.34752000       0.00095555       0.00067672      -0.00000190
F        3.83005797       1.13282763       4.06118525       0.00047943      -0.00067940      -0.00083414
F        2.34472653       3.23340371       6.63385509      -0.00048311       0.00068513       0.00083542
F        2.34472614       3.23340422       4.06118522      -0.00047995       0.00067797      -0.00082943
F        3.83005770       1.13282794       6.63385487       0.00048208      -0.00068197       0.00083500
