9
Lattice="6.406057965815636 3.634575035489693e-08 3.6985392093881857 2.1353526929104345 6.039689271684542 3.6985392035486515 1.9859079955671178e-08 6.890545032790456e-09 7.397078384379426" Properties=species:S:1:pos:R:3:forces:R:3 energy=-20.865070343017578 free_energy=-20.865070343017578 stress="4.391289621707983e-05 2.702111645547234e-09 -1.0867990063445632e-08 2.702111645547234e-09 4.3920474126935005e-05 3.1315543491672315e-09 -1.0867990063445632e-08 3.1315543491672315e-09 4.391506445244886e-05" pbc="T T T"
Ni       2.13535274       1.50992225       3.69853906       0.00000136      -0.00000029      -0.00000056
Ni       6.40605788       4.52976693      11.09561783      -0.00000092       0.00000049       0.00000222
Pd       0.00000011       0.00000014      -0.00000034       0.00000120       0.00000126       0.00000369
I        2.18948485       1.54819951       7.39707834      -0.00407326      -0.00288036       0.00000018
I        6.35192567       4.49148977       7.39707820       0.00407166       0.00287943      -0.00000046
I        5.31131566       1.54819962       5.59468844       0.00203720      -0.00288058      -0.00352821
I        3.23009487       4.49148999       9.19946855      -0.00203589       0.00287840       0.00352546
I        3.23009525       4.49148981       5.59468857      -0.00203632       0.00288067      -0.00352771
I        5.31131567       1.54819925       9.19946854       0.00203497      -0.00287907       0.00352544
