9
Lattice="6.069230250937998 2.9725697926357378e-08 3.504071751590499 2.0230768866256676 5.722124597319213 3.5040715640312636 2.329648573544053e-07 -6.498114974302964e-08 7.008143099674033" Properties=species:S:1:pos:R:3:forces:R:3 energy=-22.043312072753906 free_energy=-22.043312072753906 stress="0.0003264328988734633 1.423321571714098e-09 -8.323948752497756e-10 1.423321571714098e-09 0.0003264617989771068 -2.5930613212210574e-09 -8.323948752497756e-10 -2.5930613212210574e-09 0.0003264500410296023" pbc="T T T"
Ni       2.02307696       1.43053135       3.50407165       0.00000023       0.00000130       0.00000044
Ni       6.06923117       4.29159268      10.51221544       0.00000271      -0.00000370       0.00000280
P       -0.00000042       0.00000056      -0.00000053      -0.00000073       0.00000128      -0.00000073
Br       2.01903604       1.42767481       7.00814324       0.00258251       0.00182824       0.00000013
Br       6.07327108       4.29444992       7.00814287      -0.00258282      -0.00182774      -0.00000156
Br       5.05971196       1.42767385       5.25260794      -0.00129285       0.00182793       0.00223738
Br       3.03259493       4.29445062       8.76367802       0.00129116      -0.00182673      -0.00223798
Br       3.03259548       4.29445052       5.25260863       0.00129221      -0.00182737       0.00223687
Br       5.05971241       1.42767400       8.76367849      -0.00129233       0.00182685      -0.00223735
