9
Lattice="5.707917088299039 4.681372012653881e-08 3.295467437900254 1.9026390801438733 5.381475901613632 3.2954674265129755 6.945621290579264e-09 -9.035222964436919e-09 6.5909348637703395" Properties=species:S:1:pos:R:3:forces:R:3 energy=-24.875137329101562 free_energy=-24.875137329101562 stress="0.00039652176201343536 -5.223104171392379e-09 3.367237599860573e-09 -5.223104171392379e-09 0.0003965285432059318 -8.841521292879406e-09 3.367237599860573e-09 -8.841521292879406e-09 0.00039654053398407996" pbc="T T T"
Ni       1.90263860       1.34536923       3.29546684      -0.00000241       0.00000278      -0.00000237
Ni       5.70791771       4.03610730       9.88640314       0.00000252       0.00000350       0.00000483
Pd      -0.00000012       0.00000014      -0.00000012      -0.00000104       0.00000037       0.00000325
Cl       1.91230702       1.35220538       6.59093495      -0.00131553      -0.00093065       0.00000090
Cl       5.69824943       4.02927031       6.59093448       0.00131562       0.00092776      -0.00000141
Cl       4.75176357       1.35220535       4.95157408       0.00065917      -0.00093126      -0.00114012
Cl       2.85879230       4.02927027       8.23029578      -0.00065748       0.00092825       0.00113750
Cl       2.85879268       4.02927085       4.95157412      -0.00065914       0.00093253      -0.00114036
Cl       4.75176350       1.35220489       8.23029560       0.00065824      -0.00093332       0.00113782
