9
Lattice="5.460611506310279 -1.7546943412956323e-07 3.1526855184651037 1.8202036176059841 5.148314176417764 3.1526856092186066 -2.943393663324506e-08 9.033695830449603e-08 6.305371087911261" Properties=species:S:1:pos:R:3:forces:R:3 energy=-34.03403091430664 free_energy=-34.03403091430664 stress="-0.000353185081621632 3.574115581272963e-08 7.590752026942482e-09 3.574115581272963e-08 -0.00035319567541591823 1.3346760141530467e-08 7.590752026942482e-09 1.3346760141530467e-08 -0.0003531601105351001" pbc="T T T"
Ni       1.82020311       1.28707682       3.15268591      -0.00000685      -0.00001357       0.00000275
Ni       5.46061416       3.86123651       9.45805651       0.00001975       0.00000953      -0.00000291
P       -0.00000003      -0.00000008      -0.00000016       0.00000136       0.00000195      -0.00000290
S        1.76547618       1.24838325       6.30537071       0.00432920       0.00308222      -0.00000166
S        5.51533447       3.89993661       6.30537188      -0.00435483      -0.00304675       0.00000211
S        4.57787492       1.24837939       4.68163664      -0.00215721       0.00305951       0.00377399
S        2.70294250       3.89993317       7.92910817       0.00217009      -0.00306803      -0.00375658
S        2.70294128       3.89993180       4.68163402       0.00216419      -0.00307745       0.00375772
S        4.57787382       1.24837885       7.92910528      -0.00216538       0.00305241      -0.00377321
