9
Lattice="4.642866788103532 1.4842699850314284e-08 2.6805604308339266 1.5476222592513158 4.377336867998482 2.6805604610472815 7.016626633856262e-09 4.196515439402924e-08 5.361120849514719" Properties=species:S:1:pos:R:3:forces:R:3 energy=-31.423856735229492 free_energy=-31.423856735229492 stress="-0.00010777456918731332 -3.143029658758678e-08 3.7971634725408876e-08 -3.143029658758678e-08 -0.00010775020200526342 -2.584041070008425e-08 3.7971634725408876e-08 -2.584041070008425e-08 -0.00010762983583845198" pbc="T T T"
Ni       1.54762319       1.09433545       2.68056101       0.00000889       0.00001323       0.00000443
Ni       4.64286659       3.28300337       8.04168193      -0.00000417       0.00000644       0.00000810
Pd       0.00000002      -0.00000029       0.00000016       0.00000061       0.00001126       0.00000852
F        1.60041850       1.13166613       5.36112063       0.00012939       0.00008573      -0.00000096
F        4.59007081       3.24567039       5.36112064      -0.00013176      -0.00009639      -0.00000515
F        3.84265742       1.13166674       4.06656320      -0.00006363       0.00008745       0.00010417
F        2.34783114       3.24566975       6.65567852       0.00006327      -0.00009888      -0.00011411
F        2.34783115       3.24566964       4.06656290       0.00006236      -0.00009486       0.00010507
F        3.84265745       1.13166660       6.65567839      -0.00006499       0.00008606      -0.00010961
