9
Lattice="5.378971202152847 -1.2357907111924402e-08 3.1055504363933997 1.792990395514759 5.071342572444227 3.1055504252246466 7.964528087545815e-09 -8.047110920321665e-09 6.211100858991828" Properties=species:S:1:pos:R:3:forces:R:3 energy=-32.44078063964844 free_energy=-32.44078063964844 stress="-0.00025263175484724343 1.4959633531930194e-08 -3.869347897644815e-10 1.4959633531930194e-08 -0.0002525940362829715 1.197557253362902e-08 -3.869347897644815e-10 1.197557253362902e-08 -0.000252655241638422" pbc="T T T"
Ni       1.79299014       1.26783558       3.10555053      -0.00000090      -0.00000040       0.00000127
Ni       5.37897133       3.80350700       9.31665090      -0.00000097       0.00000110      -0.00000063
P        0.00000010       0.00000018       0.00000016      -0.00000080      -0.00000089      -0.00000025
Se       2.05231635       1.45120678       6.21110090       0.00053599       0.00037903      -0.00000021
Se       5.11964515       3.62013573       6.21110093      -0.00053480      -0.00037938      -0.00000034
Se       4.35281300       1.45120664       4.88290853      -0.00026752       0.00037901       0.00046478
Se       2.81914873       3.62013580       7.53929315       0.00026747      -0.00037740      -0.00046387
Se       2.81914848       3.62013571       4.88290853       0.00026800      -0.00037961       0.00046498
Se       4.35281314       1.45120678       7.53929321      -0.00026643       0.00037847      -0.00046586
