9
Lattice="3.813093841297498 -8.927006321316883e-09 2.201490783955763 1.2710312417910623 3.5950193539322854 2.2014908363069554 -3.8013239851539074e-08 3.723743574232752e-08 4.402981633752389" Properties=species:S:1:pos:R:3:forces:R:3 energy=-47.124412536621094 free_energy=-47.124412536621094 stress="-6.143373525446805e-07 1.4966671812999266e-07 -1.0058720967265344e-08 1.4966671812999266e-07 -1.1954734873143025e-06 2.4422999445050664e-07 -1.0058720967265344e-08 2.4422999445050664e-07 -3.7621919091179734e-07" pbc="T T T"
Ni       1.27103137       0.89875484       2.20149083      -0.00000875      -0.00000074      -0.00000231
Ni       3.81309367       2.69626455       6.60447247       0.00000824       0.00000139      -0.00000414
P        0.00000009      -0.00000009      -0.00000011      -0.00001414       0.00001520       0.00000630
O        1.34392003       0.95029504       4.40298175      -0.00004065      -0.00002146       0.00000492
O        3.74020507       2.64472442       4.40298157       0.00002503       0.00002289       0.00000422
O        3.14113364       0.95029510       3.36535968       0.00003934      -0.00004208      -0.00003219
O        1.94299114       2.64472436       5.44060358      -0.00000721       0.00002384       0.00001764
O        1.94299134       2.64472435       3.36535967      -0.00002420       0.00002885      -0.00001860
O        3.14113370       0.95029488       5.44060357       0.00002199      -0.00002849       0.00002563
