9
Lattice="4.962688724913024 1.3148614798558977e-08 2.8652094709791274 1.654229577238722 4.678868156869165 2.865209488522884 -2.620471307660442e-07 -1.6380866777397158e-07 5.730419395837293" Properties=species:S:1:pos:R:3:forces:R:3 energy=-33.997642517089844 free_energy=-33.997642517089844 stress="9.81243938440457e-05 -1.8329618001189374e-07 2.4287260202981997e-07 -1.8329618001189374e-07 9.799785766517743e-05 6.719916001429738e-08 2.4287260202981997e-07 6.719916001429738e-08 9.823488653637469e-05" pbc="T T T"
Ni       1.65422847       1.16971674       2.86520952      -0.00000200      -0.00000306      -0.00000156
Ni       4.96268786       3.50915076       8.59563329      -0.00001083      -0.00000528       0.00003998
Si       0.00000107      -0.00000139       0.00000300      -0.00001116       0.00000975      -0.00004192
S        1.76010748       1.24458338       5.73041894      -0.00461534      -0.00327134       0.00000120
S        4.85680980       3.43428466       5.73041488       0.00462404       0.00327579      -0.00005255
S        4.08263593       1.24458382       4.38950663       0.00231308      -0.00326002      -0.00399888
S        2.53428326       3.43428107       7.07132990      -0.00232945       0.00325081       0.00401850
S        2.53428586       3.43428596       4.38950667      -0.00227397       0.00327730      -0.00399485
S        4.08263255       1.24458718       7.07133056       0.00230556      -0.00327396       0.00402987
