9
Lattice="4.200799428754181 -8.436482116434469e-10 2.4253328430706853 1.4002664413494639 3.9605518337318677 2.4253329021449166 1.548950801624458e-08 8.330360988904493e-08 4.8506656593127335" Properties=species:S:1:pos:R:3:forces:R:3 energy=-41.05061340332031 free_energy=-41.05061340332031 stress="0.00027323837275616825 -2.292866341235822e-08 -2.482690604210802e-07 -2.292866341235822e-08 0.0002730793203227222 -2.2084699935476237e-07 -2.482690604210802e-07 -2.2084699935476237e-07 0.0002730795240495354" pbc="T T T"
Ni       1.40026648       0.99013601       2.42533578       0.00000455      -0.00002006       0.00002866
Ni       4.20080118       2.97041628       7.27599385       0.00001917       0.00002641      -0.00005434
S       -0.00000014      -0.00000003       0.00000012       0.00000826       0.00000658       0.00001580
O        1.31778702       0.93181634       4.85066510      -0.00001574      -0.00000954      -0.00000433
O        4.28327875       3.02873570       4.85066774       0.00000119       0.00000119       0.00001600
O        3.54190451       0.93181519       3.56657025      -0.00000226      -0.00002015      -0.00000489
O        2.05916024       3.02873628       6.13476131      -0.00000095       0.00001073       0.00000155
O        2.05915941       3.02873616       3.56657081      -0.00001287       0.00000978       0.00000429
O        3.54190619       0.93181581       6.13476111       0.00000083      -0.00000381      -0.00000226
