9
Lattice="5.659019717346607 -7.384192756245983e-08 3.2672366092277527 1.8863398424402178 5.335374840581187 3.267236598355953 -2.0847041493205932e-08 -2.805627123980964e-08 6.534473254563634" Properties=species:S:1:pos:R:3:forces:R:3 energy=-28.349105834960938 free_energy=-28.349105834960938 stress="-4.319296567700803e-05 -9.111087884150493e-09 -1.5125404928539865e-08 -9.111087884150493e-09 -4.3230153096374124e-05 6.996635271150353e-09 -1.5125404928539865e-08 6.996635271150353e-09 -4.319771323935129e-05" pbc="T T T"
Ni       1.88633963       1.33384358       3.26723685      -0.00000082      -0.00000011       0.00000102
Ni       5.65901958       4.00153138       9.80170937      -0.00000125       0.00000278      -0.00000306
Si      -0.00000005      -0.00000003       0.00000014      -0.00000013      -0.00000113      -0.00000033
Cl       1.80509948       1.27639765       6.53447317       0.00091562       0.00064693      -0.00000007
Cl       5.74026012       4.05897700       6.53447343      -0.00091378      -0.00064779       0.00000204
Cl       4.75646999       1.27639793       4.83049865      -0.00045600       0.00064532       0.00079110
Cl       2.78888960       4.05897679       8.23844779       0.00045654      -0.00064679      -0.00079010
Cl       2.78888954       4.05897697       4.83049874       0.00045670      -0.00064678       0.00079266
Cl       4.75647013       1.27639769       8.23844789      -0.00045678       0.00064763      -0.00079332
