9
Lattice="5.732617913985055 1.264583582577905e-07 3.3097286753856836 1.9108727215191228 5.404764000319358 3.309728737223308 4.17235137162605e-08 1.0523830212771125e-07 6.61945727850418" Properties=species:S:1:pos:R:3:forces:R:3 energy=-31.37975311279297 free_energy=-31.37975311279297 stress="0.0003582546778488904 -7.93596210968417e-09 1.3781180641103674e-08 -7.93596210968417e-09 0.0003581905330065638 -2.156065370684246e-08 1.3781180641103674e-08 -2.156065370684246e-08 0.0003582567151170224" pbc="T T T"
Ni       1.91087278       1.35119120       3.30972859       0.00000004       0.00000012      -0.00000043
Ni       5.73261819       4.05357305       9.92918639       0.00000260       0.00000107       0.00000510
Sc       0.00000004      -0.00000026      -0.00000058      -0.00000159       0.00000653       0.00001233
Cl       1.97082426       1.39358337       6.61945712      -0.00316516      -0.00223617       0.00000036
Cl       5.67266632       4.01118083       6.61945709       0.00316209       0.00223619      -0.00000060
Cl       4.74720596       1.39358405       5.01651298       0.00158477      -0.00224008      -0.00274540
Cl       2.89628489       4.01118099       8.22240225      -0.00157935       0.00223050       0.00273255
Cl       2.89628474       4.01118094       5.01651282      -0.00158294       0.00223952      -0.00274143
Cl       4.74720559       1.39358277       8.22240208       0.00157950      -0.00223763       0.00273760
