9
Lattice="6.163284942187237 9.259692292401404e-08 3.558374274039988 2.0544284223659037 5.81080124633795 3.558374237662974 8.757621252400701e-10 -4.3933294659429484e-08 7.116748546563077" Properties=species:S:1:pos:R:3:forces:R:3 energy=-28.953189849853516 free_energy=-28.953189849853516 stress="-5.958620022283867e-06 -9.247997034833588e-09 3.749495380844792e-09 -9.247997034833588e-09 -5.979431989544537e-06 -2.666406651030684e-09 3.749495380844792e-09 -2.666406651030684e-09 -5.959892405371647e-06" pbc="T T T"
Ni       2.05442769       1.45269977       3.55837428      -0.00000220      -0.00000273       0.00000003
Ni       6.16328500       4.35809918      10.67512194      -0.00000057      -0.00000618      -0.00000257
Si      -0.00000002       0.00000002       0.00000003       0.00000260       0.00000115       0.00000495
Te       2.13149425       1.50719470       7.11674842       0.00019997       0.00014543      -0.00000011
Te       6.08621933       4.30360777       7.11674921      -0.00020562      -0.00014409       0.00000174
Te       5.09753801       1.50719448       5.40430254      -0.00009838       0.00014488       0.00017485
Te       3.12017585       4.30360770       8.82919455       0.00010406      -0.00014346      -0.00017750
Te       3.12017563       4.30360722       5.40430262       0.00010110      -0.00014193       0.00017541
Te       5.09753777       1.50719433       8.82919469      -0.00010090       0.00014693      -0.00017680
