9
Lattice="4.421100428067134 -9.722414150881961e-09 2.552523649992315 1.4737001426291174 4.168253247922866 2.552523634219494 -6.460725590410866e-08 -6.5001908513642e-08 5.105047411887684" Properties=species:S:1:pos:R:3:forces:R:3 energy=-31.24454116821289 free_energy=-31.24454116821289 stress="0.0005204189219512045 9.713595972016265e-08 -3.400730363978255e-08 9.713595972016265e-08 0.0005203976761549711 9.831595804143944e-08 -3.400730363978255e-08 9.831595804143944e-08 0.0005202996544539928" pbc="T T T"
Ni       1.47370055       1.04206430       2.55252436       0.00000005       0.00000275       0.00000235
Ni       4.42109757       3.12619029       7.65757211      -0.00000635       0.00000201       0.00000105
S        0.00000022      -0.00000041      -0.00000027       0.00000294       0.00000032       0.00000511
F        1.49334325       1.05595148       5.10504766      -0.00496097      -0.00351105      -0.00000223
F        4.40145847       3.11230120       5.10504686       0.00496420       0.00351055      -0.00000248
F        3.67442979       1.05595232       3.84579556       0.00247968      -0.00350720      -0.00429799
F        2.22037157       3.11230011       6.36429905      -0.00248062       0.00350666       0.00429657
F        2.22037095       3.11230113       3.84579531      -0.00247959       0.00350228      -0.00429525
F        3.67442960       1.05595228       6.36429814       0.00248075      -0.00350628       0.00429289
