9
Lattice="5.377939393903901 8.83409049258057e-08 3.1049548059855185 1.7926465329180996 5.070369790655944 3.1049548319752005 5.065205273188929e-08 6.764711836389185e-08 6.209909524239134" Properties=species:S:1:pos:R:3:forces:R:3 energy=-32.01210021972656 free_energy=-32.01210021972656 stress="-0.000149878891534172 -2.8165787480105564e-09 -1.9306973797483806e-08 -2.8165787480105564e-09 -0.0001498889469075948 -1.6033327554509924e-08 -1.9306973797483806e-08 -1.6033327554509924e-08 -0.00014989472401794046" pbc="T T T"
Ni       1.79264671       1.26759216       3.10495426       0.00000294      -0.00000296      -0.00000374
Ni       5.37793965       3.80277714       9.31486603       0.00000189      -0.00000228       0.00001025
Si       0.00000009       0.00000003      -0.00000014       0.00000091       0.00000092       0.00000066
Se       2.01350553       1.42376362       6.20990985      -0.00514020      -0.00363346       0.00000163
Se       5.15708037       3.64660681       6.20990901       0.00513664       0.00363488      -0.00000405
Se       4.37118673       1.42376367       4.84870149       0.00256957      -0.00363218      -0.00445155
Se       2.79939877       3.64660635       7.57111724      -0.00257126       0.00363329       0.00444890
Se       2.79939939       3.64660659       4.84870144      -0.00256839       0.00363489      -0.00445162
Se       4.37118665       1.42376343       7.57111748       0.00256784      -0.00363311       0.00444950
