9
Lattice="6.130305610557665 1.0363553016738527e-07 3.5393336937819124 2.0434353047807106 5.7797075595770435 3.539333687627963 1.7358802795591333e-08 4.7374803593810245e-09 7.078667357497485" Properties=species:S:1:pos:R:3:forces:R:3 energy=-28.25935935974121 free_energy=-28.25935935974121 stress="0.0001507599517935887 1.2685724470884452e-08 -6.4697363022503396e-09 1.2685724470884452e-08 0.00015073598478920758 -3.737329196118466e-11 -6.4697363022503396e-09 -3.737329196118466e-11 0.00015075762348715216" pbc="T T T"
Ni       2.04343602       1.44492652       3.53933403       0.00000231      -0.00000177       0.00000214
Ni       6.13030568       4.33477956      10.61800110       0.00000021      -0.00000386       0.00000019
Sc      -0.00000010       0.00000029      -0.00000029      -0.00000142       0.00000021       0.00000323
Br       2.10332204       1.48727379       7.07866732      -0.00015146      -0.00010457      -0.00000028
Br       6.07041876       4.29243425       7.07866730       0.00015061       0.00010788      -0.00000025
Br       5.07864439       1.48727366       5.36086394       0.00007530      -0.00010690      -0.00013278
Br       3.09509602       4.29243475       8.79647088      -0.00007411       0.00010570       0.00012768
Br       3.09509639       4.29243428       5.36086392      -0.00007533       0.00010679      -0.00013030
Br       5.07864454       1.48727356       8.79647077       0.00007391      -0.00010352       0.00013033
