9
Lattice="5.295820917769442 -4.85441721595693e-09 3.057543728740441 1.7652735947176763 4.992947768537489 3.057543797956784 -1.1810317529220534e-08 7.642119450107126e-08 6.115087477936962" Properties=species:S:1:pos:R:3:forces:R:3 energy=-30.1610164642334 free_energy=-30.1610164642334 stress="-0.0003338207316119224 -1.209650157818487e-09 -1.9005820917072924e-08 -1.209650157818487e-09 -0.000333845557179302 6.041879885287926e-08 -1.9005820917072924e-08 6.041879885287926e-08 -0.00033387975418008864" pbc="T T T"
Ni       1.76527395       1.24823668       3.05754356       0.00000336      -0.00000180      -0.00000232
Ni       5.29582083       3.74471152       9.17263146      -0.00000070       0.00000394       0.00000141
Se       0.00000030       0.00000010       0.00000005      -0.00000381       0.00000045      -0.00000069
S        1.77359773       1.25412294       6.11508706       0.00477715       0.00337686      -0.00000287
S        5.28749663       3.73882539       6.11508673      -0.00477426      -0.00337115      -0.00000576
S        4.40902193       1.25412266       4.59352465      -0.00238740       0.00337049       0.00413555
S        2.65207246       3.73882421       7.63665122       0.00238790      -0.00337949      -0.00413127
S        2.65207268       3.73882527       4.59352431       0.00238983      -0.00337538       0.00413971
S        4.40902152       1.25412262       7.63665111      -0.00239195       0.00337607      -0.00413361
