9
Lattice="4.396725722593645 -4.3164366360785945e-07 2.5384505877208507 1.4655751611166774 4.145271154285654 2.5384500209770655 2.7989140790034263e-07 -4.962034630367084e-07 5.07690069065559" Properties=species:S:1:pos:R:3:forces:R:3 energy=-41.359161376953125 free_energy=-41.359161376953125 stress="-2.9700067898374982e-05 -2.7676778202589958e-08 -4.024083732900863e-09 -2.7676778202589958e-08 -2.9735256248386577e-05 6.28645580036391e-08 -4.024083732900863e-09 6.28645580036391e-08 -2.9796648959745653e-05" pbc="T T T"
Ni       1.46557543       1.03631762       2.53844984      -0.00000153       0.00000143      -0.00000067
Ni       4.39672539       3.10895254       7.61535111      -0.00000235      -0.00000031      -0.00000131
Si       0.00000010       0.00000011       0.00000005       0.00000240      -0.00001040       0.00000789
F        1.37416411       0.97168001       5.07690077       0.00074040       0.00052214      -0.00000057
F        4.48813692       3.17359019       5.07690074      -0.00073230      -0.00051848      -0.00000212
F        3.70964380       0.97167993       3.72851138      -0.00036985       0.00052273       0.00064106
F        2.15265749       3.17359025       6.42528998       0.00036640      -0.00052009      -0.00063685
F        2.15265718       3.17359072       3.72851077       0.00036791      -0.00051995       0.00063634
F        3.70964400       0.97167966       6.42529072      -0.00037111       0.00052308      -0.00064360
