9
Lattice="4.611553977096911 1.972984941441976e-07 2.662482086495053 1.5371847165669097 4.347815142680827 2.66248230902926 -4.250701460132485e-08 2.424906220563266e-07 5.3249642466144245" Properties=species:S:1:pos:R:3:forces:R:3 energy=-41.50547409057617 free_energy=-41.50547409057617 stress="0.0007290470530278981 -1.6368623789730918e-07 9.239856524345669e-08 -1.6368623789730918e-07 0.000729066610801965 4.440946721473438e-09 9.239856524345669e-08 4.440946721473438e-09 0.0007288638735190034" pbc="T T T"
Ni       1.53718263       1.08695402       2.66248295      -0.00002634      -0.00000187       0.00001158
Ni       4.61155560       3.26086207       7.98744643       0.00002235       0.00000494      -0.00000105
Sc      -0.00000004       0.00000006       0.00000035       0.00000305      -0.00000194      -0.00000279
F        1.58691132       1.12211558       5.32496333      -0.00472480      -0.00334288      -0.00000529
F        4.56182759       3.22569981       5.32496423       0.00472435       0.00333941       0.00000146
F        3.81809924       1.12211589       4.03678821       0.00237194      -0.00334333      -0.00408886
F        2.33063931       3.22569967       6.61314071      -0.00237088       0.00334410       0.00409044
F        2.33063960       3.22569914       4.03678841      -0.00237331       0.00334626      -0.00409453
F        3.81809944       1.12211620       6.61314029       0.00237352      -0.00334446       0.00408901
