9
Lattice="6.067225546078669 -1.4279055620286538e-06 3.5029126616786006 2.0224094825360646 5.720225327071085 3.5029086547185146 2.280962736629351e-06 -3.294619449376617e-06 7.005821372613713" Properties=species:S:1:pos:R:3:forces:R:3 energy=-19.593013763427734 free_energy=-19.593013763427734 stress="0.00020893874170724303 6.058609169912188e-09 2.8062858703492566e-08 6.058609169912188e-09 0.00020885709091089666 3.995045716465029e-08 2.8062858703492566e-08 3.995045716465029e-08 0.00020894432964269072" pbc="T T T"
Ni       2.02240385       1.43004902       3.50290398      -0.00001672      -0.00002241      -0.00002858
Ni       6.06722807       4.29017642      10.50874060      -0.00000545       0.00004715       0.00003470
S        0.00000273      -0.00000172      -0.00000080      -0.00000088      -0.00000231       0.00000166
Br       2.05200632       1.45097472       7.00582320       0.00062227       0.00042409       0.00000355
Br       6.03763092       4.26924622       7.00582090      -0.00061791      -0.00043173      -0.00000665
Br       5.04123257       1.45097380       5.27999244      -0.00029826       0.00043751       0.00054790
Br       3.04840588       4.26924220       8.73165288       0.00030507      -0.00044301      -0.00054692
Br       3.04841312       4.26925003       5.27998604       0.00032373      -0.00043306       0.00054437
Br       5.04122771       1.45096710       8.73165018      -0.00031174       0.00042380      -0.00055000
