9
Lattice="4.42038780324594 -2.581559595905063e-08 2.552111651502555 1.4734625283858105 4.167581430225652 2.552111735259214 -2.729365509708528e-07 -9.041474916656001e-08 5.104223775745032" Properties=species:S:1:pos:R:3:forces:R:3 energy=-31.244556427001953 free_energy=-31.244556427001953 stress="-1.3333753486222122e-05 1.7442914668208687e-07 7.14873493734558e-09 1.7442914668208687e-07 -1.351663377135992e-05 1.1700933555403026e-07 7.14873493734558e-09 1.1700933555403026e-07 -1.3624250641441904e-05" pbc="T T T"
Ni       1.47346240       1.04189529       2.55211248       0.00000004      -0.00000302       0.00000112
Ni       4.42038699       3.12568470       7.65633708      -0.00000186      -0.00000331       0.00000602
S       -0.00000006       0.00000021      -0.00000260       0.00000352       0.00000448       0.00001631
F        1.49307260       1.05576260       5.10422331      -0.00021129      -0.00014773      -0.00000560
F        4.40077728       3.11181945       5.10422349       0.00021074       0.00014739      -0.00000585
F        3.67385092       1.05576223       3.84514990       0.00009849      -0.00013825      -0.00017682
F        2.21999878       3.11182028       6.36329759      -0.00010280       0.00014473       0.00017044
F        2.21999957       3.11181981       3.84515005      -0.00009607       0.00013747      -0.00017203
F        3.67385176       1.05576081       6.36329730       0.00009930      -0.00014169       0.00016666
