9
Lattice="5.799837755051863 5.654700172635103e-08 3.348537969168798 1.933279299854249 5.468139569403341 3.3485379780762377 3.1319137904556614e-08 3.305534142522717e-08 6.6970758840912445" Properties=species:S:1:pos:R:3:forces:R:3 energy=-22.04383087158203 free_energy=-22.04383087158203 stress="3.6437420931179076e-05 -1.660479398424286e-08 -7.267018986567564e-09 -1.660479398424286e-08 3.6453697248362005e-05 -1.3033271129003765e-09 -7.267018986567564e-09 -1.3033271129003765e-09 3.6430792533792555e-05" pbc="T T T"
Ni       1.93327985       1.36703526       3.34853800       0.00000174       0.00000150       0.00000040
Ni       5.79983740       4.10110583      10.04561314      -0.00000060       0.00000497      -0.00000258
S        0.00000010      -0.00000026       0.00000015       0.00000120      -0.00000007      -0.00000018
Cl       1.92289313       1.35969010       6.69707572      -0.00052103      -0.00037047       0.00000013
Cl       5.81022417       4.10844904       6.69707616       0.00052103       0.00036894       0.00000200
Cl       4.83839111       1.35968999       5.01381226       0.00025915      -0.00037141      -0.00045136
Cl       2.89472576       4.10844918       8.38034010      -0.00026050       0.00036754       0.00045258
Cl       2.89472570       4.10844911       5.01381210      -0.00026038       0.00036854      -0.00045234
Cl       4.83839114       1.35969034       8.38033976       0.00025949      -0.00036950       0.00045136
