9
Lattice="6.473392413860891 -7.657303658444963e-08 3.73741486474364 2.1577974059856566 6.103172882152822 3.737414852805566 -1.1679966044242981e-08 -2.2880082338717838e-08 7.474829749717588" Properties=species:S:1:pos:R:3:forces:R:3 energy=-17.603425979614258 free_energy=-17.603425979614258 stress="2.691934787435457e-05 8.930832184894655e-10 9.751247809219876e-09 8.930832184894655e-10 2.692038287932519e-05 -1.4422580907336169e-09 9.751247809219876e-09 -1.4422580907336169e-09 2.6916875867755152e-05" pbc="T T T"
Ni       2.15779736       1.52579383       3.73741477      -0.00000013       0.00000157      -0.00000015
Ni       6.47339236       4.57737937      11.21224448       0.00000023      -0.00000118      -0.00000087
S        0.00000013      -0.00000017       0.00000003      -0.00000038      -0.00000037      -0.00000007
I        2.30885220       1.63260512       7.47482980       0.00090763       0.00064225       0.00000008
I        6.32233764       4.47056760       7.47482979      -0.00090736      -0.00064224       0.00000008
I        5.31896621       1.63260503       5.73693955      -0.00045339       0.00064185       0.00078605
I        3.31222358       4.47056757       9.21272002       0.00045368      -0.00064221      -0.00078575
I        3.31222352       4.47056760       5.73693955       0.00045314      -0.00064196       0.00078624
I        5.31896620       1.63260513       9.21271989      -0.00045347       0.00064231      -0.00078548
