9
Lattice="5.964646506312624 -1.2061900891052753 3.766867487995624 0.9055820911729505 4.80606417366581 3.4937918219590953 -0.15634619345542936 -0.3881163381215772 7.919194465503999" Properties=species:S:1:pos:R:3:forces:R:3 energy=-30.234708786010742 free_energy=-30.234708786010742 stress="-0.0002948354813270271 0.00015107134822756052 -0.00018466851906850934 0.00015107134822756052 0.0002041913103312254 -0.00011690657265717164 -0.00018466851906850934 -0.00011690657265717164 7.468583498848602e-05" pbc="T T T"
Ni      -0.68195169       1.24134329       4.75580443       0.00045983      -0.00105463       0.00020641
Ni       6.90293387       3.06924632       9.52323317      -0.00130117      -0.00239580      -0.00229231
S        0.33615126      -0.50349777       0.08365898       0.00141383       0.00346383       0.00306958
Cl       1.83709911       0.16047716       7.62964854       0.00111959       0.00559320      -0.00098216
Cl       4.86630723       2.19887236       8.82325323       0.00161949      -0.00324168      -0.00038697
Cl       5.39691359       0.37347937       6.34370630       0.00063242       0.00164674       0.00250889
Cl       1.16017175       4.06243904       7.92166251      -0.00499630      -0.00357191      -0.00009033
Cl       2.29530852       2.68564053       5.05719981       0.00054807       0.00173987      -0.00205913
Cl       4.74306450      -0.44030393      10.58223084       0.00050414      -0.00217967       0.00002597
