9
Lattice="6.473113953330308 6.451211320867143e-08 3.7372540216795764 2.1577046920026492 6.102910701125521 3.7372540561993888 -8.323759327136794e-08 -1.6579876481849056e-08 7.474508187530914" Properties=species:S:1:pos:R:3:forces:R:3 energy=-17.603424072265625 free_energy=-17.603424072265625 stress="-6.888169082230888e-06 -3.034016093916847e-10 2.2893749118679807e-09 -3.034016093916847e-10 -6.8812910285487305e-06 -8.354986924530294e-09 2.2893749118679807e-09 -8.354986924530294e-09 -6.878209205751773e-06" pbc="T T T"
Ni       2.15770500       1.52572773       3.73725398       0.00000149       0.00000029      -0.00000060
Ni       6.47311392       4.57718257      11.21176262      -0.00000012      -0.00000079       0.00000081
S       -0.00000007       0.00000029      -0.00000041       0.00000070       0.00000001      -0.00000009
I        2.30891472       1.63264955       7.47450845      -0.00033464      -0.00023563       0.00000048
I        6.32190385       4.47026125       7.47450803       0.00033483       0.00023645      -0.00000009
I        5.31865654       1.63264923       5.73683271       0.00016703      -0.00023761      -0.00029007
I        3.31216163       4.47026145       9.21218352      -0.00016786       0.00023675       0.00028959
I        3.31216205       4.47026148       5.73683253      -0.00016813       0.00023673      -0.00029026
I        5.31865658       1.63264950       9.21218359       0.00016662      -0.00023624       0.00029019
