9
Lattice="6.696465522328547 -1.1908621704343414e-08 3.8662061241258803 2.232155192933762 6.31348812810862 3.8662060720745983 3.3926926148252715e-08 -3.975964127495137e-08 7.732412189488626" Properties=species:S:1:pos:R:3:forces:R:3 energy=-24.94219207763672 free_energy=-24.94219207763672 stress="0.00011513485515024513 -4.098489991832821e-09 3.6498593036782268e-09 -4.098489991832821e-09 0.00011513217759784311 -6.138764163665655e-09 3.6498593036782268e-09 -6.138764163665655e-09 0.00011513145000208169" pbc="T T T"
Ni       2.23215505       1.57837263       3.86620569      -0.00000058       0.00000068      -0.00000063
Ni       6.69646562       4.73511570      11.59861912       0.00000029      -0.00000078       0.00000315
Sc      -0.00000011      -0.00000016      -0.00000020       0.00000189       0.00000148       0.00000011
I        2.30085103       1.62694753       7.73241232      -0.00332914      -0.00235374       0.00000102
I        6.62776990       4.68654069       7.73241207       0.00332755       0.00235271      -0.00000140
I        5.54604006       1.62694739       5.85880114       0.00166445      -0.00235318      -0.00288270
I        3.38258042       4.68654094       9.60602303      -0.00166456       0.00235253       0.00288179
I        3.38258076       4.68654055       5.85880119      -0.00166411       0.00235378      -0.00288319
I        5.54604030       1.62694702       9.60602317       0.00166420      -0.00235352       0.00288186
