9
Lattice="5.995954764355816 -2.189441128164668e-08 3.461766271635832 1.9986516149525984 5.653039814124951 3.4617661894045675 1.2616088310671547e-07 -1.1503117169196058e-08 6.9235323247546035" Properties=species:S:1:pos:R:3:forces:R:3 energy=-24.265758514404297 free_energy=-24.265758514404297 stress="-1.7539565305924043e-05 -2.572688506674581e-09 -1.9515873361797276e-08 -2.572688506674581e-09 -1.75917648448376e-05 1.808792937652015e-08 -1.9515873361797276e-08 1.808792937652015e-08 -1.7566697351867333e-05" pbc="T T T"
Ni       1.99865168       1.41326046       3.46176559       0.00000115       0.00000108      -0.00000057
Ni       5.99595522       4.23977858      10.38529827       0.00000006      -0.00000176      -0.00000044
Si      -0.00000012       0.00000010       0.00000032       0.00000060      -0.00000047      -0.00000095
Br       1.94128645       1.37269698       6.92353223      -0.00065769      -0.00046342       0.00000116
Br       6.05331977       4.28034323       6.92353242       0.00065672       0.00046243       0.00000053
Br       5.02531195       1.37269673       5.14296975       0.00032936      -0.00046277      -0.00056667
Br       2.96929463       4.28034285       8.70409535      -0.00032930       0.00046256       0.00056930
Br       2.96929492       4.28034319       5.14296958      -0.00032780       0.00046320      -0.00056872
Br       5.02531150       1.37269695       8.70409567       0.00032704      -0.00046083       0.00056629
