9
Lattice="4.322303360822267 1.0503085440581905e-07 2.495483241708924 1.4407677859452166 4.075107067446627 2.4954834149479104 -1.6923197111967275e-07 9.250852215644796e-08 4.990966776536228" Properties=species:S:1:pos:R:3:forces:R:3 energy=-37.32089614868164 free_energy=-37.32089614868164 stress="0.00012347032316029072 -6.413464603838293e-08 2.2568448798665486e-07 -6.413464603838293e-08 0.0001231320929946378 1.2169932972483366e-07 2.2568448798665486e-07 1.2169932972483366e-07 0.00012308031728025526" pbc="T T T"
Ni       1.44076516       1.01877658       2.49548945      -0.00002001      -0.00000844       0.00007439
Ni       4.32231694       3.05632418       7.48644677       0.00018340      -0.00008056      -0.00003706
Se       0.00000051       0.00000023       0.00000021       0.00000668      -0.00000934       0.00000013
O        1.45436350       1.02839638       4.99096405       0.00301468       0.00221348      -0.00003260
O        4.30870408       3.04671466       4.99096725      -0.00306797      -0.00216258       0.00001014
O        3.59511968       1.02839265       3.75500237      -0.00154096       0.00216889       0.00265372
O        2.16794754       3.04671598       6.22692894       0.00148058      -0.00214028      -0.00267959
O        2.16794549       3.04671434       3.75500358       0.00146270      -0.00216651       0.00267184
O        3.59512077       1.02839398       6.22693138      -0.00151879       0.00218511      -0.00266027
