9
Lattice="3.836799365499601 -1.7301285696305173e-08 2.2151771325264904 1.278933085809221 3.617369100334994 2.2151771666689624 -5.591475366575427e-08 2.278122858815568e-09 4.430354361900168" Properties=species:S:1:pos:R:3:forces:R:3 energy=-46.120872497558594 free_energy=-46.120872497558594 stress="0.0002127920015482232 -8.167513243506619e-08 -6.236485319277563e-07 -8.167513243506619e-08 0.0002132947847712785 -4.741048371670331e-07 -6.236485319277563e-07 -4.741048371670331e-07 0.00021292171732056886" pbc="T T T"
Ni       1.27893360       0.90434244       2.21517745      -0.00008840      -0.00003479      -0.00006570
Ni       3.83679982       2.71302709       6.64553191      -0.00008915      -0.00003341      -0.00007914
Si      -0.00000706      -0.00000274      -0.00000550       0.00117469       0.00044120       0.00092652
O        1.36957517       0.96843616       4.43035396       0.00061464       0.00040078       0.00007503
O        3.74616424       2.64893847       4.43035358      -0.00181913      -0.00132108       0.00010007
O        3.15201221       0.96843427       3.40126176      -0.00036448       0.00071293       0.00091898
O        1.96371737       2.64893647       5.45944842       0.00085729      -0.00098789      -0.00116920
O        1.96371982       2.64893339       3.40126312       0.00045490      -0.00045025       0.00069284
O        3.15201424       0.96843077       5.45944985      -0.00074100       0.00127399      -0.00140107
