9
Lattice="6.4760647200794 -3.0362133836143336e-08 3.738957526690391 2.158688236820773 6.105691600847945 3.738957482661654 2.1253073063878287e-08 -3.8895779138667246e-08 7.477915016569369" Properties=species:S:1:pos:R:3:forces:R:3 energy=-20.76061248779297 free_energy=-20.76061248779297 stress="-1.2868214980699122e-05 5.767462063488438e-09 1.4905405798515403e-09 5.767462063488438e-09 -1.2865401913586538e-05 -7.098464482879763e-09 1.4905405798515403e-09 -7.098464482879763e-09 -1.2877064364147373e-05" pbc="T T T"
Ni       2.15868851       1.52642341       3.73895824       0.00000109       0.00000144       0.00000245
Ni       6.47606507       4.57926838      11.21687265       0.00000089      -0.00000086      -0.00000069
Si      -0.00000012      -0.00000014      -0.00000026      -0.00000076       0.00000022       0.00000140
I        2.16439493       1.53045823       7.47791477      -0.00001360      -0.00000983      -0.00000030
I        6.47035787       4.57523344       7.47791491       0.00001410       0.00000902      -0.00000013
I        5.39386719       1.53045805       5.61337835       0.00000663      -0.00001047      -0.00001248
I        3.24088552       4.57523323       9.34245156      -0.00000729       0.00000962       0.00001153
I        3.24088562       4.57523316       5.61337823      -0.00000767       0.00000884      -0.00001303
I        5.39386732       1.53045832       9.34245172       0.00000651      -0.00000797       0.00001126
