9
Lattice="5.700829788524625 6.540070143174382e-08 3.291375601434749 1.9002766392435881 5.37479381228071 3.2913756336363926 3.273544839349187e-08 6.258629889192862e-08 6.582751146170057" Properties=species:S:1:pos:R:3:forces:R:3 energy=-32.546546936035156 free_energy=-32.546546936035156 stress="0.00012318140943534672 1.2498344581501897e-08 -1.6102033484344247e-08 1.2498344581501897e-08 0.00012316214269958436 -2.398218512666972e-08 -1.6102033484344247e-08 -2.398218512666972e-08 0.00012313941260799766" pbc="T T T"
Ni       1.90027669       1.34369979       3.29137587       0.00000022       0.00000511       0.00000138
Ni       5.70083087       4.03109538       9.87412610       0.00000341      -0.00000007      -0.00000128
Ti       0.00000007      -0.00000024      -0.00000022      -0.00000187       0.00000149       0.00000256
Cl       1.89485157       1.33986254       6.58275143       0.00041608       0.00029498       0.00000150
Cl       5.70625485       4.03493097       6.58275142      -0.00041653      -0.00029694       0.00000009
Cl       4.75340377       1.33986232       4.93236513      -0.00020851       0.00029548       0.00036153
Cl       2.84770213       4.03493164       8.23313731       0.00020942      -0.00029880      -0.00036391
Cl       2.84770187       4.03493111       4.93236525       0.00020681      -0.00029679       0.00036135
Cl       4.75340407       1.33986223       8.23313726      -0.00020911       0.00029576      -0.00036290
