9
Lattice="6.620973567071234 2.6889760429389923e-08 3.8226207488435104 2.2069912031058982 6.24231374637235 3.822620768363274 -3.016089400631065e-08 2.579776811735278e-09 7.6452415499271495" Properties=species:S:1:pos:R:3:forces:R:3 energy=-25.42197036743164 free_energy=-25.42197036743164 stress="8.963159052655101e-05 1.0806648909067462e-08 -1.0273726758214252e-08 1.0806648909067462e-08 8.962510037235916e-05 1.460016640919548e-08 -1.0273726758214252e-08 1.460016640919548e-08 8.961716230260208e-05" pbc="T T T"
Ni       2.20699132       1.56057869       3.82262069       0.00000046       0.00000129      -0.00000019
Ni       6.62097359       4.68173494      11.46786217      -0.00000024      -0.00000102      -0.00000115
Ti      -0.00000019      -0.00000023       0.00000005       0.00000151       0.00000034       0.00000047
I        2.20766684       1.56105660       7.64524155      -0.00058396      -0.00041285       0.00000013
I        6.62029816       4.68125768       7.64524163       0.00058094       0.00041098       0.00000051
I        5.51714019       1.56105612       5.73451613       0.00029125      -0.00041141      -0.00050358
I        3.31082447       4.68125763       9.55596699      -0.00029008       0.00041144       0.00050382
I        3.31082443       4.68125752       5.73451617      -0.00028974       0.00041095      -0.00050230
I        5.51714016       1.56105612       9.55596691       0.00028994      -0.00040978       0.00050233
