9
Lattice="6.093488905905975 -1.258081201199891e-08 3.5180774124706407 2.0311629239882354 5.744996492580412 3.5180774692573356 -8.327092687687815e-08 1.0667762252196189e-08 7.0361549691707195" Properties=species:S:1:pos:R:3:forces:R:3 energy=-28.90756607055664 free_energy=-28.90756607055664 stress="0.00015092278772499412 1.375643421397399e-08 -1.048740116971203e-08 1.375643421397399e-08 0.00015092043031472713 1.5142635589882047e-08 -1.048740116971203e-08 1.5142635589882047e-08 0.00015089575026649982" pbc="T T T"
Ni       2.03116344       1.43624890       3.51807780       0.00000242      -0.00000089       0.00000121
Ni       6.09348889       4.30874745      10.55423395      -0.00000085       0.00000009       0.00000484
Ti      -0.00000009      -0.00000009      -0.00000006      -0.00000116       0.00000357       0.00000398
Br       2.02300887       1.43048316       7.03615455       0.00027205       0.00019275      -0.00000113
Br       6.10164305       4.31451348       7.03615429      -0.00027570      -0.00019398      -0.00000104
Br       5.08198419       1.43048343       5.27005424      -0.00013576       0.00019272       0.00023513
Br       3.04266686       4.31451321       8.80225524       0.00013838      -0.00019548      -0.00024163
Br       3.04266751       4.31451327       5.27005405       0.00013820      -0.00019447       0.00023879
Br       5.08198425       1.43048312       8.80225532      -0.00013768       0.00019568      -0.00024019
