9
Lattice="4.63925658395538 9.261750480238906e-08 2.678476251317697 1.5464188543155557 4.373933321714315 2.6784764146908855 -1.9180039793685745e-07 6.446707144817761e-08 5.356952834843436" Properties=species:S:1:pos:R:3:forces:R:3 energy=-43.177459716796875 free_energy=-43.177459716796875 stress="-0.0004671950009651482 7.954456293646217e-08 1.259175661516565e-07 7.954456293646217e-08 -0.0004672525974456221 -1.1441919411936397e-07 1.259175661516565e-07 -1.1441919411936397e-07 -0.00046732707414776087" pbc="T T T"
Ni       1.54641866       1.09348220       2.67847577      -0.00000106      -0.00001008      -0.00000729
Ni       4.63925700       3.28044991       8.03542818       0.00000660      -0.00000091      -0.00000910
Ti       0.00000019       0.00000041       0.00000005      -0.00000297       0.00000127      -0.00000236
F        1.53987218       1.08885422       5.35695341      -0.00426026      -0.00300951       0.00000203
F        4.64580326       3.28507990       5.35695312       0.00425296       0.00301296       0.00000455
F        3.86932069       1.08885416       4.01204510       0.00212930      -0.00300930      -0.00368549
F        2.31635443       3.28507964       6.70186103      -0.00212706       0.00301225       0.00368525
F        2.31635437       3.28507946       4.01204499      -0.00213099       0.00301386      -0.00368176
F        3.86932025       1.08885428       6.70186064       0.00213343      -0.00301060       0.00369459
