9
Lattice="6.065343379454554 1.0093062897918613e-07 3.501827553822292 2.0217811940178554 5.718460787810602 3.5018276016706995 -3.2637191169147656e-08 3.5524161582266505e-08 7.003655164173816" Properties=species:S:1:pos:R:3:forces:R:3 energy=-28.51552963256836 free_energy=-28.51552963256836 stress="0.00017421487427782267 1.4723745778155717e-08 -1.994310316888459e-08 1.4723745778155717e-08 0.00017420671065337956 1.0006170114706947e-08 -1.994310316888459e-08 1.0006170114706947e-08 0.00017421600932721049" pbc="T T T"
Ni       2.02178097       1.42961463       3.50182774      -0.00000076      -0.00000395       0.00000088
Ni       6.06534344       4.28884529      10.50548197       0.00000029      -0.00000113      -0.00000317
V       -0.00000006      -0.00000008      -0.00000024      -0.00000010       0.00000339       0.00000317
Br       1.99746964       1.41242450       7.00365498      -0.00042072      -0.00029594       0.00000003
Br       6.08965507       4.30603680       7.00365560       0.00041825       0.00029676       0.00000140
Br       5.06660863       1.41242446       5.23168719       0.00021065      -0.00029713      -0.00036497
Br       3.02051590       4.30603688       8.77562360      -0.00020771       0.00029553       0.00036190
Br       3.02051575       4.30603697       5.23168697      -0.00020885       0.00029594      -0.00036128
Br       5.06660885       1.41242424       8.77562349       0.00020903      -0.00029339       0.00036196
