9
Lattice="5.698631178893125 8.491024640438714e-09 3.290106178713489 1.8995437498366448 5.37272105765803 3.2901061518086183 -7.124536108968381e-08 -8.332967891036077e-08 6.580212480827507" Properties=species:S:1:pos:R:3:forces:R:3 energy=-31.890897750854492 free_energy=-31.890897750854492 stress="0.00019461492775008082 1.1561809287741198e-08 2.4055648140119956e-08 1.1561809287741198e-08 0.00019463877833914012 -4.940813091991458e-09 2.4055648140119956e-08 -4.940813091991458e-09 0.00019458902534097433" pbc="T T T"
Ni       1.89954321       1.34318014       3.29010561      -0.00000107       0.00000040      -0.00000197
Ni       5.69863085       4.02954060       9.87031955      -0.00000238      -0.00000135       0.00000247
V       -0.00000000       0.00000011      -0.00000056       0.00000009       0.00000019       0.00001128
Cl       1.87576087       1.32636308       6.58021237      -0.00099242      -0.00070208       0.00000204
Cl       5.72241447       4.04635784       6.58021206       0.00099251       0.00070170      -0.00000067
Cl       4.76075086       1.32636348       4.91456258       0.00049840      -0.00070411      -0.00086106
Cl       2.83742379       4.04635789       8.24586256      -0.00049150       0.00069831       0.00085273
Cl       2.83742456       4.04635786       4.91456256      -0.00049800       0.00070597      -0.00086115
Cl       4.76075086       1.32636295       8.24586250       0.00049432      -0.00069888       0.00085612
