9
Lattice="6.4552748685408154 2.181468678735384e-08 3.7269546853477435 2.151758296921475 6.086091489789759 3.7269547081402274 -3.153691986617558e-09 2.5684962228280547e-08 7.453909376157864" Properties=species:S:1:pos:R:3:forces:R:3 energy=-25.45699119567871 free_energy=-25.45699119567871 stress="0.00019969200366176665 -4.0840113513240794e-09 1.6009424896878954e-09 -4.0840113513240794e-09 0.00019969174172729254 -3.504598389270086e-09 1.6009424896878954e-09 -3.504598389270086e-09 0.00019970323774032295" pbc="T T T"
Ni       2.15175810       1.52152294       3.72695448      -0.00000019       0.00000082      -0.00000045
Ni       6.45527499       4.56456858      11.18086448       0.00000043      -0.00000115       0.00000035
V        0.00000019       0.00000061       0.00000048      -0.00000052      -0.00000396      -0.00000697
I        2.15784129       1.52582437       7.45390948      -0.00431244      -0.00304863      -0.00000021
I        6.44919145       4.56026679       7.45390922       0.00431459       0.00305010      -0.00000054
I        5.37635430       1.52582423       5.59569988       0.00215497      -0.00304786      -0.00373296
I        3.23067920       4.56026705       9.31211834      -0.00215875       0.00305254       0.00373937
I        3.23067898       4.56026725       5.59570013      -0.00215575       0.00304955      -0.00373483
I        5.37635413       1.52582437       9.31211854       0.00215768      -0.00305138       0.00373649
