9
Lattice="5.5648394838284165 1.4291096041056136e-08 3.212861629489784 1.8549465172617698 5.2465810385773874 3.2128616135921018 8.435313804539394e-08 4.017610581380218e-08 6.425723112875617" Properties=species:S:1:pos:R:3:forces:R:3 energy=-21.89034652709961 free_energy=-21.89034652709961 stress="0.00018734007608145475 -2.786650465935736e-09 -4.9201358542916296e-09 -2.786650465935736e-09 0.0001872832654044032 -1.1971769353635864e-08 -4.9201358542916296e-09 -1.1971769353635864e-08 0.00018732201715465635" pbc="T T T"
Ni       1.85494604       1.31164521       3.21286188      -0.00000279      -0.00000051       0.00000129
Ni       5.56483958       3.93493575       9.63858413       0.00000008       0.00000045      -0.00000355
Zn       0.00000009       0.00000010       0.00000007      -0.00000159       0.00000054       0.00000231
Cl       1.90053947       1.34388451       6.42572300      -0.00175790      -0.00124151      -0.00000064
Cl       5.51924673       3.90269642       6.42572367       0.00175984       0.00124297       0.00000199
Cl       4.61456987       1.34388435       4.85877729       0.00088008      -0.00124538      -0.00152232
Cl       2.80521652       3.90269685       7.99266900      -0.00087738       0.00124347       0.00152029
Cl       2.80521633       3.90269657       4.85877716      -0.00087938       0.00124346      -0.00152233
Cl       4.61456971       1.34388457       7.99266920       0.00087906      -0.00124338       0.00152284
