9
Lattice="6.419410767922899 -1.3876352825008285e-08 3.706248572450856 2.1398035909241524 6.052278442596444 3.7062485469909974 8.416173608757723e-09 -2.5230691406146842e-08 7.412497130324486" Properties=species:S:1:pos:R:3:forces:R:3 energy=-16.824800491333008 free_energy=-16.824800491333008 stress="5.1148905185982585e-05 3.5627623073963832e-09 -5.368638422709182e-09 3.5627623073963832e-09 5.1133894885424525e-05 -4.1369374592648e-09 -5.368638422709182e-09 -4.1369374592648e-09 5.113899169373326e-05" pbc="T T T"
Ni       2.13980310       1.51306942       3.70624868      -0.00000188      -0.00000042       0.00000092
Ni       6.41941083       4.53920849      11.11874535      -0.00000001      -0.00000107       0.00000050
Zn      -0.00000019      -0.00000008      -0.00000032       0.00000095       0.00000125       0.00000199
I        2.20595467       1.55984560       7.41249712      -0.00185697      -0.00131235       0.00000089
I        6.35326010       4.49243302       7.41249716       0.00185446       0.00131134       0.00000075
I        5.31643347       1.55984545       5.61666138       0.00092918      -0.00131330      -0.00160915
I        3.24278079       4.49243341       9.20833306      -0.00092647       0.00131160       0.00160493
I        3.24278089       4.49243307       5.61666128      -0.00092730       0.00131323      -0.00160719
I        5.31643382       1.55984523       9.20833329       0.00092801      -0.00131017       0.00160646
