9
Lattice="4.415138937524233 1.4217622330897194e-09 2.5490816256815028 1.4717129663855022 4.162632852002098 2.549081650154847 -1.3917269456969642e-08 2.0132614091805463e-08 5.09816327546842" Properties=species:S:1:pos:R:3:forces:R:3 energy=-30.43816375732422 free_energy=-30.43816375732422 stress="0.0007175960345193744 6.550183684339572e-08 6.182512279906405e-09 6.550183684339572e-08 0.0007173920748755336 -5.292824312164157e-08 6.182512279906405e-09 -5.292824312164157e-08 0.0007174589554779232" pbc="T T T"
Ni       1.47171292       1.04065901       2.54908149       0.00000010       0.00000578      -0.00000326
Ni       4.41513846       3.12197465       7.64724473      -0.00000389      -0.00000210       0.00000227
Zn      -0.00000026       0.00000006       0.00000014       0.00001630       0.00000245       0.00000112
F        1.51955287       1.07448609       5.09816306      -0.00442792      -0.00313199      -0.00000195
F        4.36729938       3.08814635       5.09816332       0.00441624       0.00311981       0.00000002
F        3.65536282       1.07448626       3.86505304       0.00221102      -0.00312485      -0.00382884
F        2.23148972       3.08814640       6.33127374      -0.00221109       0.00312920       0.00383601
F        2.23148956       3.08814671       3.86505295      -0.00220934       0.00312808      -0.00383472
F        3.65536211       1.07448605       6.33127367       0.00220845      -0.00312655       0.00382957
