9
Lattice="5.224959831832378 1.2205867446818037e-07 3.016632562438008 1.7416533833259498 4.926140268342482 3.01663257807762 1.596761453249976e-07 1.3206258142001293e-07 6.033264848308823" Properties=species:S:1:pos:R:3:forces:R:3 energy=-42.520545959472656 free_energy=-42.520545959472656 stress="5.9778456488857046e-05 -5.253105541669356e-07 -8.444656600659073e-07 -5.253105541669356e-07 5.582621452049352e-05 -4.983656367585354e-07 -8.444656600659073e-07 -4.983656367585354e-07 5.8164634538115934e-05" pbc="T T T"
Os       1.74162100       1.23158301       3.01663024      -0.00091218       0.00135824      -0.00009664
Os       5.22495771       3.69459369       9.04992619      -0.00002332      -0.00037505       0.00079955
Cr       0.00000152      -0.00000129      -0.00000024       0.00002972      -0.00003032      -0.00002656
Se       1.87421888       1.32527849       6.03326638      -0.00014764       0.00012717       0.00006878
Se       5.09240812       3.60084347       6.03325186       0.00050980      -0.00061095      -0.00038745
Se       4.28786571       1.32528391       4.63975613       0.00050852       0.00024679      -0.00005037
Se       2.67875329       3.60085216       7.42677722      -0.00032559      -0.00036678       0.00012696
Se       2.67876648       3.60085482       4.63974523       0.00003463      -0.00029609      -0.00030449
Se       4.28786080       1.32527384       7.42676714       0.00032604      -0.00005275      -0.00012943
