9
Lattice="4.764360838291367 -1.4020152492729834e-07 2.7507048402969287 1.5881201015566284 4.491883064490211 2.7507049194352873 -9.05923036648638e-08 3.286584463716039e-08 5.501409837504322" Properties=species:S:1:pos:R:3:forces:R:3 energy=-46.63032150268555 free_energy=-46.63032150268555 stress="7.985570118762553e-05 2.6349943027526024e-07 -6.412614794726323e-08 2.6349943027526024e-07 7.693132647546008e-05 -1.4914627399775782e-07 -6.412614794726323e-08 -1.4914627399775782e-07 8.057206287048757e-05" pbc="T T T"
Os       1.58812736       1.12298876       2.75070720       0.00015601       0.00039785       0.00004832
Os       4.76436103       3.36890124       8.25211996       0.00000196      -0.00024723       0.00010750
Co      -0.00000036      -0.00000026      -0.00000082      -0.00001049      -0.00001127      -0.00001193
S        1.68097239       1.18863117       5.50140939       0.00242254       0.00180268      -0.00001272
S        4.67150794       3.30325058       5.50140772      -0.00243956      -0.00183058      -0.00004538
S        3.92387236       1.18863267       4.20646729      -0.00125718       0.00183025       0.00205579
S        2.42860449       3.30324854       6.79635050       0.00118233      -0.00187099      -0.00209412
S        2.42860534       3.30324732       4.20646695       0.00119992      -0.00187945       0.00204614
S        3.92387280       1.18863183       6.79635009      -0.00125580       0.00180903      -0.00209376
