9
Lattice="4.412676860324098 6.53270066780025e-08 2.5476604834402155 1.470892699989174 4.160312178395399 2.547659874410881 -9.071939684806811e-07 -1.3873885928764004e-06 5.095322538186488" Properties=species:S:1:pos:R:3:forces:R:3 energy=-51.55915069580078 free_energy=-51.55915069580078 stress="2.02819883270422e-05 -2.3260893158294493e-06 3.0516359856846975e-06 -2.3260893158294493e-06 1.4196353731676936e-05 2.030806854236289e-06 3.0516359856846975e-06 2.030806854236289e-06 1.3668158317159396e-05" pbc="T T T"
Os       1.47075287       1.04013108       2.54809869      -0.00260245       0.00101069       0.00838654
Os       4.41264305       3.12024339       7.64332462      -0.00072016       0.00022565       0.00667122
Co      -0.00000263       0.00000154       0.00001830      -0.00007972       0.00003025       0.00033892
O        1.48053622       1.04687321       5.09513783      -0.00091213      -0.00110465      -0.00365217
O        4.40307793       3.11339489       5.09516278       0.00182176       0.00018787      -0.00309556
O        3.67240275       1.04695084       3.82971906       0.00045919       0.00019407      -0.00301081
O        2.21115008       3.11346832       6.36072667      -0.00071171       0.00179100      -0.00078344
O        2.21117985       3.11336149       3.82972785       0.00006935      -0.00034350      -0.00310808
O        3.67253510       1.04681736       6.36065655       0.00267562      -0.00199115      -0.00174659
