9
Lattice="4.797526412489313 1.4308783637489726e-07 2.7698534651248186 1.5991756065108234 4.523151645943327 2.76985346377983 3.1189933679448324e-07 2.188988491120501e-07 5.539706390024157" Properties=species:S:1:pos:R:3:forces:R:3 energy=-48.947017669677734 free_energy=-48.947017669677734 stress="8.95487391971983e-05 -2.3733539933346037e-07 -7.879374379626825e-07 -2.3733539933346037e-07 8.818605419946834e-05 -5.497752795236011e-07 -7.879374379626825e-07 -5.497752795236011e-07 8.920646359911188e-05" pbc="T T T"
Os       1.59916923       1.13078991       2.76984763      -0.00015167       0.00005889      -0.00015069
Os       4.79752598       3.39235421       8.30957192      -0.00001524      -0.00024251       0.00029508
Cr       0.00000014       0.00000036      -0.00000086       0.00001061       0.00001627      -0.00000542
S        1.71938149       1.21579010       5.53970878      -0.00481248      -0.00331014       0.00005639
S        4.67732144       3.30736316       5.53970273       0.00482684       0.00334632      -0.00011024
S        3.93784105       1.21579292       4.25888099       0.00251558      -0.00326896      -0.00418043
S        2.45886483       3.30736335       6.82053019      -0.00245047       0.00334716       0.00412953
S        2.45886936       3.30736608       4.25888140      -0.00233221       0.00341719      -0.00417012
S        3.93783583       1.21578802       6.82053057       0.00240871      -0.00336498       0.00413537
