9
Lattice="5.18614117568396 -1.2529174898447725e-07 2.9942195556087916 1.7287135675623653 4.889541648734114 2.9942196240930903 -5.664472227134986e-07 -3.166628584617412e-07 5.9884400923328975" Properties=species:S:1:pos:R:3:forces:R:3 energy=-40.161842346191406 free_energy=-40.161842346191406 stress="0.0002570609503891319 -2.810941168718273e-07 1.087273062694294e-06 -2.810941168718273e-07 0.0002533320221118629 8.433627840531699e-07 1.087273062694294e-06 8.433627840531699e-07 0.0002562521549407393" pbc="T T T"
Os       1.72871564       1.22243107       2.99422104       0.00004480       0.00129977       0.00006839
Os       5.18615350       3.66715731       8.98262932       0.00037245      -0.00001036      -0.00085001
Co      -0.00000028      -0.00000216       0.00000165      -0.00002592      -0.00008040       0.00005175
Se       1.84661183       1.30575713       5.98843864       0.00472879       0.00351578      -0.00006062
Se       5.06824897       3.58377401       5.98845388      -0.00457200      -0.00383723       0.00040719
Se       4.26283028       1.30574761       4.59343889      -0.00250593       0.00325015       0.00426736
Se       2.65201756       3.58377158       7.38345491       0.00232659      -0.00381827      -0.00390938
Se       2.65200221       3.58376974       4.59343222       0.00194232      -0.00388962       0.00411090
Se       4.26283703       1.30575864       7.38344663      -0.00231056       0.00356990      -0.00408587
