9
Lattice="4.088893616966707 6.98032582373759e-08 2.360723785498913 1.3629645675672872 3.8550458787493884 2.3607238499879446 -6.616308335997262e-08 3.219825281671684e-08 4.721447685595652" Properties=species:S:1:pos:R:3:forces:R:3 energy=-54.628665924072266 free_energy=-54.628665924072266 stress="0.00015161419287323952 -1.6313884998453432e-07 2.4694233502486895e-07 -1.6313884998453432e-07 0.00015199474000837654 1.6902792765449703e-07 2.4694233502486895e-07 1.6902792765449703e-07 0.00015103556506801397" pbc="T T T"
Os       1.36296350       0.96376054       2.36072386      -0.00002342      -0.00002089      -0.00000979
Os       4.08889473       2.89128603       7.08216876       0.00002489       0.00003964      -0.00007034
Cr      -0.00000000       0.00000001      -0.00000010       0.00000230       0.00000415       0.00001485
O        1.43191482       1.01251663       4.72144819      -0.00739688      -0.00523424       0.00001192
O        4.01994306       2.84252902       4.72144828       0.00739932       0.00523102       0.00001804
O        3.37293617       1.01251637       3.60079914       0.00369719      -0.00524640      -0.00639248
O        2.07892209       2.84252954       5.84209713      -0.00369054       0.00522494       0.00640738
O        2.07892177       2.84252923       3.60079883      -0.00370634       0.00523007      -0.00639230
O        3.37293636       1.01251662       5.84209735       0.00369340      -0.00522882       0.00641310
