9
Lattice="4.79238305704331 -2.1951162333482294e-07 2.7668836178893867 1.5974608976289995 4.518301511775189 2.7668834696741427 3.7143599691766393e-07 8.111907138595061e-08 5.533766592432748" Properties=species:S:1:pos:R:3:forces:R:3 energy=-47.33860397338867 free_energy=-47.33860397338867 stress="-0.00021978655422572047 1.0668961891724393e-07 -1.3009196209168294e-06 1.0668961891724393e-07 -0.00021985539933666587 -1.1066789511460229e-06 -1.3009196209168294e-06 -1.1066789511460229e-06 -0.00021948735229671001" pbc="T T T"
Os       1.59746330       1.12958794       2.76687179       0.00006117       0.00032844      -0.00033314
Os       4.79238291       3.38873612       8.30066690      -0.00001868       0.00025745       0.00046075
Fe      -0.00000017      -0.00000170      -0.00000041      -0.00000487      -0.00006220      -0.00001031
S        1.69522252       1.19869894       5.53377225      -0.00723535      -0.00522435       0.00013908
S        4.69462430       3.31959585       5.53375912       0.00730568       0.00505447      -0.00018719
S        3.94477414       1.19870114       4.23498787       0.00367975      -0.00514710      -0.00628901
S        2.44506698       3.31959334       6.83254723      -0.00374410       0.00497824       0.00632137
S        2.44507450       3.31959735       4.23498533      -0.00356245       0.00509971      -0.00636733
S        3.94476873       1.19869657       6.83254459       0.00351909      -0.00528485       0.00626630
