9
Lattice="4.312819984778439 -0.00011417763541487538 2.490043825735941 1.437625435146649 4.065954901991945 2.4898241750772803 0.00012251230770890956 -0.00018172087318820668 4.9798746850706" Properties=species:S:1:pos:R:3:forces:R:3 energy=-76.67780303955078 free_energy=-76.67780303955078 stress="-5.251743277767673e-05 8.079921826720238e-05 2.8488313546404243e-05 8.079921826720238e-05 0.00012272223830223083 5.686551230610348e-05 2.8488313546404243e-05 5.686551230610348e-05 -6.0913087509106845e-05" pbc="T T T"
Os       1.43803419       1.01608244       2.49008197      -0.00410589       0.00120745      -0.00217712
Os       4.31254670       3.04957271       7.46966563       0.00094208      -0.00291433      -0.00044000
Fe      -0.00000117      -0.00001015      -0.00000089       0.00209235       0.00929072       0.00373068
Se       1.44201413       1.01983930       4.97997987      -0.00578082      -0.00648564       0.00058231
Se       4.30856354       3.04582989       4.97975335      -0.00195384       0.00129658       0.00192010
Se       3.59207550       1.01975007       3.73899953       0.00317186      -0.00540173      -0.00602150
Se       2.15847824       3.04591808       6.22075335       0.00340462       0.00101471       0.00013757
Se       2.15848005       3.04619322       3.73875967       0.00313997      -0.00014824       0.00269246
Se       3.59208318       1.01946066       6.22097862      -0.00090957       0.00213784      -0.00042880
