9
Lattice="3.988165142576586 7.4114414142124074e-09 2.3025682380775696 1.3293883995436524 3.760078246681097 2.302568217817405 -3.454581765661204e-10 -2.5057811162968677e-08 4.605136476753486" Properties=species:S:1:pos:R:3:forces:R:3 energy=-51.41927719116211 free_energy=-51.41927719116211 stress="-0.0004936046316288412 1.044184827492245e-07 1.1546389799832468e-07 1.044184827492245e-07 -0.0004936393816024065 1.0823737994769544e-07 1.1546389799832468e-07 1.0823737994769544e-07 -0.0004940057988278568" pbc="T T T"
Os       1.32939049       0.94001846       2.30256935       0.00006031      -0.00003089       0.00002959
Os       3.98816862       2.82006151       6.90770739       0.00010406       0.00008164       0.00007647
Fe      -0.00000031       0.00000007      -0.00000017      -0.00001937      -0.00000152      -0.00000864
O        1.38104341       0.97654581       4.60513589       0.00556293       0.00395253      -0.00000812
O        3.93650853       2.78353193       4.60513570      -0.00561857      -0.00396916      -0.00002182
O        3.29764154       0.97654562       3.49858696      -0.00282018       0.00395271       0.00482270
O        2.01991009       2.78353199       5.71168495       0.00278240      -0.00397298      -0.00486240
O        2.01990961       2.78353237       3.49858751       0.00277270      -0.00395337       0.00484163
O        3.29764218       0.97654524       5.71168424      -0.00282513       0.00394106      -0.00486815
