9
Lattice="5.507178728402622 -5.189147177086659e-08 3.1795710852001986 1.8357261474417113 5.192218223601866 3.1795711656286714 -5.895283489733737e-07 -3.18355176015654e-07 6.359143191493503" Properties=species:S:1:pos:R:3:forces:R:3 energy=-35.731441497802734 free_energy=-35.731441497802734 stress="0.0002256745210615918 -1.6452956685952813e-07 4.756379041737091e-07 -1.6452956685952813e-07 0.00022560042270924896 3.4953959016092995e-07 4.756379041737091e-07 3.4953959016092995e-07 0.00022528191038873047" pbc="T T T"
Os       1.83572564       1.29805799       3.17958537      -0.00001290       0.00007013       0.00031893
Os       5.50718613       3.89416921       9.53870926       0.00017242       0.00013057      -0.00012133
Ge      -0.00000018       0.00000049       0.00000026       0.00000536      -0.00000598      -0.00000698
Se       1.95899568       1.38521873       6.35913708      -0.00710924      -0.00503349      -0.00016107
Se       5.38391011       3.80699802       6.35914597       0.00713897       0.00500563       0.00006823
Se       4.52767503       1.38521509       4.87611150       0.00344722      -0.00511790      -0.00614168
Se       2.81522218       3.80700030       7.84217081      -0.00359000       0.00508954       0.00611840
Se       2.81521843       3.80699445       4.87611118      -0.00368506       0.00493513      -0.00616354
Se       4.52768407       1.38521729       7.84217031       0.00363313      -0.00507358       0.00608934
