9
Lattice="4.812378188728833 -2.6660156594896567e-06 2.7784239982834844 1.604123695649374 4.537150894779002 2.778423744911956 -2.455262118777273e-06 -2.046447193029582e-06 5.556852249205282" Properties=species:S:1:pos:R:3:forces:R:3 energy=-40.488948822021484 free_energy=-40.488948822021484 stress="7.190839824033901e-05 6.033120371284895e-06 1.0493804438738152e-05 6.033120371284895e-06 7.723124144831672e-05 7.416307653329568e-06 1.0493804438738152e-05 7.416307653329568e-06 8.913333294913173e-05" pbc="T T T"
Os       1.60416706       1.13428275       2.77847180       0.00125895      -0.00006993       0.00141716
Os       4.81233908       3.40283932       8.33522749      -0.00108203      -0.00053132      -0.00142935
Ge      -0.00000033       0.00000149      -0.00000003      -0.00001402       0.00004688       0.00000263
S        1.74723484       1.23548033       5.55682608      -0.00081640      -0.00067371      -0.00066097
S        4.66925780       3.30167673       5.55687460       0.00068504       0.00089839       0.00067179
S        3.93873163       1.23547919       4.29156093      -0.00028813      -0.00061846      -0.00114799
S        2.47776738       3.30167291       6.82213585       0.00027429       0.00077555       0.00106290
S        2.47774282       3.30165395       4.29156298      -0.00046656       0.00024581      -0.00107890
S        3.93875726       1.23549827       6.82214049       0.00044857      -0.00007370       0.00116223
