9
Lattice="4.243580312734484 4.950595963224547e-08 2.4500323225280183 1.4145268338822936 4.000885605627526 2.450032294302297 1.2914359411876706e-07 5.6749005198586854e-08 4.900064421372768" Properties=species:S:1:pos:R:3:forces:R:3 energy=-52.45330047607422 free_energy=-52.45330047607422 stress="0.00018055073451250792 1.3341278304324078e-08 -6.849809324194212e-07 1.3341278304324078e-08 0.00018202330102212727 -5.003595902053348e-07 -6.849809324194212e-07 -5.003595902053348e-07 0.00018014285888057202" pbc="T T T"
Os       1.41451981       1.00021258       2.45003460      -0.00022517      -0.00027123       0.00009176
Os       4.24357549       3.00066504       7.35010737      -0.00016499       0.00000319       0.00032355
Ge      -0.00000004       0.00000012      -0.00000006       0.00001003       0.00000347      -0.00000661
O        1.45177598       1.02655912       4.90006292      -0.00535429      -0.00382990      -0.00005390
O        4.20633300       2.97432799       4.90006076       0.00539553       0.00385553      -0.00012486
O        3.51769639       1.02656129       3.70730512       0.00278866      -0.00374854      -0.00469828
O        2.14041498       2.97432943       6.09282018      -0.00265628       0.00391781       0.00458765
O        2.14041847       2.97432888       3.70730446      -0.00255895       0.00389719      -0.00471020
O        3.51769506       1.02655854       6.09282084       0.00276470      -0.00382817       0.00459182
