9
Lattice="5.53467551443176 -2.4985063017569357e-07 3.195446224815955 1.844891711284292 5.218143165449453 3.195446036538933 -1.5907906353818e-07 -3.4307716853996685e-07 6.390892725164934" Properties=species:S:1:pos:R:3:forces:R:3 energy=-40.996131896972656 free_energy=-40.996131896972656 stress="0.0002718116156756878 2.3450347441666963e-07 4.04508938345316e-07 2.3450347441666963e-07 0.00026950472965836525 2.427107972380327e-07 4.04508938345316e-07 2.427107972380327e-07 0.00027201150078326464" pbc="T T T"
Os       1.84490617       1.30456316       3.19545367       0.00031603       0.00062703       0.00018164
Os       5.53468341       3.91359101       9.58633051       0.00016439      -0.00038473      -0.00020576
Ir       0.00000066       0.00000066      -0.00000122       0.00000283      -0.00000028       0.00002086
Se       1.96662008       1.39062106       6.39088855      -0.00740623      -0.00498128      -0.00008930
Se       5.41294685       3.82752179       6.39089872       0.00739616       0.00501749       0.00011327
Se       4.55135646       1.39061707       4.89858615       0.00350675      -0.00507858      -0.00645310
Se       2.82819882       3.82751997       7.88319695      -0.00373413       0.00493041       0.00641897
Se       2.82819435       3.82751595       4.89858826      -0.00385651       0.00486523      -0.00643247
Se       4.55136147       1.39061963       7.88319836       0.00361079      -0.00499547       0.00644654
