9
Lattice="4.959785800598115 -3.2749869506169917e-07 2.8635329246484864 1.6532616385758288 4.676130721955762 2.8635329007256107 -2.7196413595145324e-07 -2.2160711051291668e-07 5.727066320352645" Properties=species:S:1:pos:R:3:forces:R:3 energy=-46.167816162109375 free_energy=-46.167816162109375 stress="0.0002016472426475957 1.0060101658382337e-06 1.059581109075225e-06 1.0060101658382337e-06 0.00020183647575322539 8.604519621258078e-07 1.059581109075225e-06 8.604519621258078e-07 0.00020455202320590615" pbc="T T T"
Os       1.65326801       1.16904373       2.86353336       0.00018749       0.00030432       0.00002878
Os       4.95977617       3.50710159       8.59058703      -0.00025888       0.00008847      -0.00033441
Ir       0.00000018      -0.00000067       0.00000066       0.00000766      -0.00002244       0.00002777
S        1.82858282       1.29299845       5.72706519      -0.00034988      -0.00036216      -0.00002005
S        4.78446759       3.38312640       5.72707094       0.00041258       0.00022358       0.00014541
S        4.04549196       1.29299976       4.44713083       0.00011671      -0.00033915      -0.00035095
S        2.56755578       3.38312482       7.00700694      -0.00008249       0.00017673       0.00047648
S        2.56755233       3.38312342       4.44712786      -0.00020194       0.00015259      -0.00040543
S        4.04549361       1.29300336       7.00700552       0.00016922      -0.00022203       0.00043225
