9
Lattice="4.159702460201529 4.3670834466836826e-07 2.4016035640821176 1.3865673261987528 3.921810153380101 2.401604555278733 -1.5220686962285294e-06 1.376983848201309e-07 4.803209764463577" Properties=species:S:1:pos:R:3:forces:R:3 energy=-51.8963623046875 free_energy=-51.8963623046875 stress="4.228888064972125e-05 4.48951453790869e-07 5.5749524108250625e-06 4.48951453790869e-07 3.728380033862777e-05 3.34960236614279e-06 5.5749524108250625e-06 3.34960236614279e-06 4.383491977932863e-05" pbc="T T T"
Os       1.38661387       0.98048274       2.40160229       0.00096051       0.00052633      -0.00025309
Os       4.15973202       2.94132596       7.20469371       0.00067703      -0.00059243      -0.00234331
Ir      -0.00001001      -0.00000145       0.00001047      -0.00018417       0.00004820       0.00032828
O        1.48334127       1.04889401       4.80322687      -0.00005841       0.00018761       0.00032900
O        4.06290668       2.87291481       4.80323175      -0.00039256      -0.00017235       0.00044169
O        3.41801706       1.04889116       3.68624233      -0.00035903       0.00010872       0.00052699
O        2.12823817       2.87292131       5.92020708      -0.00007966      -0.00012279       0.00016418
O        2.12822750       2.87291957       3.68624658      -0.00018454      -0.00016290       0.00053108
O        3.41800607       1.04889853       5.92021256      -0.00037876       0.00017911       0.00027609
