9
Lattice="4.851516100831117 -3.3513941802498585e-08 2.80102406999537 1.6171720177036983 4.574052992414551 2.8010240428184683 -2.1829764335614347e-09 -3.4828321220478096e-08 5.602048143771724" Properties=species:S:1:pos:R:3:forces:R:3 energy=-47.464447021484375 free_energy=-47.464447021484375 stress="0.0001954930048668757 3.97545321106918e-08 2.8857567713203025e-07 3.97545321106918e-08 0.00019512904691509902 1.965474183407423e-07 2.8857567713203025e-07 1.965474183407423e-07 0.00019575463375076652" pbc="T T T"
Os       1.61717420       1.14351442       2.80102204       0.00005247       0.00003049      -0.00004873
Os       4.85151567       3.43053095       8.40305967      -0.00001363      -0.00021380      -0.00031128
Mn       0.00000002       0.00000081       0.00000083      -0.00000110       0.00001666       0.00002107
S        1.72818815       1.22201689       5.60204906      -0.00014305      -0.00001824       0.00002257
S        4.74049881       3.35203827       5.60205247       0.00011158       0.00007778       0.00010968
S        3.98742033       1.22201472       4.29768070       0.00003394      -0.00005287      -0.00007898
S        2.48126879       3.35203842       6.90641886      -0.00001824       0.00007915       0.00016218
S        2.48126469       3.35203813       4.29768147      -0.00009441       0.00006348      -0.00005972
S        3.98742200       1.22201888       6.90641980       0.00007203       0.00001669       0.00018269
