9
Lattice="4.790474962906458 -1.7260653399518836e-07 2.7657818011290423 1.5968249178554035 4.5165028500176865 2.7657816401263986 1.2457018539159621e-07 -1.0910270459181694e-07 5.53156338649615" Properties=species:S:1:pos:R:3:forces:R:3 energy=-44.417633056640625 free_energy=-44.417633056640625 stress="0.00038713435060344636 6.894694024595083e-07 6.310335809445178e-09 6.894694024595083e-07 0.00038714814581908286 -9.110821963531635e-08 6.310335809445178e-09 -9.110821963531635e-08 0.0003888883220497519" pbc="T T T"
Os       1.59683074       1.12912957       2.76577890       0.00014949       0.00009743      -0.00006800
Os       4.79046559       3.38737459       8.29734229      -0.00024116      -0.00006625      -0.00006617
Ni       0.00000009       0.00000011      -0.00000013       0.00000529      -0.00001367       0.00001631
S        1.67837029       1.18678476       5.53156479       0.00703643       0.00493023       0.00002619
S        4.70893034       3.32971567       5.53156549      -0.00699651      -0.00494631       0.00003497
S        3.95128925       1.18678766       4.21928978      -0.00353685       0.00499201       0.00602745
S        2.43601209       3.32971434       6.84383846       0.00356986      -0.00501382      -0.00598533
S        2.43601295       3.32971542       4.21928956       0.00356308      -0.00498584       0.00601171
S        3.95128876       1.18678819       6.84383813      -0.00354963       0.00500642      -0.00599766
