9
Lattice="5.280829164347225 -2.8800877725911042e-08 3.048888213194205 1.7602763903585088 4.978813499022495 3.048888162277949 2.0548353721062724e-07 8.293939118343658e-08 6.097776070480464" Properties=species:S:1:pos:R:3:forces:R:3 energy=-39.005088806152344 free_energy=-39.005088806152344 stress="4.9547412345418707e-05 2.1741176681189245e-07 -3.7018318721493415e-07 2.1741176681189245e-07 4.9579663027543575e-05 -2.842810715719679e-07 -3.7018318721493415e-07 -2.842810715719679e-07 5.000476085115224e-05" pbc="T T T"
Os       1.76030265       1.24469247       3.04887608       0.00064333      -0.00025716      -0.00030220
Os       5.28084821       3.73409716       9.14666361       0.00045053      -0.00032157      -0.00000426
Ni      -0.00000051       0.00000021       0.00000012      -0.00002288       0.00001252       0.00001340
Se       1.87240679       1.32400451       6.09778233      -0.00112337      -0.00049603       0.00015100
Se       5.16868537       3.65482719       6.09777669       0.00080064       0.00090617      -0.00000271
Se       4.34461573       1.32399844       4.67044037       0.00033066      -0.00061652      -0.00095680
Se       2.69647487       3.65481550       7.52510547      -0.00067103       0.00063583       0.00079811
Se       2.69647779       3.65482067       4.67045051      -0.00061621       0.00076541      -0.00072399
Se       4.34461200       1.32399808       7.52511476       0.00020811      -0.00062895       0.00102741
