9
Lattice="4.000690601531265 -1.1399411688172733e-07 2.309800024358853 1.3335634580389077 3.771887694081798 2.3097999695050735 -8.090898358325429e-08 -1.2439319247355667e-07 4.619600188856175" Properties=species:S:1:pos:R:3:forces:R:3 energy=-47.960205078125 free_energy=-47.960205078125 stress="2.488234531483613e-05 -5.215417431259084e-08 2.561673966283706e-07 -5.215417431259084e-08 2.3423430320690386e-05 2.7049651407651254e-07 2.561673966283706e-07 2.7049651407651254e-07 2.477010821166914e-05" pbc="T T T"
Os       1.33356402       0.94297070       2.30979888      -0.00000613      -0.00000994      -0.00000689
Os       4.00069073       2.82891691       6.92940011      -0.00000559       0.00000822       0.00000981
Pd      -0.00000002      -0.00000003      -0.00000023       0.00000431       0.00000058       0.00006416
O        1.41648797       1.00160878       4.61960049       0.00041415       0.00030290       0.00001693
O        3.91776581       2.77027834       4.61959981      -0.00041518      -0.00029938       0.00000560
O        3.29244601       1.00160850       3.53651545      -0.00017967       0.00025812       0.00033049
O        2.04180754       2.77027934       5.70268556       0.00021678      -0.00031076      -0.00037536
O        2.04180735       2.77027850       3.53651508       0.00019065      -0.00026889       0.00033337
O        3.29244668       1.00160865       5.70268572      -0.00022049       0.00031805      -0.00037767
