9
Lattice="5.47301725325732 -3.312291266302331e-07 3.159847212534111 1.8243387365454073 5.160009135226078 3.1598472741741848 6.214184351920023e-07 5.149025028293114e-07 6.3196933487400795" Properties=species:S:1:pos:R:3:forces:R:3 energy=-36.941444396972656 free_energy=-36.941444396972656 stress="8.078149221546482e-06 1.1138037052660366e-06 -1.8736858464762918e-06 1.1138037052660366e-06 1.0382090295024682e-05 -1.3157344938008464e-06 -1.8736858464762918e-06 -1.3157344938008464e-06 1.0952959200949408e-05" pbc="T T T"
Os       1.82437362       1.29000148       3.15983668       0.00080323      -0.00004421      -0.00029276
Os       5.47300769       3.87001788       9.47958711      -0.00026346       0.00026073       0.00108151
Pd      -0.00000053      -0.00000026      -0.00000124      -0.00000904      -0.00000145      -0.00000539
Se       1.99570135       1.41116386       6.31969994      -0.00422239      -0.00322905       0.00017322
Se       5.30165304       3.74884842       6.31966934       0.00417638       0.00328261      -0.00056684
Se       4.47516163       1.41117575       4.88816004       0.00199130      -0.00289506      -0.00399429
Se       2.82217941       3.74883334       7.75121870      -0.00233909       0.00290531       0.00376689
Se       2.82219856       3.74883801       4.88816158      -0.00183368       0.00304860      -0.00395900
Se       4.47515142       1.41115887       7.75121914       0.00169602      -0.00332782       0.00379628
