9
Lattice="3.8766804416932206 5.0709413292989904e-08 2.2382024297057868 1.2922268353721096 3.6549695138678087 2.238202475319222 -7.302619099052636e-08 4.227504643794768e-09 4.476404985896652" Properties=species:S:1:pos:R:3:forces:R:3 energy=-60.27241134643555 free_energy=-60.27241134643555 stress="0.0003661779628600925 1.5061252724990482e-06 -2.7186338513729424e-08 1.5061252724990482e-06 0.000367901346180588 2.5519037194499106e-07 -2.7186338513729424e-08 2.5519037194499106e-07 0.0003697670472320169" pbc="T T T"
Os       1.29222785       0.91374281       2.23819979      -0.00031106      -0.00022418       0.00091349
Os       3.87668088       2.74122804       6.71460512      -0.00022265      -0.00023132       0.00090555
P       -0.00000632      -0.00000546       0.00002184       0.00246986       0.00215120      -0.00863039
O        1.37492987       0.97222186       4.47640831       0.00186557       0.00143564      -0.00128102
O        3.79398691       2.68275412       4.47640849      -0.00555986      -0.00392875      -0.00126855
O        3.18922198       0.97221050       3.42891633      -0.00348289       0.00582263       0.00551733
O        1.97969377       2.68274252       5.52388223       0.00018284       0.00048333      -0.00109732
O        1.97968278       2.68275791       3.42891589       0.00436839      -0.00540927       0.00576037
O        3.18921105       0.97222606       5.52388152       0.00069053      -0.00009847      -0.00081638
