9
Lattice="5.229369092282886 6.998661732856403e-07 3.0191787637888043 1.7431237734319118 4.930296951592307 3.019178620321708 1.549689529205125e-06 9.200853949983127e-07 6.038354843436629" Properties=species:S:1:pos:R:3:forces:R:3 energy=-38.31537628173828 free_energy=-38.31537628173828 stress="2.153348395950161e-05 -2.403098449121899e-07 -3.5523009955795715e-06 -2.403098449121899e-07 1.9776531189563684e-05 -2.4947801193775376e-06 -3.5523009955795715e-06 -2.4947801193775376e-06 2.0731242329929955e-05" pbc="T T T"
Os       1.74312783       1.23258939       3.01915163       0.00009149       0.00037105      -0.00073772
Os       5.22938331       3.69772275       9.05759129       0.00032112      -0.00004635       0.00149034
P       -0.00000061      -0.00000026      -0.00000091      -0.00001141      -0.00001392      -0.00001954
Se       1.87180172       1.32356979       6.03836891       0.00034624       0.00038648       0.00037098
Se       5.10069230       3.60672849       6.03832907      -0.00034547      -0.00039959      -0.00072870
Se       4.29347614       1.32357579       4.64020396       0.00001925       0.00057173       0.00026321
Se       2.67900646       3.60672219       7.43650105      -0.00031757      -0.00058222      -0.00044101
Se       2.67903379       3.60673274       4.64020340       0.00041661      -0.00026757       0.00025433
Se       4.29345684       1.32355344       7.43650056      -0.00051978      -0.00001961      -0.00045139
