9
Lattice="4.901611880005977 6.281589490470447e-07 2.8299469373752384 1.6338714996861765 4.621282526608241 2.829946451043823 1.3322524819042005e-06 3.4641285143927225e-07 5.659891567221729" Properties=species:S:1:pos:R:3:forces:R:3 energy=-41.13068389892578 free_energy=-41.13068389892578 stress="1.3955280337540898e-05 3.212837782484712e-07 -2.4449743705190485e-06 3.212837782484712e-07 1.1913413800357375e-05 -1.7979525637201732e-06 -2.4449743705190485e-06 -1.7979525637201732e-06 1.499129029980395e-05" pbc="T T T"
Os       1.63388106       1.15532707       2.82995437       0.00027180       0.00018344       0.00012822
Os       4.90161923       3.46595649       8.48986613       0.00013509      -0.00020623       0.00081301
Pd      -0.00000168      -0.00000054      -0.00000242      -0.00000927      -0.00000436      -0.00004276
S        1.81006963       1.27991549       5.65989229      -0.00018048       0.00000882       0.00000594
S        4.72541239       3.34136864       5.65987934       0.00011313       0.00004232      -0.00039427
S        3.99657621       1.27992258       4.39750446       0.00003594       0.00016642      -0.00030291
S        2.53889916       3.34136848       6.92226655      -0.00029051      -0.00002849       0.00000107
S        2.53891033       3.34136636       4.39750838       0.00002915      -0.00001132      -0.00026262
S        3.99657244       1.27990970       6.92227083      -0.00010443      -0.00014913       0.00005305
