9
Lattice="5.393898189641933 9.390057501699043e-07 3.114169308343415 1.7979668919490255 5.08541821747319 3.114169406322431 1.1839724905096343e-06 9.571943187522513e-07 6.228336565986366" Properties=species:S:1:pos:R:3:forces:R:3 energy=-39.99745178222656 free_energy=-39.99745178222656 stress="-5.878464435227215e-05 -5.239952542979154e-07 -2.2674496449326398e-06 -5.239952542979154e-07 -6.444064638344571e-05 -1.5205415593300131e-06 -2.2674496449326398e-06 -1.5205415593300131e-06 -6.0197773564141244e-05" pbc="T T T"
Os       1.79795519       1.27138830       3.11413023      -0.00030366       0.00086946      -0.00096760
Os       5.39390599       3.81404000       9.34252572       0.00018042      -0.00067254       0.00051145
Rh      -0.00000075       0.00000096       0.00000067       0.00000789      -0.00000799      -0.00000131
Se       1.96047529       1.38628210       6.22835673      -0.00430208      -0.00263482       0.00049917
Se       5.23139424       3.69913353       6.22832598       0.00436300       0.00253463      -0.00029022
Se       4.41367475       1.38628267       4.81199629       0.00248310      -0.00258467      -0.00355536
Se       2.77819624       3.69913030       7.64468662      -0.00239316       0.00245121       0.00373977
Se       2.77820696       3.69914589       4.81199442      -0.00203183       0.00284225      -0.00360966
Se       4.41365712       1.38627670       7.64468421       0.00199661      -0.00279763       0.00367367
