9
Lattice="4.905343212358821 -6.507629898136796e-07 2.832099932708647 1.6351137409139922 4.624800374077357 2.8321000187229886 -1.262913554650135e-06 -7.876690893617129e-07 5.664202052847641" Properties=species:S:1:pos:R:3:forces:R:3 energy=-46.688987731933594 free_energy=-46.688987731933594 stress="3.646343611762859e-05 9.056398653228825e-07 4.0267846088681836e-06 9.056398653228825e-07 4.3719817767851055e-05 2.885148433051654e-06 4.0267846088681836e-06 2.885148433051654e-06 3.904950062860735e-05" pbc="T T T"
Os       1.63513942       1.15618469       2.83211777       0.00071622      -0.00046559       0.00056097
Os       4.90535128       3.46862161       8.49626559       0.00022351       0.00066971      -0.00106349
Ru      -0.00000219      -0.00000028       0.00000162      -0.00009615      -0.00001456       0.00006079
S        1.79767254       1.27113877       5.66419403      -0.00053859      -0.00060380      -0.00024161
S        4.74277616       3.35366263       5.66421645       0.00035203       0.00065255       0.00044234
S        4.00648889       1.27113176       4.38893210      -0.00017726      -0.00078619      -0.00043714
S        2.53395429       3.35366050       6.93947250      -0.00011760       0.00061142       0.00051045
S        2.53394039       3.35365255       4.38893331      -0.00054836       0.00037730      -0.00038981
S        4.00650206       1.27114331       6.93947455       0.00018615      -0.00044107       0.00055754
