9
Lattice="4.045885970541859 -1.0195524191050274e-07 2.3358933070762053 1.3486285848544644 3.8144976759291525 2.335893265279218 -2.8414372315719704e-08 -7.128264130361761e-08 4.671786663367542" Properties=species:S:1:pos:R:3:forces:R:3 energy=-53.13615417480469 free_energy=-53.13615417480469 stress="-0.000202886265469715 -6.522000717268384e-07 3.8540036939593847e-07 -6.522000717268384e-07 -0.00020340165065135807 -4.413541603298654e-07 3.8540036939593847e-07 -4.413541603298654e-07 -0.00020310364197939634" pbc="T T T"
Os       1.34862833       0.95362420       2.33589273       0.00010413      -0.00001849       0.00009042
Os       4.04588553       2.86087321       7.00767998       0.00009112      -0.00002511       0.00007077
Rh       0.00000453      -0.00000065       0.00000368      -0.00141755       0.00021005      -0.00113013
O        1.46729365       1.03753282       4.67178689      -0.00204933      -0.00135696      -0.00008785
O        3.92721819       2.77696216       4.67178682       0.00293612       0.00218242      -0.00007667
O        3.31223868       1.03753420       3.60660814       0.00111419      -0.00171214      -0.00223094
O        2.08227670       2.77696291       5.73696543      -0.00137463       0.00182217       0.00212932
O        2.08227485       2.77696523       3.60660644      -0.00096631       0.00122827      -0.00156593
O        3.31223765       1.03753585       5.73696271       0.00156277      -0.00233090       0.00280309
