9
Lattice="4.641607256867174 2.21433646822953e-07 2.6798331589513955 1.5472025344665803 4.376149680229982 2.679833320480394 -3.255546347351273e-07 -3.2370077271653994e-08 5.359666881779883" Properties=species:S:1:pos:R:3:forces:R:3 energy=-53.69701385498047 free_energy=-53.69701385498047 stress="-7.298795389942825e-05 -8.887820399650082e-07 6.999889592407271e-07 -8.887820399650082e-07 -7.419767644023523e-05 4.2685533685471455e-07 6.999889592407271e-07 4.2685533685471455e-07 -7.572461618110538e-05" pbc="T T T"
Os       1.54718874       1.09404542       2.67986012      -0.00028024       0.00016063       0.00053553
Os       4.64163700       3.28212417       8.03950278       0.00061440       0.00023138       0.00004751
Ru       0.00000401      -0.00000150      -0.00000458       0.00000923       0.00003655       0.00006061
O        1.56133005       1.10403316       5.35965351       0.00227761       0.00171739      -0.00023779
O        4.62748027       3.27210985       5.35966667      -0.00227922      -0.00180069      -0.00000936
O        3.86093395       1.10402273       4.03199143      -0.00123474       0.00148842       0.00204793
O        2.32785654       3.27212469       6.68733637       0.00100419      -0.00163448      -0.00226811
O        2.32786260       3.27211718       4.03198923       0.00098479      -0.00173858       0.00204858
O        3.86094466       1.10402365       6.68733697      -0.00109595       0.00154033      -0.00222510
