9
Lattice="5.539875529411386 2.2555372849973616e-08 3.1984482924918747 1.846625138972255 5.223045243666039 3.1984483942734165 3.76768058948265e-07 3.910716879008154e-07 6.396895932402387" Properties=species:S:1:pos:R:3:forces:R:3 energy=-41.48504638671875 free_energy=-41.48504638671875 stress="0.0002412971225567162 4.809410825146188e-07 -8.766398309489887e-07 4.809410825146188e-07 0.00024096161359921098 -5.749378146902018e-07 -8.766398309489887e-07 -5.749378146902018e-07 0.00024288057466037571" pbc="T T T"
Os       1.84662788       1.30576161       3.19844761       0.00009981       0.00003159      -0.00006030
Os       5.53984028       3.91725858       9.59538757      -0.00078450      -0.00056565       0.00095242
Ru       0.00000033       0.00000005       0.00000094      -0.00001381      -0.00000700       0.00000480
Se       1.95659524       1.38352122       6.39689675      -0.00606522      -0.00428772       0.00003536
Se       5.42990474       3.83952305       6.39687418       0.00605720       0.00429559      -0.00049250
Se       4.56158400       1.38354514       4.89289421       0.00317341      -0.00379065      -0.00557449
Se       2.82492615       3.83952252       7.90088627      -0.00296448       0.00425145       0.00533542
Se       2.82494724       3.83952389       4.89289572      -0.00251117       0.00427648      -0.00555030
Se       4.56157803       1.38352674       7.90088719       0.00300896      -0.00420380       0.00534990
