9
Lattice="4.948465955124497 2.82761384608462e-08 2.8569981662474864 1.6494886740026302 4.665458154825591 2.856998173807048 3.458826211429552e-07 2.5383444661418843e-07 5.713995733408724" Properties=species:S:1:pos:R:3:forces:R:3 energy=-45.14109420776367 free_energy=-45.14109420776367 stress="-0.00035379183827899396 3.118475149221922e-07 -1.3694850622414378e-06 3.118475149221922e-07 -0.0003535282448865473 -9.50936112076306e-07 -1.3694850622414378e-06 -9.50936112076306e-07 -0.0003528208180796355" pbc="T T T"
Os       1.64949925       1.16637084       2.85699821       0.00028148       0.00016087      -0.00002165
Os       4.94847063       3.49909773       8.57101034       0.00010294       0.00010252       0.00044668
Rh      -0.00000068      -0.00000035      -0.00000085      -0.00001310      -0.00000719      -0.00001514
S        1.81400615       1.28269594       5.71399640      -0.00579500      -0.00410366       0.00001451
S        4.78394762       3.38276102       5.71398971       0.00574958       0.00407124      -0.00018917
S        4.04145977       1.28269729       4.42797038       0.00282043      -0.00405121      -0.00509083
S        2.55648644       3.38275913       7.00001673      -0.00302917       0.00399351       0.00496757
S        2.55649366       3.38276027       4.42797051      -0.00285381       0.00402963      -0.00508690
S        4.04145687       1.28269203       7.00001712       0.00273603      -0.00419497       0.00497520
