9
Lattice="3.928483445740252 -2.331109769846881e-06 2.2681161843268427 1.3094933850113353 3.7038042448464643 2.268114277509006 2.7101555948837416e-06 -4.1898910269256023e-07 4.536227674529665" Properties=species:S:1:pos:R:3:forces:R:3 energy=-59.857635498046875 free_energy=-59.857635498046875 stress="2.6418994821142405e-05 -7.788472657921375e-07 1.0247389582218602e-05 -7.788472657921375e-07 -7.830759045646118e-07 4.691568847192684e-06 1.0247389582218602e-05 4.691568847192684e-06 3.994650251115672e-05" pbc="T T T"
Os       1.30949209       0.92592988       2.26810413       0.00013720       0.00040956       0.00015895
Os       3.92848822       2.77787113       6.80435473       0.00007822      -0.00013553      -0.00009090
Si       0.00000389       0.00000434       0.00000119      -0.00103688      -0.00114214      -0.00045460
O        1.40507917       0.99354012       4.53622588       0.00052217       0.00033694      -0.00003049
O        3.83289219       2.71025574       4.53623237       0.00128424       0.00082105      -0.00009007
O        3.22594289       0.99354304       3.48494876      -0.00012220      -0.00020511      -0.00001680
O        2.01203994       2.71025734       5.58750617      -0.00058723       0.00037403       0.00055240
O        2.01203209       2.71025906       3.48495180      -0.00031541       0.00006684      -0.00032997
O        3.22594838       0.99354430       5.58750563       0.00004006      -0.00052436       0.00030144
