9
Lattice="4.80505410397778 8.218840703935935e-07 2.774200960288164 1.6016857554931696 4.530244534806642 2.7742004765491135 2.4898494665091455e-06 1.1681317862300395e-06 5.54839760803131" Properties=species:S:1:pos:R:3:forces:R:3 energy=-43.49556350708008 free_energy=-43.49556350708008 stress="-3.8952395698288456e-05 -1.6933900042204186e-06 -6.753764864697587e-06 -1.6933900042204186e-06 -3.3361095120199025e-05 -4.8208394218818285e-06 -6.753764864697587e-06 -4.8208394218818285e-06 -4.4249121856410056e-05" pbc="T T T"
Os       1.60167491       1.13254346       2.77417806      -0.00033289      -0.00057166      -0.00074015
Os       4.80508893       3.39772271       8.32268033       0.00087340       0.00108430       0.00224090
Si      -0.00000126       0.00000113      -0.00000332      -0.00003884      -0.00002727      -0.00009772
S        1.70662115       1.20675391       5.54841062       0.00038895       0.00006402       0.00039836
S        4.70012242       3.32348788       5.54836260      -0.00040239      -0.00015205      -0.00103125
S        3.95175496       1.20675765       4.25217604       0.00014085       0.00019392       0.00042108
S        2.45496844       3.32348803       6.84460882      -0.00054410      -0.00020176      -0.00079232
S        2.45500565       3.32350409       4.25217787       0.00044993       0.00023800       0.00042814
S        3.95173449       1.20672682       6.84460555      -0.00053449      -0.00062773      -0.00082749
