9
Lattice="4.9395609681009 -2.909350108568781e-07 2.8518564391341537 1.6465200251343521 4.657062365670533 2.8518564794386196 -9.04785298198188e-07 -5.90417113912987e-07 5.7037144454025155" Properties=species:S:1:pos:R:3:forces:R:3 energy=-38.10019302368164 free_energy=-38.10019302368164 stress="-0.00023223568859975785 -4.084556621819502e-07 3.468985596555285e-06 -4.084556621819502e-07 -0.00022893045388627797 2.4494913759554038e-06 3.468985596555285e-06 2.4494913759554038e-06 -0.00023260907619260252" pbc="T T T"
Os       1.64651247       1.16424836       2.85186468      -0.00026310      -0.00061153       0.00039626
Os       4.93955761       3.49280276       8.55552558      -0.00006834       0.00026919      -0.00160505
Se      -0.00000087      -0.00000062      -0.00000231      -0.00000764      -0.00003378      -0.00007225
S        1.73588279       1.22744905       5.70370790       0.00297542       0.00190125      -0.00029074
S        4.85019689       3.42961361       5.70373876      -0.00298612      -0.00185996       0.00090960
S        4.07161558       1.22743941       4.35518276      -0.00163266       0.00154616       0.00279230
S        2.51447543       3.42961921       7.05225385       0.00197351      -0.00161570      -0.00246786
S        2.51445189       3.42961292       4.35518272       0.00111073      -0.00188565       0.00278488
S        4.07162861       1.22746126       7.05225557      -0.00110141       0.00228986      -0.00244687
