9
Lattice="4.232840179137889 7.832696654085194e-08 2.4438314003801254 1.4109467731737204 3.990760087663835 2.443831447237235 4.1533929910370306e-08 8.675691840021749e-08 4.887662728821397" Properties=species:S:1:pos:R:3:forces:R:3 energy=-53.42595672607422 free_energy=-53.42595672607422 stress="-5.258757937554037e-06 7.54205302655464e-08 -3.248564723890013e-07 7.54205302655464e-08 -5.184202564123552e-06 -2.2906566243818816e-07 -3.248564723890013e-07 -2.2906566243818816e-07 -5.3060834943607915e-06" pbc="T T T"
Os       1.41094757       0.99769056       2.44383351       0.00001112       0.00000687       0.00002967
Os       4.23284100       2.99307060       7.33149042       0.00001365       0.00000721      -0.00005941
S        0.00000019       0.00000011      -0.00000008      -0.00000369       0.00000881       0.00000293
O        1.32052456       0.93375213       4.88766223       0.00104547       0.00073826      -0.00000865
O        4.32326200       3.05700820       4.88766387      -0.00105631      -0.00074613       0.00002007
O        3.57257761       0.93375132       3.58743979      -0.00053751       0.00073695       0.00091577
O        2.07120895       3.05700840       6.18788659       0.00053257      -0.00074577      -0.00091529
O        2.07120850       3.05700769       3.58743933       0.00051850      -0.00075328       0.00091684
O        3.57257771       0.93375216       6.18788680      -0.00052375       0.00074708      -0.00090158
