9
Lattice="4.17945781290346 7.29494494875983e-08 2.413011101427244 1.3931526472977998 3.940430798245524 2.413011146080825 4.525855507546417e-09 5.7889508211459465e-08 4.826022195015476" Properties=species:S:1:pos:R:3:forces:R:3 energy=-59.762733459472656 free_energy=-59.762733459472656 stress="-4.073405307281064e-06 3.446865903811158e-08 -7.040074478936731e-08 3.446865903811158e-08 -4.116322543268325e-06 5.420132254130294e-08 -7.040074478936731e-08 5.420132254130294e-08 -3.981703230238054e-06" pbc="T T T"
Os       1.39315260       0.98510745       2.41301078      -0.00000148      -0.00000433      -0.00000739
Os       4.17945772       2.95532277       7.23903327      -0.00000338      -0.00000852      -0.00000521
Ti      -0.00000003       0.00000008       0.00000006       0.00000767      -0.00000562       0.00000573
O        1.47694673       1.04435934       4.82602248       0.00002205       0.00001740       0.00000082
O        4.09566372       2.89607184       4.82602241      -0.00002295      -0.00001627       0.00000075
O        3.44098453       1.04435937       3.69208449      -0.00001279       0.00002307       0.00002521
O        2.13162613       2.89607168       5.95995983       0.00000882      -0.00001234      -0.00001687
O        2.13162607       2.89607191       3.69208462       0.00001314      -0.00001484       0.00002319
O        3.44098439       1.04435925       5.95995984      -0.00001124       0.00002098      -0.00002646
