9
Lattice="4.8229257714982126 -3.3395694667007685e-07 2.7845169563384635 1.6076415873128622 4.547098776644963 2.7845169938586425 -1.2119693342589932e-06 -8.110390475624403e-07 5.569036011869344" Properties=species:S:1:pos:R:3:forces:R:3 energy=-47.3443603515625 free_energy=-47.3443603515625 stress="0.0004212279454804957 -2.574719815129356e-07 3.690962557811872e-06 -2.574719815129356e-07 0.00041869099368341267 2.731728500293684e-06 3.690962557811872e-06 2.731728500293684e-06 0.00042007185402326286" pbc="T T T"
Os       1.60764365       1.13678205       2.78454777       0.00004244       0.00019398       0.00077640
Os       4.82293829       3.41030705       8.35348833       0.00033722      -0.00039926      -0.00159467
Ti      -0.00000161       0.00000071       0.00000341      -0.00004168       0.00002802       0.00008651
S        1.74148073       1.23142190       5.56902349      -0.00254023      -0.00158092      -0.00026420
S        4.68908162       3.31567899       5.56906015       0.00242877       0.00166288       0.00055617
S        3.95217303       1.23141218       4.29269090       0.00099805      -0.00181633      -0.00202006
S        2.47839018       3.31568542       6.84538524      -0.00107637       0.00182012       0.00220150
S        2.47836755       3.31567423       4.29269330      -0.00157309       0.00153449      -0.00197017
S        3.95219139       1.23142782       6.84538712       0.00142479      -0.00144270       0.00222850
