9
Lattice="5.34653088598348 6.745245270045113e-08 3.086821137713592 1.7821770317663235 5.04075781568792 3.0868211270144954 -7.167636979778018e-08 -6.37864018000819e-08 6.173642399574357" Properties=species:S:1:pos:R:3:forces:R:3 energy=-41.77022933959961 free_energy=-41.77022933959961 stress="8.005275594769046e-05 -1.3863657954971131e-07 -9.416386603788851e-08 -1.3863657954971131e-07 7.92858554632403e-05 -2.3152479045052132e-08 -9.416386603788851e-08 -2.3152479045052132e-08 7.937856571516022e-05" pbc="T T T"
Os       1.78216753       1.26019783       3.08682159      -0.00026479       0.00022897       0.00001085
Os       5.34653709       3.78056556       9.26046987       0.00017939      -0.00007813       0.00017036
V        0.00000049       0.00000051       0.00000040      -0.00000157      -0.00000438      -0.00000648
Se       1.91483253       1.35399459       6.17364178       0.00266072       0.00199652      -0.00000256
Se       5.21387737       3.68676047       6.17363929      -0.00261220      -0.00205767      -0.00007986
Se       4.38911766       1.35399366       4.74511706      -0.00123772       0.00195706       0.00237927
Se       2.73958965       3.68676444       7.60216776       0.00123794      -0.00196889      -0.00239211
Se       2.73959246       3.68676393       4.74511527       0.00130822      -0.00196406       0.00234631
Se       4.38911653       1.35399026       7.60216563      -0.00126983       0.00189081      -0.00242609
