9
Lattice="4.792651719029192 -1.5243184301754386e-07 2.7670382782732834 1.597550359599112 4.518555186466593 2.767038398991162 -1.5467786714867654e-07 3.847485033923883e-08 5.534076824456565" Properties=species:S:1:pos:R:3:forces:R:3 energy=-48.44342041015625 free_energy=-48.44342041015625 stress="-0.0002486862358637154 7.62477498028602e-07 -7.550427483238309e-08 7.62477498028602e-07 -0.00024718642816878855 -6.291072196518144e-08 -7.550427483238309e-08 -6.291072196518144e-08 -0.00024613362620584667" pbc="T T T"
Os       1.59757087       1.12962877       2.76704056       0.00052253      -0.00024841       0.00005714
Os       4.79263237       3.38890876       8.30112185      -0.00048981      -0.00018163       0.00016067
V        0.00000012       0.00000089      -0.00000073      -0.00000373       0.00004170      -0.00001298
S        1.72053964       1.21660294       5.53407637       0.00024569       0.00011140      -0.00001119
S        4.66965947       3.30195820       5.53407297      -0.00030166       0.00002351      -0.00007325
S        3.93237682       1.21660779       4.25706176      -0.00022277       0.00024918       0.00002176
S        2.45782476       3.30195239       6.81108745       0.00022194      -0.00011387      -0.00012261
S        2.45782549       3.30195170       4.25706345       0.00024775      -0.00011799       0.00005728
S        3.93237830       1.21660885       6.81109021      -0.00021973       0.00023603      -0.00007701
