9
Lattice="4.769163859258001 7.857454148322439e-08 2.7534778938039253 1.589721308643182 4.496410764204618 2.7534779836228243 -9.505268984442956e-08 4.279276653429049e-08 5.5069559522438825" Properties=species:S:1:pos:R:3:forces:R:3 energy=-33.43433380126953 free_energy=-33.43433380126953 stress="0.00010821748583111912 -6.776831185106857e-08 -1.3182705060899025e-07 -6.776831185106857e-08 0.00010815382847795263 5.3408854228109703e-08 -1.3182705060899025e-07 5.3408854228109703e-08 0.00010803991608554497" pbc="T T T"
P        1.58972122       1.12410278       2.75347819       0.00000059      -0.00000055       0.00000077
P        4.76916352       3.37230784       8.26043421      -0.00000005       0.00000036       0.00000222
C       -0.00000141      -0.00000354       0.00000440      -0.00003248      -0.00007953       0.00010337
S        1.61637210       1.14294841       5.50695550      -0.00776321      -0.00548302      -0.00000974
S        4.74251396       3.35346383       5.50695525       0.00779742       0.00551563      -0.00001367
S        3.96097838       1.14294745       4.15329608       0.00389365      -0.00549920      -0.00675303
S        2.39790786       3.35346386       6.86061391      -0.00388431       0.00550739       0.00672453
S        2.39790675       3.35346475       4.15329560      -0.00389298       0.00551759      -0.00676103
S        3.96097795       1.14294807       6.86061418       0.00388103      -0.00547860       0.00670657
