9
Lattice="5.971099888602001 -1.0865750459549805e-08 3.447416112730933 1.990366622054813 5.629606861238695 3.4474161079415917 -7.88756722202902e-09 -1.1443053250205771e-08 6.894832239123525" Properties=species:S:1:pos:R:3:forces:R:3 energy=-27.39971160888672 free_energy=-27.39971160888672 stress="-8.997585973702371e-05 1.0262395377935718e-08 9.139419887560507e-09 1.0262395377935718e-08 -9.001125727081671e-05 -1.3442207347225121e-08 9.139419887560507e-09 -1.3442207347225121e-08 -9.004738240037113e-05" pbc="T T T"
Pb       1.99036691       1.40740237       3.44741603       0.00000021       0.00000148      -0.00000019
Pb       5.97109975       4.22220490      10.34224868       0.00000045      -0.00000080       0.00000267
Ag       0.00000026       0.00000007       0.00000035      -0.00000376      -0.00000074      -0.00000298
Cl       2.03758415       1.44078968       6.89483239      -0.00699593      -0.00494619       0.00000126
Cl       5.92388221       4.18881687       6.89483208       0.00699906       0.00494780       0.00000066
Cl       4.95230784       1.44078953       5.21201567       0.00349633      -0.00494573      -0.00606126
Cl       3.00915862       4.18881712       8.57764863      -0.00349954       0.00494745       0.00605936
Cl       3.00915869       4.18881733       5.21201560      -0.00349686       0.00494601      -0.00605896
Cl       4.95230757       1.44078950       8.57764836       0.00349995      -0.00494927       0.00605959
