9
Lattice="5.04989071649855 -3.1931039952119374e-08 2.915555842648102 1.6832968558698813 4.7610826926255285 2.9155558764660476 -8.488392269079692e-09 3.5416129824877e-08 5.831111699998556" Properties=species:S:1:pos:R:3:forces:R:3 energy=-37.04523849487305 free_energy=-37.04523849487305 stress="0.00039891479536890984 -1.6329396501646443e-08 -3.2897302659762317e-09 -1.6329396501646443e-08 0.00039890772313810885 1.1692815604646967e-08 -3.2897302659762317e-09 1.1692815604646967e-08 0.00039892259519547224" pbc="T T T"
Pb       1.68329691       1.19027064       2.91555592      -0.00000033       0.00000012       0.00000005
Pb       5.04989087       3.57081177       8.74666762       0.00000080      -0.00000001       0.00000022
Ag      -0.00000005       0.00000001       0.00000013       0.00000184       0.00000320      -0.00000153
F        1.73730708       1.22846186       5.83111167      -0.00166082      -0.00117353      -0.00000065
F        4.99588048       3.53262099       5.83111170       0.00165749       0.00117180       0.00000020
F        4.18123704       1.22846165       4.42010812       0.00083008      -0.00117320      -0.00143725
F        2.55195047       3.53262111       7.24211540      -0.00082967       0.00117305       0.00143632
F        2.55195043       3.53262109       4.42010811      -0.00082904       0.00117281      -0.00143614
F        4.18123698       1.22846171       7.24211532       0.00082982      -0.00117451       0.00143862
