9
Lattice="6.748744680661602 2.2696473536820116e-08 3.896389583745476 2.249581605311931 6.3627776003094425 3.8963895427081114 3.682187897584124e-08 -2.4223349576073543e-08 7.792779103713639" Properties=species:S:1:pos:R:3:forces:R:3 energy=-21.727327346801758 free_energy=-21.727327346801758 stress="-0.00024585219216533005 -4.833870526077533e-10 3.5016791688491367e-09 -4.833870526077533e-10 -0.0002458509407006204 -1.9107766480175314e-09 3.5016791688491367e-09 -1.9107766480175314e-09 -0.00024584485800005496" pbc="T T T"
Pb       2.24958152       1.59069458       3.89638945       0.00000009       0.00000049      -0.00000055
Pb       6.74874462       4.77208329      11.68916860      -0.00000092      -0.00000044       0.00000070
Au      -0.00000000       0.00000011      -0.00000019       0.00000036      -0.00000039      -0.00000012
I        2.33799735       1.65321351       7.79277909      -0.00476377      -0.00336836       0.00000005
I        6.66032895       4.70956398       7.79277910       0.00476360       0.00336811      -0.00000041
I        5.57974610       1.65321391       5.92115434       0.00238213      -0.00336803      -0.00412523
I        3.41858029       4.70956359       9.66440388      -0.00238178       0.00336821       0.00412575
I        3.41858008       4.70956353       5.92115458      -0.00238173       0.00336850      -0.00412569
I        5.57974638       1.65321388       9.66440408       0.00238205      -0.00336812       0.00412557
