9
Lattice="5.067745955200851 8.564390512734661e-08 2.9258644830289717 1.6892487023724196 4.777916882431706 2.925864535175885 -3.164259366221264e-08 4.149199528119033e-08 5.851729020864527" Properties=species:S:1:pos:R:3:forces:R:3 energy=-36.65353775024414 free_energy=-36.65353775024414 stress="0.00013598508667200804 4.679701959275917e-09 -9.29139837985149e-12 4.679701959275917e-09 0.00013598744408227503 -1.350645151276808e-09 -9.29139837985149e-12 -1.350645151276808e-09 0.00013597184442915022" pbc="T T T"
Pb       1.68924849       1.19447923       2.92586423       0.00000086       0.00000003       0.00000013
Pb       5.06774608       3.58343774       8.77759358      -0.00000076      -0.00000024       0.00000014
Au      -0.00000018      -0.00000006       0.00000036       0.00000110      -0.00000112      -0.00000567
F        1.76757375       1.24986319       5.85172883      -0.00024061      -0.00017066       0.00000074
F        4.98942086       3.52805376       5.85172885       0.00024071       0.00017053       0.00000019
F        4.18395897       1.24986382       4.45662805       0.00011997      -0.00016878      -0.00020625
F        2.57303546       3.52805363       7.24683008      -0.00012111       0.00017049       0.00020976
F        2.57303563       3.52805331       4.45662831      -0.00012027       0.00016998      -0.00020722
F        4.18395937       1.24986345       7.24682987       0.00012016      -0.00017036       0.00020823
