9
Lattice="6.724023387941185 -5.570348754219817e-08 3.8821166112284766 2.241341193223321 6.339469916394167 3.882116409570406 6.259333334237592e-08 -2.0271957379216678e-07 7.764233114042119" Properties=species:S:1:pos:R:3:forces:R:3 energy=-21.42724609375 free_energy=-21.42724609375 stress="0.00012931022502016276 -7.751664199417974e-09 -3.872849152486424e-09 -7.751664199417974e-09 0.0001293104432988912 2.4123028019573667e-09 -3.872849152486424e-09 2.4123028019573667e-09 0.0001293138921028003" pbc="T T T"
Pb       2.24134067       1.58486762       3.88211660      -0.00000082       0.00000144      -0.00000013
Pb       6.72402391       4.75460189      11.64635003       0.00000025      -0.00000126       0.00000130
Ag      -0.00000070      -0.00000012      -0.00000107       0.00000300       0.00000039       0.00000579
I        2.32212615       1.64199142       7.76423294      -0.00765066      -0.00540994       0.00000056
I        6.64323897       4.69747881       7.76423268       0.00764832       0.00540797      -0.00000009
I        5.56296040       1.64199148       5.89313639       0.00382639      -0.00541025      -0.00662576
I        3.40240379       4.69747875       9.63533015      -0.00382422       0.00540722       0.00662307
I        3.40240450       4.69747805       5.89313651      -0.00382641       0.00541103      -0.00662694
I        5.56296090       1.64199070       9.63533027       0.00382417      -0.00540663       0.00662219
