9
Lattice="6.073920124476227 2.8880869577691773e-08 3.5067793512804193 2.024640056079372 5.726546692116791 3.5067793731767907 -8.128986011538955e-09 2.106934668718682e-08 7.0135587166406745" Properties=species:S:1:pos:R:3:forces:R:3 energy=-27.420795440673828 free_energy=-27.420795440673828 stress="-3.7010111554991454e-05 -1.9549188934320227e-09 -1.9743040535757928e-09 -1.9549188934320227e-09 -3.701385867316276e-05 -4.682174647996362e-09 -1.9743040535757928e-09 -4.682174647996362e-09 -3.7008598155807704e-05" pbc="T T T"
Pb       2.02464001       1.43163704       3.50677929      -0.00000044       0.00000066      -0.00000025
Pb       6.07392026       4.29490978      10.52033808       0.00000055      -0.00000017       0.00000027
Be       0.00000003      -0.00000003      -0.00000002       0.00000034       0.00000034       0.00000033
Br       1.97405454       1.39586743       7.01355870       0.00036912       0.00026087      -0.00000036
Br       6.12450605       4.33067954       7.01355870      -0.00037068      -0.00026165      -0.00000057
Br       5.08689285       1.39586733       5.21636046      -0.00018490       0.00026164       0.00031997
Br       3.01166697       4.33067946       8.81075694       0.00018499      -0.00026149      -0.00031985
Br       3.01166717       4.33067921       5.21636065       0.00018548      -0.00026129       0.00031995
Br       5.08689289       1.39586722       8.81075694      -0.00018456       0.00026117      -0.00031941
