9
Lattice="5.712928484249674 1.9208710543578278e-07 3.2983604189734934 1.9043096170441138 5.386200730247268 3.29836052083056 6.79238984430594e-08 1.7277842010986184e-07 6.596720720299482" Properties=species:S:1:pos:R:3:forces:R:3 energy=-31.342090606689453 free_energy=-31.342090606689453 stress="-0.00023468743893317878 2.878230631608858e-08 4.1835641617637975e-09 2.878230631608858e-08 -0.00023478140064980835 1.2150352723949709e-08 4.1835641617637975e-09 1.2150352723949709e-08 -0.0002347304398426786" pbc="T T T"
Pb       1.90431012       1.34655013       3.29836071      -0.00000095      -0.00000064       0.00000138
Pb       5.71292862       4.03965134       9.89508196       0.00000084       0.00000166       0.00000050
Be      -0.00000016       0.00000006      -0.00000024       0.00000027       0.00000033       0.00000038
Cl       1.84649286       1.30566806       6.59672060       0.00199917       0.00141124      -0.00000002
Cl       5.77074462       4.08053288       6.59672101      -0.00199628      -0.00141358      -0.00000225
Cl       4.78968207       1.30566747       4.89747121      -0.00100087       0.00141598       0.00172651
Cl       2.82755663       4.08053314       8.29597011       0.00099710      -0.00141352      -0.00172594
Cl       2.82755598       4.08053321       4.89747138       0.00100109      -0.00141434       0.00172676
Cl       4.78968198       1.30566801       8.29597002      -0.00100052       0.00141276      -0.00172682
