9
Lattice="7.271167741696847 1.7504103736977556e-07 4.198010643508638 2.4237228165069307 6.855322394929663 4.198010520687109 1.1621708072956454e-07 -6.824712947144117e-08 8.39602108572336" Properties=species:S:1:pos:R:3:forces:R:3 energy=-24.082168579101562 free_energy=-24.082168579101562 stress="9.225625399267301e-05 1.8882758467952954e-08 3.634057499368737e-09 1.8882758467952954e-08 9.224606765201315e-05 -8.830368658507837e-10 3.634057499368737e-09 -8.830368658507837e-10 9.223184315487742e-05" pbc="T T T"
Pb       2.42372263       1.71383063       4.19801069       0.00000034      -0.00000010       0.00000039
Pb       7.27116801       5.14149180      12.59403159      -0.00000018      -0.00000026      -0.00000064
Ba       0.00000018       0.00000026       0.00000059      -0.00000131      -0.00000270      -0.00000229
I        2.68295369       1.89713477       8.39602111      -0.00419980      -0.00297005      -0.00000054
I        7.01193669       4.95818762       8.39602116       0.00420128       0.00297201       0.00000045
I        5.92969120       1.89713415       6.52151625       0.00209842      -0.00296845      -0.00363585
I        3.76519974       4.95818793      10.27052564      -0.00209977       0.00297061       0.00363734
I        3.76519946       4.95818818       6.52151644      -0.00209939       0.00296888      -0.00363654
I        5.92969107       1.89713471      10.27052551       0.00210039      -0.00296996       0.00363772
