9
Lattice="5.416998966770949 4.780695781622865e-09 3.1275059454049763 1.8056663205144416 5.107195752939046 3.127505956229985 3.5485142554600085e-08 3.834963181717766e-08 6.255011829347864" Properties=species:S:1:pos:R:3:forces:R:3 energy=-39.59632873535156 free_energy=-39.59632873535156 stress="0.00024274774477817118 -4.431019817729975e-08 1.768649049438409e-08 -4.431019817729975e-08 0.0002427112340228632 1.2515843472726829e-08 1.768649049438409e-08 1.2515843472726829e-08 0.00024276238400489092" pbc="T T T"
Pb       1.80566584       1.27679913       3.12750592      -0.00000162      -0.00000000      -0.00000067
Pb       5.41699893       3.83039650       9.38251737       0.00000055      -0.00000142      -0.00000042
Ba       0.00000007       0.00000004       0.00000009      -0.00000111      -0.00000348       0.00000253
F        1.95973035       1.38573888       6.25501181       0.00226137       0.00160020      -0.00000013
F        5.26293477       3.72145718       6.25501192      -0.00225927      -0.00159825       0.00000076
F        4.43713389       1.38573895       4.82468258      -0.00112721       0.00159703       0.00195536
F        2.78553175       3.72145693       7.68534142       0.00112893      -0.00159743      -0.00195488
F        2.78553186       3.72145667       4.82468255       0.00112760      -0.00159588       0.00195435
F        4.43713388       1.38573887       7.68534135      -0.00112912       0.00159907      -0.00195687
