9
Lattice="4.730209327168221 3.119133325321433e-08 2.730987753236368 1.5767364470242737 4.45968429740575 2.7309877961437548 -1.0818744319105543e-08 4.490060507930154e-08 5.461975525211363" Properties=species:S:1:pos:R:3:forces:R:3 energy=-44.98583984375 free_energy=-44.98583984375 stress="-2.6666698431654368e-06 2.8206207147718487e-08 -1.7709666622067743e-08 2.8206207147718487e-08 -2.7077146569354227e-06 -5.2804125516559e-09 -1.7709666622067743e-08 -5.2804125516559e-09 -2.607244596219971e-06" pbc="T T T"
Pb       1.57673641       1.11492128       2.73098776      -0.00000029      -0.00000098      -0.00000112
Pb       4.73020939       3.34476298       8.19296312       0.00000052       0.00000081       0.00000004
Be       0.00000004       0.00000009      -0.00000048       0.00000020      -0.00000103       0.00000117
F        1.44521242       1.02191961       5.46197552       0.00269496       0.00190514      -0.00000003
F        4.86173332       3.43776470       5.46197565      -0.00269699      -0.00190616      -0.00000071
F        4.00760290       1.02191952       3.98257878      -0.00134808       0.00190759       0.00233424
F        2.29934268       3.43776470       6.94137252       0.00134876      -0.00190586      -0.00233385
F        2.29934251       3.43776474       3.98257874       0.00134924      -0.00190693       0.00233424
F        4.00760334       1.02191972       6.94137248      -0.00134790       0.00190678      -0.00233430
