9
Lattice="6.782465693142829 -4.7331335066966113e-08 3.9158584436868216 2.260821876620724 6.394569915482249 3.915858402930196 1.121446409690558e-08 -4.1986652825024754e-08 7.831716867949558" Properties=species:S:1:pos:R:3:forces:R:3 energy=-26.75458335876465 free_energy=-26.75458335876465 stress="9.620676428312436e-05 -9.442480575216905e-09 1.7671432372967644e-10 -9.442480575216905e-09 9.622661309549585e-05 6.451062795065354e-09 1.7671432372967644e-10 6.451062795065354e-09 9.621120261726901e-05" pbc="T T T"
Pb       2.26082213       1.59864218       3.91585859       0.00000157      -0.00000057      -0.00000049
Pb       6.78246600       4.79592800      11.74757503       0.00000147       0.00000223      -0.00000127
Ba       0.00000010      -0.00000015       0.00000074      -0.00000054       0.00000035      -0.00001118
Br       2.49734108       1.76588675       7.83171680      -0.00167038      -0.00118214      -0.00000006
Br       6.54594617       4.62868300       7.83171698       0.00167077       0.00118261       0.00000051
Br       5.53379483       1.76588654       6.07861914       0.00083309      -0.00118057      -0.00144503
Br       3.50949273       4.62868273       9.58481425      -0.00083852       0.00118409       0.00145105
Br       3.50949227       4.62868336       6.07861920      -0.00083428       0.00117899      -0.00144364
Br       5.53379499       1.76588689       9.58481427       0.00083685      -0.00118502       0.00145011
