9
Lattice="6.42603004655521 -1.0354009749065693e-07 3.710070244286042 2.1420099455460337 6.05851893697557 3.710070196401457 4.741114720574495e-08 -2.51217035735967e-08 7.420140406453624" Properties=species:S:1:pos:R:3:forces:R:3 energy=-29.852373123168945 free_energy=-29.852373123168945 stress="0.00019316005636937916 -1.4651088342532148e-08 1.0355557300556484e-08 -1.4651088342532148e-08 0.0001931509468704462 1.9781250415462637e-08 1.0355557300556484e-08 1.9781250415462637e-08 0.0001931899896590039" pbc="T T T"
Pb       2.14201043       1.51462990       3.71007011       0.00000260       0.00000198       0.00000000
Pb       6.42603019       4.54388882      11.13021020      -0.00000051       0.00000029      -0.00000185
Ba       0.00000017      -0.00000041      -0.00000015      -0.00000285       0.00001049       0.00000292
Cl       2.35358509       1.66423613       7.42014031      -0.00243750      -0.00172208       0.00000034
Cl       6.21445518       4.39428291       7.42014047       0.00243295       0.00172056       0.00000091
Cl       5.24923680       1.66423632       5.74833518       0.00121927      -0.00172759      -0.00211421
Cl       3.31880260       4.39428284       9.09194626      -0.00121530       0.00171893       0.00210816
Cl       3.31880252       4.39428254       5.74833499      -0.00121772       0.00172308      -0.00210894
Cl       5.24923719       1.66423618       9.09194606       0.00121903      -0.00172561       0.00211261
