9
Lattice="4.806859428587626 -2.8867782459628066e-08 2.7752415612324 1.6022864276744317 4.53195058846845 2.7752415981330594 -1.1431686600339707e-08 3.7110520439825074e-08 5.550483142264984" Properties=species:S:1:pos:R:3:forces:R:3 energy=-45.80927658081055 free_energy=-45.80927658081055 stress="0.00018561776960268617 2.9676224144736807e-08 2.1364712665672414e-08 2.9676224144736807e-08 0.00018567654478829354 2.4824542421697515e-08 2.1364712665672414e-08 2.4824542421697515e-08 0.0001856574381235987" pbc="T T T"
Pb       1.60228665       1.13298748       2.77524206       0.00000185      -0.00000021       0.00000121
Pb       4.80685909       3.39896286       8.32572449      -0.00000181       0.00000056      -0.00000032
Co       0.00000030       0.00000031      -0.00000017       0.00000231       0.00000202      -0.00000033
O        1.48073753       1.04703932       5.55048310      -0.00327158      -0.00231400      -0.00000089
O        4.92840803       3.48491105       5.55048318       0.00326961       0.00231239       0.00000010
O        4.06649032       1.04703965       4.05759785       0.00163394      -0.00231290      -0.00283307
O        2.34265586       3.48491078       7.04336824      -0.00163481       0.00231361       0.00283319
O        2.34265557       3.48491064       4.05759799      -0.00163537       0.00231197      -0.00283366
O        4.06648997       1.04704008       7.04336833       0.00163579      -0.00231355       0.00283307
