9
Lattice="6.646470535926408 -3.5625486926593096e-09 3.8373415068785235 2.2154901927655635 6.266352366592613 3.8373414765984633 8.02957487809257e-09 -3.14076650806862e-08 7.674682999849359" Properties=species:S:1:pos:R:3:forces:R:3 energy=-25.799779891967773 free_energy=-25.799779891967773 stress="-1.0971198207698762e-05 2.4318511648857566e-09 2.1642820868805757e-09 2.4318511648857566e-09 -1.0968043170578312e-05 5.102633870990303e-09 2.1642820868805757e-09 5.102633870990303e-09 -1.097062249755254e-05" pbc="T T T"
Pb       2.21549022       1.56658794       3.83734142      -0.00000077       0.00000003      -0.00000002
Pb       6.64647083       4.69976424      11.51202466       0.00000068      -0.00000013       0.00000035
Co      -0.00000011      -0.00000004      -0.00000005       0.00000028       0.00000031      -0.00000083
I        2.18445854       1.54464553       7.67468304       0.00003251       0.00002303      -0.00000034
I        6.67750211       4.72170702       7.67468286      -0.00003300      -0.00002389      -0.00000019
I        5.55424129       1.54464545       5.72913798      -0.00001644       0.00002375       0.00002916
I        3.30771951       4.72170694       9.62022808       0.00001587      -0.00002273      -0.00002864
I        3.30771935       4.72170700       5.72913798       0.00001656      -0.00002340       0.00002907
I        5.55424117       1.54464524       9.62022798      -0.00001577       0.00002311      -0.00002863
