9
Lattice="6.273714869556899 5.4775420581398254e-08 3.622130972235686 2.091238317064042 5.914915031551419 3.6221310145515453 -1.4229084111802947e-08 4.1764659486443654e-08 7.244261969116853" Properties=species:S:1:pos:R:3:forces:R:3 energy=-33.26224136352539 free_energy=-33.26224136352539 stress="7.391399412881583e-05 -8.96013219175984e-09 -1.0361657309942984e-08 -8.96013219175984e-09 7.394039130304009e-05 7.941094004593197e-09 -1.0361657309942984e-08 7.941094004593197e-09 7.392031693598256e-05" pbc="T T T"
Pb       2.09123888       1.47872885       3.62213097       0.00000080       0.00000068       0.00000023
Pb       6.27371488       4.43618622      10.86639231       0.00000005      -0.00000026      -0.00000159
Cr      -0.00000001      -0.00000041       0.00000040      -0.00000083       0.00000411       0.00000084
Br       2.02858528       1.43442671       7.24426182      -0.00825576      -0.00583756      -0.00000002
Br       6.33636792       4.48048847       7.24426211       0.00825329       0.00583767       0.00000101
Br       5.25942175       1.43442703       5.37893811       0.00412905      -0.00584095      -0.00715309
Br       3.10553098       4.48048847       9.10958626      -0.00412676       0.00583725       0.00714868
Br       3.10553092       4.48048841       5.37893775      -0.00412745       0.00583760      -0.00714715
Br       5.25942210       1.43442676       9.10958607       0.00412756      -0.00583858       0.00715099
