9
Lattice="5.089963694003923 -6.8066332109447376e-09 2.93869181295291 1.6966545990732322 4.798863590242323 2.938691742246071 -3.648215645801985e-08 -1.12394615197635e-07 5.877383689094777" Properties=species:S:1:pos:R:3:forces:R:3 energy=-37.78934860229492 free_energy=-37.78934860229492 stress="0.00015069489018060267 3.232518963613984e-08 3.521119840144138e-09 3.232518963613984e-08 0.0001506841363152489 6.616777681323072e-10 3.521119840144138e-09 6.616777681323072e-10 0.0001506844419054687" pbc="T T T"
Pb       1.69665431       1.19971545       2.93869146       0.00000004      -0.00000081       0.00000089
Pb       5.08996361       3.59914776       8.81607557      -0.00000033      -0.00000035      -0.00000094
Cd       0.00000016      -0.00000024      -0.00000032      -0.00000270       0.00000680       0.00001070
F        1.76043454       1.24481501       5.87738372       0.00044754       0.00031626       0.00000118
F        5.02618378       3.55404853       5.87738387      -0.00044969      -0.00031698       0.00000018
F        4.20974658       1.24481488       4.46327258      -0.00022276       0.00031492       0.00038660
F        2.57687174       3.55404892       7.29149483       0.00022960      -0.00032383      -0.00039634
F        2.57687154       3.55404865       4.46327239       0.00022465      -0.00031665       0.00038922
F        4.20974690       1.24481476       7.29149480      -0.00022624       0.00032064      -0.00039130
