9
Lattice="6.198694393206393 -9.14573063454967e-08 3.5788179063443732 2.0662314043937466 5.844185048573402 3.578817860932775 3.369006899964703e-08 -3.17952002863787e-08 7.157635754335891" Properties=species:S:1:pos:R:3:forces:R:3 energy=-29.1832275390625 free_energy=-29.1832275390625 stress="3.775409368245164e-06 2.544307431406878e-09 -2.142120703041428e-09 2.544307431406878e-09 3.758352022487088e-06 -4.494441707691976e-09 -2.142120703041428e-09 -4.494441707691976e-09 3.7637935292877955e-06" pbc="T T T"
Pb       2.06623154       1.46104570       3.57881803       0.00000014      -0.00000173       0.00000133
Pb       6.19869458       4.38313878      10.73645320       0.00000069      -0.00000012      -0.00000191
Co       0.00000007      -0.00000002      -0.00000007      -0.00000014       0.00000037       0.00000008
Br       2.03141264       1.43642548       7.15763567      -0.00153330      -0.00108369       0.00000054
Br       6.23351311       4.40775957       7.15763593       0.00153332       0.00108488       0.00000046
Br       5.18298787       1.43642556       5.33807294       0.00076682      -0.00108458      -0.00132830
Br       3.08193782       4.40775962       8.97719882      -0.00076713       0.00108384       0.00132737
Br       3.08193775       4.40775938       5.33807282      -0.00076732       0.00108488      -0.00132789
Br       5.18298796       1.43642564       8.97719875       0.00076687      -0.00108385       0.00132832
