9
Lattice="5.837663082913075 -6.239733830047437e-08 3.3703761707958986 1.945887660540722 5.503801413038797 3.3703761273818444 -1.2541685896081114e-08 -6.203949000718331e-08 6.740752363314613" Properties=species:S:1:pos:R:3:forces:R:3 energy=-39.98607635498047 free_energy=-39.98607635498047 stress="6.538278830703348e-05 2.07692529841097e-08 -1.0926894944418564e-08 2.07692529841097e-08 6.54509785817936e-05 -4.166486711199013e-09 -1.0926894944418564e-08 -4.166486711199013e-09 6.54246614431031e-05" pbc="T T T"
Pb       1.94588776       1.37595026       3.37037650      -0.00000073       0.00000110      -0.00000022
Pb       5.83766304       4.12785095      10.11112844       0.00000161      -0.00000104       0.00000000
Cr       0.00000010       0.00000021      -0.00000013       0.00000016       0.00000059       0.00000390
Se       1.98584845       1.40420676       6.74075233      -0.00163456      -0.00115547      -0.00000078
Se       5.79770230       4.09959443       6.74075220       0.00163350       0.00115508      -0.00000033
Se       4.84473884       1.40420682       5.09017135       0.00081684      -0.00115528      -0.00141460
Se       2.93881169       4.09959446       8.39133334      -0.00081540       0.00115327       0.00141329
Se       2.93881193       4.09959446       5.09017134      -0.00081703       0.00115540      -0.00141494
Se       4.84473881       1.40420678       8.39133326       0.00081554      -0.00115370       0.00141358
