9
Lattice="4.830034349779586 -1.2850009237518235e-07 2.7886220158990613 1.6100113260453235 4.553799957678082 2.7886220206278756 1.4487818514194376e-07 1.0823584441483691e-07 5.577243780861753" Properties=species:S:1:pos:R:3:forces:R:3 energy=-40.19475555419922 free_energy=-40.19475555419922 stress="-0.00017729612591210753 -1.4693767980133998e-07 2.9586686878246837e-08 -1.4693767980133998e-07 -0.00017744647630024701 -5.042437578595127e-08 2.9586686878246837e-08 -5.042437578595127e-08 -0.0001772212708601728" pbc="T T T"
Pb       1.61001134       1.13844995       2.78862195       0.00000067      -0.00000103       0.00000006
Pb       4.83003429       3.41535025       8.36586593      -0.00000094       0.00000068      -0.00000052
C       -0.00000004       0.00000028       0.00000068       0.00000811      -0.00000683      -0.00001130
F        1.48397495       1.04932730       5.57724363       0.00170612       0.00121433       0.00000021
F        4.95607085       3.50447245       5.57724435      -0.00170881      -0.00121278      -0.00000113
F        4.08804696       1.04932723       4.07378113      -0.00085279       0.00121289       0.00148094
F        2.35199974       3.50447133       7.08070586       0.00084564      -0.00120229      -0.00147027
F        2.35199895       3.50447254       4.07378198       0.00084946      -0.00120747       0.00147426
F        4.08804668       1.04932841       7.08070632      -0.00084752       0.00120264      -0.00147271
