9
Lattice="6.241607495375419 3.9247936184555715e-08 3.6035937317957267 2.080535916128833 5.884643627026473 3.603593649811416 1.1784820373920864e-07 -1.7078722438786288e-08 7.207187259472388" Properties=species:S:1:pos:R:3:forces:R:3 energy=-25.47601318359375 free_energy=-25.47601318359375 stress="0.00019469230028335005 -9.28593113513898e-09 -1.296169949149828e-09 -9.28593113513898e-09 0.00019469014659989625 -7.165270599074347e-10 -1.296169949149828e-09 -7.165270599074347e-10 0.0001946877018781379" pbc="T T T"
Pb       2.08053582       1.47116108       3.60359362      -0.00000072       0.00000090      -0.00000008
Pb       6.24160754       4.41348245      10.81078074       0.00000082      -0.00000101      -0.00000112
C       -0.00000043       0.00000027      -0.00000002       0.00000081      -0.00000177       0.00000019
Br       2.06186807       1.45796143       7.20718732      -0.00353338      -0.00249928      -0.00000037
Br       6.26027512       4.42668253       7.20718743       0.00353383       0.00249931       0.00000026
Br       5.21067390       1.45796123       5.38922447       0.00176661      -0.00249848      -0.00306080
Br       3.11147024       4.42668223       9.02515037      -0.00176725       0.00249943       0.00306295
Br       3.11147007       4.42668212       5.38922435      -0.00176700       0.00249942      -0.00306235
Br       5.21067384       1.45796124       9.02515028       0.00176617      -0.00249855       0.00306125
