9
Lattice="5.997347667261583 -9.579711400433229e-08 3.462570284240527 1.999115755742112 5.654353418231949 3.4625703587649617 -1.9763274050097887e-07 -4.8474086885116107e-08 6.92514091079108" Properties=species:S:1:pos:R:3:forces:R:3 energy=-27.401779174804688 free_energy=-27.401779174804688 stress="-6.064383705961518e-05 1.3480977223423452e-08 -2.6399654018405272e-08 1.3480977223423452e-08 -6.063891851226799e-05 -5.375088818482254e-09 -2.6399654018405272e-08 -5.375088818482254e-09 -6.0661619500024244e-05" pbc="T T T"
Pb       1.99911597       1.41358792       3.46257085       0.00000010       0.00000056       0.00000061
Pb       5.99734761       4.24076559      10.38771117       0.00000032       0.00000240       0.00000177
Cd      -0.00000031       0.00000013       0.00000048       0.00000271      -0.00000183      -0.00000659
Cl       2.05679499       1.45437350       6.92514084      -0.00711970      -0.00503364      -0.00000127
Cl       5.93966856       4.19997997       6.92514055       0.00711769       0.00503289      -0.00000229
Cl       4.96894988       1.45437340       5.24380674       0.00355813      -0.00503439      -0.00616392
Cl       3.02751312       4.19997960       8.60647439      -0.00356119       0.00503760       0.00616950
Cl       3.02751312       4.19997944       5.24380706      -0.00355931       0.00503225      -0.00616449
Cl       4.96894993       1.45437353       8.60647413       0.00356130      -0.00503588       0.00616668
