9
Lattice="6.875840595138399 -2.3441667587267977e-07 3.969768633655212 2.2919468144284867 6.482604383167509 3.9697683385265647 2.2651403265259267e-07 -2.0128758380294863e-07 7.939536874976521" Properties=species:S:1:pos:R:3:forces:R:3 energy=-20.75596046447754 free_energy=-20.75596046447754 stress="-6.969920650590211e-05 8.468671097716651e-09 8.41551184294076e-09 8.468671097716651e-09 -6.970445974729955e-05 -9.312467241784361e-09 8.41551184294076e-09 -9.312467241784361e-09 -6.969451351324096e-05" pbc="T T T"
Pb       2.29194687       1.62065136       3.96976842       0.00000034       0.00000107       0.00000006
Pb       6.87584051       4.86195242      11.90930538      -0.00000041      -0.00000217       0.00000020
Cd      -0.00000011      -0.00000004       0.00000014      -0.00000006      -0.00000033      -0.00000110
I        2.39364409       1.69256216       7.93953691      -0.00207183      -0.00146487      -0.00000016
I        6.77414358       4.79004186       7.93953685       0.00207154       0.00146514      -0.00000009
I        5.67901854       1.69256220       6.04272489       0.00103575      -0.00146389      -0.00179426
I        3.48876944       4.79004185       9.83634899      -0.00103614       0.00146522       0.00179484
I        3.48876913       4.79004181       6.04272518      -0.00103550       0.00146584      -0.00179476
I        5.67901851       1.69256217       9.83634865       0.00103632      -0.00146605       0.00179522
