9
Lattice="6.101237002414997 -1.371116779169184e-07 3.5225508740978855 2.033745527937329 5.752301502326148 3.522550891875982 -4.9892206590416435e-08 -1.3505464334487233e-08 7.045101834611561" Properties=species:S:1:pos:R:3:forces:R:3 energy=-31.770265579223633 free_energy=-31.770265579223633 stress="7.239688420668244e-05 -2.4386940467024942e-08 1.0600239797042832e-08 -2.4386940467024942e-08 7.241473940666765e-05 -3.045725449624115e-08 1.0600239797042832e-08 -3.045725449624115e-08 7.244166044984013e-05" pbc="T T T"
Pb       2.03374586       1.43807601       3.52255099       0.00000173       0.00000176      -0.00000158
Pb       6.10123642       4.31422630      10.56765293      -0.00000259      -0.00000027       0.00000080
Ca      -0.00000005      -0.00000008       0.00000068       0.00000230      -0.00000284      -0.00000838
Cl       2.11836959       1.49791338       7.04510189      -0.00267753      -0.00189480      -0.00000063
Cl       6.01661267       4.25438765       7.04510177       0.00267978       0.00189348      -0.00000091
Cl       5.04205236       1.49791328       5.35711258       0.00133729      -0.00189148      -0.00231721
Cl       3.09293072       4.25438712       8.73309021      -0.00134330       0.00189838       0.00232682
Cl       3.09293092       4.25438749       5.35711318      -0.00134059       0.00189486      -0.00232407
Cl       5.04205139       1.49791428       8.73309017       0.00134293      -0.00189898       0.00232510
