9
Lattice="7.010286076739861 -6.638658467885429e-08 4.04739076185408 2.3367619358202263 6.6093612498993535 4.047390808913801 -1.3194172046069221e-08 4.830647716657771e-08 8.09478154656113" Properties=species:S:1:pos:R:3:forces:R:3 energy=-24.53045082092285 free_energy=-24.53045082092285 stress="-8.133150686262525e-07 -8.57864712600076e-09 -1.1595425730703823e-09 -8.57864712600076e-09 -8.028858928810223e-07 -9.23155418774968e-09 -1.1595425730703823e-09 -9.23155418774968e-09 -7.925262934804778e-07" pbc="T T T"
Pb       2.33676195       1.65234017       4.04739080      -0.00000047       0.00000044       0.00000055
Pb       7.01028610       4.95702091      12.14217274       0.00000081      -0.00000081       0.00000126
Ca       0.00000030       0.00000039       0.00000190      -0.00000149      -0.00000256      -0.00001211
I        2.47813812       1.75230841       8.09478164      -0.00611331      -0.00432172      -0.00000012
I        6.86890932       4.85705240       8.09478138       0.00611594       0.00432499      -0.00000194
I        5.77121699       1.75230824       6.19352150       0.00305521      -0.00432107      -0.00529291
I        3.57583186       4.85705225       9.99604051      -0.00306057       0.00432744       0.00529883
I        3.57583104       4.85705288       6.19352142      -0.00305587       0.00432121      -0.00529297
I        5.77121633       1.75230925       9.99604058       0.00305975      -0.00432792       0.00529939
