9
Lattice="5.427048167331702 5.686577035109766e-07 3.1333085615961536 1.8090173686919235 5.11666323733214 3.133307216175739 2.510806870813261e-06 1.2761170918305236e-07 6.266612774347339" Properties=species:S:1:pos:R:3:forces:R:3 energy=-36.31336975097656 free_energy=-36.31336975097656 stress="5.343225348042324e-05 -2.425490208679548e-07 -1.601588621724659e-07 -2.425490208679548e-07 5.3306132031138986e-05 2.12769091234577e-08 -1.601588621724659e-07 2.12769091234577e-08 5.31086880073417e-05" pbc="T T T"
Pb       1.80902136       1.27916536       3.13332003       0.00013652       0.00003166       0.00030428
Pb       5.42705748       3.83749864       9.39994069       0.00012689       0.00003280       0.00029628
C       -0.00010729      -0.00002580      -0.00024676      -0.00281264      -0.00064057      -0.00646351
S        1.61368706       1.14105538       6.26658732       0.00241214       0.00184345      -0.00058866
S        5.62248167       3.97569569       6.26658677       0.00024056       0.00028664      -0.00059369
S        4.62018023       1.14106709       4.53080681      -0.00192454       0.00229275       0.00232351
S        2.61577422       3.97571372       8.00252566      -0.00084874       0.00074351       0.00041217
S        2.61588426       3.97556417       4.53083627       0.00187954      -0.00307006       0.00311679
S        4.62029188       1.14091970       8.00255905       0.00079048      -0.00152057       0.00119346
