9
Lattice="4.823926319536589 -3.747303294092518e-08 2.78509523786902 1.6079753664108014 4.548041423335397 2.7850953038685056 -5.0931150928120393e-08 4.4818741469572864e-08 5.570190563953415" Properties=species:S:1:pos:R:3:forces:R:3 energy=-50.605106353759766 free_energy=-50.605106353759766 stress="0.0002806532138492912 2.6528919505608428e-08 -4.341920600836602e-09 2.6528919505608428e-08 0.0002806551055982709 5.808178116240015e-08 -4.341920600836602e-09 5.808178116240015e-08 0.0002806523407343775" pbc="T T T"
Pb       1.60797505       1.13701017       2.78509538      -0.00000041      -0.00000080      -0.00000007
Pb       4.82392625       3.41103090       8.35528596       0.00000015      -0.00000094      -0.00000107
Cr       0.00000004      -0.00000004      -0.00000031      -0.00000179      -0.00000102       0.00000382
O        1.50737365       1.06587441       5.57019037      -0.00294530      -0.00208238       0.00000052
O        4.92452785       3.48216721       5.57019027       0.00294784       0.00208500       0.00000066
O        4.07023955       1.06587444       4.09051949       0.00147389      -0.00208473      -0.00255150
O        2.36166242       3.48216706       7.04986208      -0.00147191       0.00208104       0.00254935
O        2.36166213       3.48216713       4.09051945      -0.00147441       0.00208485      -0.00255165
O        4.07023969       1.06587448       7.04986180       0.00147198      -0.00208142       0.00254914
