9
Lattice="5.058106686025755 1.869502942437701e-08 2.920299296662712 1.6860356094716364 4.768828636955744 2.920299244983076 5.3159153406881976e-08 -2.5705132426204073e-08 5.840598501251068" Properties=species:S:1:pos:R:3:forces:R:3 energy=-43.26469039916992 free_energy=-43.26469039916992 stress="0.00013146281708031893 2.539485421948484e-08 -2.214697225610962e-08 2.539485421948484e-08 0.00013135795597918332 2.2690040069051065e-08 -2.214697225610962e-08 2.2690040069051065e-08 0.00013139187649358064" pbc="T T T"
Pb       1.68603561       1.19220761       2.92029938       0.00000076       0.00000262       0.00000066
Pb       5.05810684       3.57662169       8.76089768       0.00000122       0.00000105       0.00000042
Ca      -0.00000003      -0.00000032      -0.00000030      -0.00000020       0.00000392       0.00001009
F        1.74539652       1.23418193       5.84059833       0.00033173       0.00023443      -0.00000019
F        4.99874596       3.53464690       5.84059846      -0.00033344      -0.00023638       0.00000048
F        4.18540859       1.23418150       4.43185693      -0.00016464       0.00023291       0.00028729
F        2.55873363       3.53464710       7.24934054       0.00016905      -0.00024113      -0.00029349
F        2.55873358       3.53464677       4.43185678       0.00016668      -0.00023670       0.00028872
F        4.18540864       1.23418128       7.24934049      -0.00017097       0.00023924      -0.00029408
