9
Lattice="6.445693474627449 -1.9328008791524207e-08 3.7214228496762485 2.148564491398908 6.0770580299779855 3.7214228183624143 1.9215031960995106e-08 -2.476437672708163e-08 7.442845666071107" Properties=species:S:1:pos:R:3:forces:R:3 energy=-27.991422653198242 free_energy=-27.991422653198242 stress="-0.0002775715838652104 -1.2424793416343505e-09 7.118212130841073e-10 -1.2424793416343505e-09 -0.0002775770262815058 -6.071692038034371e-09 7.118212130841073e-10 -6.071692038034371e-09 -0.00027756395866163075" pbc="T T T"
Pb       2.14856447       1.51926449       3.72142279      -0.00000038      -0.00000156      -0.00000063
Pb       6.44569347       4.55779337      11.16426866       0.00000054      -0.00000112       0.00000077
Ca       0.00000002       0.00000000       0.00000010      -0.00000045       0.00000041      -0.00000097
Br       2.24965828       1.59074872       7.44284565      -0.00014518      -0.00010156       0.00000041
Br       6.34459966       4.48630932       7.44284558       0.00014401       0.00010229      -0.00000076
Br       5.32086436       1.59074865       5.66968407       0.00007220      -0.00010174      -0.00012508
Br       3.27339370       4.48630934       9.21600718      -0.00007185       0.00010293       0.00012455
Br       3.27339370       4.48630941       5.66968408      -0.00007192       0.00010244      -0.00012427
Br       5.32086431       1.59074864       9.21600721       0.00007302      -0.00010204       0.00012593
