9
Lattice="5.8392784396856 6.647251918722815e-08 3.3713090513501593 1.9464261017994708 5.5053246087442815 3.3713092374300335 -3.852102056125009e-08 2.0066184593608305e-07 6.742618169420704" Properties=species:S:1:pos:R:3:forces:R:3 energy=-32.73686981201172 free_energy=-32.73686981201172 stress="-3.0088172934483737e-05 1.6890812304382052e-08 1.4873275944182751e-08 1.6890812304382052e-08 -3.005498365382664e-05 6.659218065863115e-09 1.4873275944182751e-08 6.659218065863115e-09 -3.0065917599131353e-05" pbc="T T T"
Pb       1.94642595       1.37633132       3.37130900      -0.00000031      -0.00000119      -0.00000125
Pb       5.83927883       4.12899419      10.11392613       0.00000102       0.00000206      -0.00000208
Co       0.00000027      -0.00000002       0.00000040      -0.00000207      -0.00000344      -0.00000145
Cl       1.89024095       1.33660204       6.74261842      -0.00074410      -0.00052491      -0.00000070
Cl       5.89546287       4.16872279       6.74261826       0.00074790       0.00052653       0.00000247
Cl       4.89415828       1.33660156       5.00830595       0.00037028      -0.00052539      -0.00064157
Cl       2.89154685       4.16872303       8.47693073      -0.00037191       0.00052541       0.00064647
Cl       2.89154677       4.16872284       5.00830627      -0.00037404       0.00052487      -0.00064628
Cl       4.89415717       1.33660178       8.47693082       0.00037351      -0.00052398       0.00064459
