9
Lattice="6.263554451189982 -1.5038081059844414e-08 3.616264854151215 2.087851484820757 5.905335796048921 3.6162648277048364 1.945871313154832e-08 -1.8630653053409568e-08 7.23252967459898" Properties=species:S:1:pos:R:3:forces:R:3 energy=-36.06706237792969 free_energy=-36.06706237792969 stress="-6.933780969120562e-05 -8.567337062004299e-09 6.4930016918651745e-09 -8.567337062004299e-09 -6.932076212251559e-05 -1.6614077225085566e-08 6.4930016918651745e-09 -1.6614077225085566e-08 -6.931504321983084e-05" pbc="T T T"
Pb       2.08785104       1.47633376       3.61626511      -0.00000155      -0.00000136       0.00000097
Pb       6.26355461       4.42900152      10.84879422       0.00000045      -0.00000126      -0.00000110
Cr       0.00000018       0.00000016      -0.00000000      -0.00000132      -0.00000119      -0.00000105
Te       2.15522427       1.52397396       7.23252955      -0.00122535      -0.00086586       0.00000022
Te       6.19618150       4.38136174       7.23252977       0.00122689       0.00086738       0.00000052
Te       5.18594223       1.52397378       5.48274395       0.00061337      -0.00086663      -0.00106149
Te       3.16546386       4.38136226       8.98231527      -0.00061258       0.00086772       0.00106221
Te       3.16546353       4.38136198       5.48274416      -0.00061437       0.00086824      -0.00106316
Te       5.18594258       1.52397386       8.98231538       0.00061444      -0.00086698       0.00106295
