9
Lattice="6.610215886948418 3.352602418949919e-08 3.8164098816108205 2.203405352789086 6.232170929572979 3.8164098373900557 7.279967396806951e-09 -4.901161915805231e-08 7.632819750612316" Properties=species:S:1:pos:R:3:forces:R:3 energy=-23.176523208618164 free_energy=-23.176523208618164 stress="-0.0001665938034420833 2.740401905398926e-09 2.7319408957282576e-09 2.740401905398926e-09 -0.0001665987219894305 6.78656242314446e-09 2.7319408957282576e-09 6.78656242314446e-09 -0.00016659725224599242" pbc="T T T"
Pb       2.20340466       1.55804316       3.81640979      -0.00000174       0.00000011      -0.00000035
Pb       6.61021528       4.67412838      11.44922970      -0.00000209       0.00000139       0.00000013
C        0.00000012       0.00000002      -0.00000001       0.00000053       0.00000042      -0.00000021
I        2.19867842       1.55469989       7.63281981       0.00258988       0.00183058      -0.00000014
I        6.61494318       4.67747073       7.63281963      -0.00258929      -0.00183150       0.00000038
I        5.51087691       1.55470008       5.72052134      -0.00129433       0.00183092       0.00224274
I        3.30274470       4.67747058       9.54511835       0.00129564      -0.00183171      -0.00224239
I        3.30274480       4.67747083       5.72052111       0.00129551      -0.00183119       0.00224221
I        5.51087691       1.55469994       9.54511815      -0.00129426       0.00183102      -0.00224257
