9
Lattice="6.7761405098768215 -7.441910905340754e-08 3.912206664439846 2.258713426740885 6.388606629979053 3.9122066755048213 7.960894633419486e-08 6.984390905339669e-08 7.824413190993103" Properties=species:S:1:pos:R:3:forces:R:3 energy=-29.615171432495117 free_energy=-29.615171432495117 stress="-0.0001244365848833695 -1.4190868924401911e-08 -9.297056458024144e-09 -1.4190868924401911e-08 -0.00012442871229723096 6.199441404675099e-09 -9.297056458024144e-09 6.199441404675099e-09 -0.0001244269369635731" pbc="T T T"
Pb       2.25871347       1.59715183       3.91220683       0.00000065       0.00000008       0.00000028
Pb       6.77614032       4.79145479      11.73662002      -0.00000014       0.00000001       0.00000000
Cr       0.00000004       0.00000024       0.00000088       0.00000011      -0.00000052      -0.00000872
I        2.20434684       1.55870867       7.82441334       0.00300585       0.00212555      -0.00000017
I        6.83050720       4.82989778       7.82441321      -0.00300627      -0.00212529      -0.00000035
I        5.67396709       1.55870889       5.82122702      -0.00150337       0.00212591       0.00260404
I        3.36088718       4.82989728       9.82759889       0.00150041      -0.00212193      -0.00259939
I        3.36088705       4.82989789       5.82122683       0.00150434      -0.00212732       0.00260521
I        5.67396689       1.55870909       9.82759912      -0.00150164       0.00212350      -0.00260086
