9
Lattice="5.852070353178834 1.0940419684495673e-08 3.378694226535751 1.9506901406574881 5.51738466054396 3.378694204683425 4.438460468961689e-08 4.621071996745985e-09 6.757388376195201" Properties=species:S:1:pos:R:3:forces:R:3 energy=-28.033519744873047 free_energy=-28.033519744873047 stress="8.499874093104154e-05 4.859677105173432e-09 1.371544033901273e-08 4.859677105173432e-09 8.498170791426674e-05 -8.697317532835314e-09 1.371544033901273e-08 -8.697317532835314e-09 8.5016421508044e-05" pbc="T T T"
Pb       1.95069024       1.37934621       3.37869423      -0.00000060       0.00000059       0.00000059
Pb       5.85207022       4.13803831      10.13608314       0.00000040      -0.00000051       0.00000182
C       -0.00000002      -0.00000015      -0.00000003       0.00000034      -0.00000092      -0.00000202
Cl       1.94703308       1.37676065       6.75738834      -0.00106116      -0.00075164       0.00000174
Cl       5.85572682       4.14062425       6.75738768       0.00106552       0.00075261       0.00000199
Cl       4.87855397       1.37676039       5.06487480       0.00053037      -0.00075127      -0.00092143
Cl       2.92420681       4.14062426       8.44990237      -0.00053128       0.00075151       0.00091961
Cl       2.92420689       4.14062428       5.06487457      -0.00053262       0.00075151      -0.00092158
Cl       4.87855418       1.37676046       8.44990218       0.00052898      -0.00075178       0.00091942
