9
Lattice="5.006801523889153 5.851296040026334e-08 2.890678260431613 1.6689338890238776 4.720457622050918 2.890678273316487 6.688482820882122e-08 6.307533835108272e-08 5.781356405015359" Properties=species:S:1:pos:R:3:forces:R:3 energy=-47.72634506225586 free_energy=-47.72634506225586 stress="4.3117419409099966e-05 2.6337261260778178e-08 -5.103037548082057e-09 2.6337261260778178e-08 4.307604831410572e-05 -1.612909983350619e-08 -5.103037548082057e-09 -1.612909983350619e-08 4.3074189306935295e-05" pbc="T T T"
Pb       1.66893385       1.18011451       2.89067841      -0.00000008       0.00000000       0.00000028
Pb       5.00680154       3.54034328       8.67203478      -0.00000018      -0.00000047       0.00000020
Cr       0.00000012       0.00000004      -0.00000029      -0.00000329      -0.00000161       0.00001971
F        1.59482054       1.12770869       5.78135638       0.00100832       0.00071263       0.00000029
F        5.08091461       3.59274905       5.78135644      -0.00100398      -0.00071014      -0.00000078
F        4.20939126       1.12770861       4.27183340      -0.00050148       0.00070928       0.00086896
F        2.46634420       3.59274944       7.29087951       0.00050693      -0.00071730      -0.00087880
F        2.46634444       3.59274892       4.27183352       0.00050095      -0.00070877       0.00086831
F        4.20939139       1.12770849       7.29087953      -0.00050727       0.00071640      -0.00087811
