9
Lattice="6.195335729683174 -1.4074333541234996e-07 3.5768787056479883 2.065111805513857 5.841018298004333 3.5768786566075184 8.786178044535128e-08 2.065646416227346e-09 7.153757259114794" Properties=species:S:1:pos:R:3:forces:R:3 energy=-33.967796325683594 free_energy=-33.967796325683594 stress="-0.0003371097263880074 -3.353473587708322e-08 1.433549723373062e-08 -3.353473587708322e-08 -0.0003370944468770176 -7.614521457810497e-09 1.433549723373062e-08 -7.614521457810497e-09 -0.0003370923222973943" pbc="T T T"
Pb       2.06511200       1.46025419       3.57687853       0.00000034      -0.00000051      -0.00000033
Pb       6.19533569       4.38076376      10.73063586       0.00000037      -0.00000000      -0.00000004
Co       0.00000012      -0.00000009      -0.00000036       0.00000010       0.00000217       0.00000485
Te       2.02066988       1.42882949       7.15375735       0.00587778       0.00415633      -0.00000027
Te       6.23977789       4.41218866       7.15375750      -0.00587867      -0.00415657      -0.00000015
Te       5.18500025       1.42882900       5.32683047      -0.00293863       0.00415520       0.00508827
Te       3.07544647       4.41218923       8.98068441       0.00293970      -0.00415703      -0.00509047
Te       3.07544733       4.41218917       5.32683033       0.00293822      -0.00415463       0.00508834
Te       5.18500084       1.42882927       8.98068441      -0.00293919       0.00415502      -0.00509025
