9
Lattice="5.7959579125173075 -1.410568668299216e-07 3.3462977986157063 1.9319858478035428 5.464481553788371 3.3462977813746404 -1.5893540019832534e-07 -1.33500228930007e-07 6.6925958725156915" Properties=species:S:1:pos:R:3:forces:R:3 energy=-36.99397659301758 free_energy=-36.99397659301758 stress="3.2952226320048794e-05 1.4586287733209247e-08 -1.5781690620997324e-08 1.4586287733209247e-08 3.2935688068391755e-05 -4.027006728080096e-09 -1.5781690620997324e-08 -4.027006728080096e-09 3.294024645583704e-05" pbc="T T T"
Pb       1.93198547       1.36611994       3.34629767      -0.00000034       0.00000021       0.00000025
Pb       5.79595801       4.09836089      10.03889283      -0.00000015      -0.00000030      -0.00000095
Co      -0.00000005       0.00000019      -0.00000024      -0.00000104       0.00000026       0.00000278
Se       1.91310189       1.35276734       6.69259594      -0.00297798      -0.00210579      -0.00000073
Se       5.81484198       4.11171402       6.69259567       0.00297849       0.00210606       0.00000084
Se       4.83940698       1.35276719       5.00309276       0.00148901      -0.00210572      -0.00257869
Se       2.88853650       4.11171414       8.38209917      -0.00148773       0.00210476       0.00257747
Se       2.88853686       4.11171433       5.00309284      -0.00148907       0.00210599      -0.00257921
Se       4.83940675       1.35276711       8.38209912       0.00148890      -0.00210549       0.00257856
