9
Lattice="4.905318265758678 3.402757341729271e-08 2.832086760627686 1.6351061182132163 4.624778456479099 2.8320867648790773 -2.044226167227007e-08 -9.247989839303129e-09 5.66417355666239" Properties=species:S:1:pos:R:3:forces:R:3 energy=-40.33428955078125 free_energy=-40.33428955078125 stress="0.0006862272275611758 -1.6029472860168426e-08 -1.1656410059401878e-08 -1.6029472860168426e-08 0.0006862469599582255 1.0403972128258943e-09 -1.1656410059401878e-08 1.0403972128258943e-09 0.0006862476584501565" pbc="T T T"
Pb       1.63510624       1.15619470       2.83208689      -0.00000017       0.00000015      -0.00000021
Pb       4.90531815       3.46858382       8.49626022       0.00000037       0.00000029       0.00000043
Cu      -0.00000018       0.00000027       0.00000034       0.00000465      -0.00000575      -0.00001182
F        1.60737856       1.13658834       5.66417361      -0.00723982      -0.00511971      -0.00000023
F        4.93304579       3.48819008       5.66417352       0.00723982       0.00511858      -0.00000010
F        4.10162886       1.13658850       4.22411731       0.00361800      -0.00511605      -0.00626573
F        2.43879564       3.48818967       7.10422907      -0.00362349       0.00512397       0.00627694
F        2.43879552       3.48818999       4.22411758      -0.00362019       0.00511929      -0.00627092
F        4.10162894       1.13658841       7.10422966       0.00362112      -0.00512093       0.00627145
