9
Lattice="5.8329677514293605 -2.9063267061368175e-08 3.367665403842251 1.9443225460382816 5.499374617882965 3.367665421804235 -2.2995929405120033e-08 5.738254260407484e-09 6.735330847514623" Properties=species:S:1:pos:R:3:forces:R:3 energy=-29.254714965820312 free_energy=-29.254714965820312 stress="6.32701485301368e-05 1.289021334116569e-08 -3.3663065668321224e-09 1.289021334116569e-08 6.326022412395105e-05 -7.968237625277652e-09 -3.3663065668321224e-09 -7.968237625277652e-09 6.323747948044911e-05" pbc="T T T"
Pb       1.94432249       1.37484366       3.36766522      -0.00000014      -0.00000164       0.00000012
Pb       5.83296777       4.12453103      10.10299653       0.00000011       0.00000014       0.00000060
Cu       0.00000002      -0.00000007       0.00000003       0.00000074      -0.00000114      -0.00000169
Cl       1.92507010       1.36123028       6.73533071      -0.00448382      -0.00317073      -0.00000023
Cl       5.85222010       4.13814417       6.73533088       0.00448546       0.00317021      -0.00000134
Cl       4.87043219       1.36123003       5.03482506       0.00224204      -0.00316992      -0.00388178
Cl       2.90685809       4.13814457       8.43583628      -0.00224407       0.00317281       0.00388670
Cl       2.90685787       4.13814450       5.03482541      -0.00224182       0.00317161      -0.00388578
Cl       4.87043246       1.36123016       8.43583660       0.00224148      -0.00317149       0.00388321
