9
Lattice="4.895639520691769 -1.735315981591886e-08 2.8264986389309477 1.6318798595013841 4.615653233911672 2.8264985772152986 -2.4968181585667485e-08 -9.324109528509117e-08 5.652997321108015" Properties=species:S:1:pos:R:3:forces:R:3 energy=-43.27524185180664 free_energy=-43.27524185180664 stress="0.00019652994524221867 -4.322876279161392e-08 1.2714377106703978e-08 -4.322876279161392e-08 0.0001965267729246989 -3.094903178180175e-08 1.2714377106703978e-08 -3.094903178180175e-08 0.00019650510512292385" pbc="T T T"
Pb       1.63187954       1.15391321       2.82649863       0.00000141      -0.00000048       0.00000167
Pb       4.89563973       3.46173996       8.47949606       0.00000025      -0.00000056       0.00000025
Co       0.00000129      -0.00000073       0.00000077      -0.00002817       0.00001635      -0.00002520
F        1.57516670       1.11381113       5.65299711       0.00161178       0.00113945       0.00000052
F        4.95235199       3.50184174       5.65299709      -0.00160098      -0.00113299       0.00000008
F        4.10805569       1.11381143       4.19063335      -0.00080092       0.00113350       0.00138981
F        2.41946351       3.50184180       7.11536145       0.00080308      -0.00113566      -0.00139161
F        2.41946326       3.50184198       4.19063274       0.00080784      -0.00114340       0.00140153
F        4.10805571       1.11381194       7.11536092      -0.00079430       0.00112367      -0.00137690
