9
Lattice="5.494034033131197 1.4482210565809434e-08 3.1719820359985498 1.831344682481836 5.179825019181195 3.1719820513835275 -5.842094476236834e-09 1.4711687846156722e-08 6.343964082115898" Properties=species:S:1:pos:R:3:forces:R:3 energy=-42.7796630859375 free_energy=-42.7796630859375 stress="-0.0004745760525111109 8.789924343943767e-09 -1.2548902361686487e-08 8.789924343943767e-09 -0.0004745623446069658 -5.271907799198061e-09 -1.2548902361686487e-08 -5.271907799198061e-09 -0.00047453248407691717" pbc="T T T"
Pb       1.83134474       1.29495622       3.17198202      -0.00000092       0.00000077       0.00000005
Pb       5.49403401       3.88486882       9.51594603       0.00000085      -0.00000046       0.00000014
Cr      -0.00000005      -0.00000001       0.00000007       0.00000116       0.00000163      -0.00000079
S        1.84565566       1.30507573       6.34396411      -0.00381333      -0.00269690      -0.00000036
S        5.47972310       3.87474939       6.34396411       0.00381228       0.00269601      -0.00000026
S        4.57120622       1.30507558       4.77036669       0.00190629      -0.00269556      -0.00330266
S        2.75417252       3.87474933       7.91756143      -0.00190684       0.00269622       0.00330284
S        2.75417247       3.87474935       4.77036674      -0.00190611       0.00269604      -0.00330240
S        4.57120616       1.30507576       7.91756146       0.00190711      -0.00269735       0.00330356
