9
Lattice="6.291794973369176 -2.4224550680839285e-08 3.632569563727073 2.0972649662520335 5.931961215586151 3.632569567246431 3.7529930070902076e-09 6.96408651705214e-09 7.265139120953765" Properties=species:S:1:pos:R:3:forces:R:3 energy=-35.54350662231445 free_energy=-35.54350662231445 stress="-0.00026521855033934116 5.310749173759177e-09 -1.5144220322227397e-09 5.310749173759177e-09 -0.0002652342082001269 -8.603308065957549e-10 -1.5144220322227397e-09 -8.603308065957549e-10 -0.00026523799169808626" pbc="T T T"
Pb       2.09726493       1.48299031       3.63256957       0.00000047       0.00000040      -0.00000035
Pb       6.29179507       4.44897102      10.89770863       0.00000019      -0.00000034       0.00000021
Fe       0.00000003       0.00000003       0.00000005      -0.00000112      -0.00000077       0.00000230
Te       1.96448409       1.38910002       7.26513911      -0.00808471      -0.00571647      -0.00000042
Te       6.42457598       4.54286118       7.26513916       0.00808597       0.00571771      -0.00000039
Te       5.30955285       1.38909995       5.33386285       0.00404200      -0.00571650      -0.00700139
Te       3.07950703       4.54286114       9.19641547      -0.00404163       0.00571556       0.00700064
Te       3.07950695       4.54286117       5.33386274      -0.00404254       0.00571627      -0.00700132
Te       5.30955285       1.38910001       9.19641544       0.00404136      -0.00571587       0.00700073
