9
Lattice="5.8791981633573585 1.741387645022995e-08 3.3943566918112476 1.9597327046675177 5.54296136718775 3.39435674874292 -9.93784307262945e-08 -5.443899649538542e-10 6.788713555751003" Properties=species:S:1:pos:R:3:forces:R:3 energy=-39.043495178222656 free_energy=-39.043495178222656 stress="0.0002774229214992374 1.811126892903303e-08 -6.523189544083152e-09 1.811126892903303e-08 0.0002774172171484679 -8.183201671840834e-09 -6.523189544083152e-09 -8.183201671840834e-09 0.000277394283330068" pbc="T T T"
Pb       1.95973303       1.38574038       3.39435687       0.00000143       0.00000170       0.00000012
Pb       5.87919789       4.15722109      10.18307036       0.00000017       0.00000106       0.00000008
Fe      -0.00000005       0.00000009       0.00000016       0.00000266      -0.00000256       0.00000006
Se       1.87757693       1.32764746       6.78871334      -0.00647834      -0.00458145      -0.00000011
Se       5.96135400       4.21531428       6.78871358       0.00647610       0.00457901      -0.00000006
Se       4.94040956       1.32764709       5.02038588       0.00323810      -0.00457898      -0.00560746
Se       2.89852100       4.21531412       8.55704082      -0.00323915       0.00458024       0.00560910
Se       2.89852086       4.21531385       5.02038586      -0.00323910       0.00458014      -0.00560911
Se       4.94040979       1.32764715       8.55704109       0.00323835      -0.00457904       0.00560740
