9
Lattice="4.766196145780141 3.144132412570929e-08 2.751764634600724 1.588732049726161 4.493612971588467 2.75176468398213 -2.837327399611182e-08 4.0416679019551576e-08 5.5035293183453815" Properties=species:S:1:pos:R:3:forces:R:3 energy=-47.27619934082031 free_energy=-47.27619934082031 stress="5.212779433350079e-05 1.042991115696168e-08 -3.035082585256532e-08 1.042991115696168e-08 5.21885376656428e-05 3.9564657328128305e-08 -3.035082585256532e-08 3.9564657328128305e-08 5.215954297455028e-05" pbc="T T T"
Pb       1.58873209       1.12340325       2.75176463       0.00000004      -0.00000034       0.00000047
Pb       4.76619635       3.37020949       8.25529400       0.00000064      -0.00000104      -0.00000043
Fe      -0.00000033      -0.00000004       0.00000003       0.00000343       0.00000109      -0.00000335
O        1.46344140       1.03480982       5.50352919      -0.00198910      -0.00140589       0.00000107
O        4.89148651       3.45880347       5.50352926       0.00198697       0.00140485       0.00000013
O        4.03447545       1.03480946       4.01914236       0.00099453      -0.00140698      -0.00172256
O        2.32045276       3.45880361       6.98791632      -0.00099533       0.00140716       0.00172412
O        2.32045296       3.45880343       4.01914229      -0.00099377       0.00140570      -0.00172129
O        4.03447538       1.03480966       6.98791638       0.00099251      -0.00140470       0.00172155
