9
Lattice="5.553406792521795 1.7055511037037147e-09 3.2062608721086145 1.8511356266674526 5.2358021855929415 3.2062608243868325 4.701248156889544e-08 -2.5204185208468802e-08 6.412521662789262" Properties=species:S:1:pos:R:3:forces:R:3 energy=-41.59259796142578 free_energy=-41.59259796142578 stress="1.1585462743823882e-05 2.585631087015372e-08 1.1296607205224518e-08 2.585631087015372e-08 1.159004295914201e-05 1.3387897901395718e-08 1.1296607205224518e-08 1.3387897901395718e-08 1.1567415640456602e-05" pbc="T T T"
Pb       1.85113570       1.30895051       3.20626089       0.00000052       0.00000030      -0.00000067
Pb       5.55340709       3.92685154       9.61878239       0.00000018      -0.00000003       0.00000022
Fe       0.00000020      -0.00000031      -0.00000053      -0.00000335       0.00000412       0.00000957
S        1.78911847       1.26509786       6.41252173       0.00295913       0.00209242      -0.00000007
S        5.61542376       3.97070429       6.41252168      -0.00295806      -0.00209105      -0.00000026
S        4.65884746       1.26509809       4.75568306      -0.00147778       0.00208867       0.00256020
S        2.74569462       3.97070467       8.06936102       0.00148192      -0.00209603      -0.00256741
S        2.74569506       3.97070416       4.75568256       0.00147849      -0.00209215       0.00256348
S        4.65884759       1.26509779       8.06936058      -0.00148126       0.00209388      -0.00256506
