9
Lattice="5.843828977965232 1.4252534172631575e-07 3.373936430561973 1.9479430767276544 5.509614832648609 3.3739365176868663 2.940548336522431e-08 1.2749861758515207e-07 6.747872810192161" Properties=species:S:1:pos:R:3:forces:R:3 energy=-34.65053176879883 free_energy=-34.65053176879883 stress="-0.0002630215312819928 9.167335335291682e-09 -2.5046380969229176e-08 9.167335335291682e-09 -0.0002630023518577218 4.2581134174213275e-09 -2.5046380969229176e-08 4.2581134174213275e-09 -0.00026296000578440726" pbc="T T T"
Pb       1.94794322       1.37740375       3.37393654      -0.00000068      -0.00000120       0.00000027
Pb       5.84382902       4.13221125      10.12180851       0.00000138      -0.00000001      -0.00000241
Fe      -0.00000015      -0.00000019       0.00000029       0.00000055      -0.00000219      -0.00000037
Cl       1.86549398       1.31910351       6.74787292       0.00434288       0.00306919       0.00000097
Cl       5.92627772       4.19051165       6.74787300      -0.00433902      -0.00306925       0.00000043
Cl       4.91108206       1.31910366       4.98950254      -0.00217182       0.00307006       0.00375861
Cl       2.88069061       4.19051153       8.50624278       0.00216886      -0.00306983      -0.00375360
Cl       2.88068955       4.19051137       4.98950278       0.00217017      -0.00306964       0.00375584
Cl       4.91108234       1.31910368       8.50624368      -0.00217227       0.00307275      -0.00375971
