9
Lattice="6.234446259140989 1.4986197021830365e-07 3.599459288420974 2.0781488157876935 5.877892219471216 3.5994594244744578 1.5717929128168515e-08 1.7774510668334203e-07 7.198918549617587" Properties=species:S:1:pos:R:3:forces:R:3 energy=-31.083850860595703 free_energy=-31.083850860595703 stress="0.0002730496635194868 -5.518930379366793e-08 -7.139806257328019e-08 -5.518930379366793e-08 0.0002731017011683434 1.0888700785471883e-07 -7.139806257328019e-08 1.0888700785471883e-07 0.00027312629390507936" pbc="T T T"
Pb       2.07814948       1.46947273       3.59945902       0.00000133       0.00000083      -0.00000042
Pb       6.23444525       4.40841935      10.79837671      -0.00000073      -0.00000024      -0.00000050
Fe       0.00000027      -0.00000006       0.00000055      -0.00000141       0.00000780      -0.00000817
Br       1.88371206       1.33198546       7.19891865      -0.00695208      -0.00491726       0.00000142
Br       6.42888427       4.54590766       7.19891854       0.00693975       0.00491037       0.00000162
Br       5.29258937       1.33198690       5.23080269       0.00348312      -0.00492403      -0.00602871
Br       3.02000508       4.54590609       9.16703548      -0.00347580       0.00492254       0.00602688
Br       3.02000389       4.54590677       5.23080093      -0.00347000       0.00491246      -0.00601162
Br       5.29259066       1.33198528       9.16703638       0.00347558      -0.00491251       0.00601934
