9
Lattice="4.952524432091462 1.9500472041507093e-08 2.8593413324238672 1.6508415159011254 4.6692847648120255 2.8593412975194137 7.540050625358899e-09 -3.741740951506149e-08 5.718682651787995" Properties=species:S:1:pos:R:3:forces:R:3 energy=-44.62051773071289 free_energy=-44.62051773071289 stress="0.00019506305397953838 1.599980770095044e-08 1.3562237555220236e-08 1.599980770095044e-08 0.00019506333046592772 -3.195144060441635e-08 1.3562237555220236e-08 -3.195144060441635e-08 0.000195029511814937" pbc="T T T"
Pb       1.65084131       1.16732109       2.85934123      -0.00000034      -0.00000048      -0.00000022
Pb       4.95252438       3.50196376       8.57802386      -0.00000061       0.00000022      -0.00000007
Fe      -0.00000013       0.00000034       0.00000044       0.00000257      -0.00000580      -0.00000846
F        1.61001740       1.13845393       5.71868261      -0.00035549      -0.00025190      -0.00000022
F        4.99334856       3.53083057       5.71868266       0.00035728       0.00025219      -0.00000010
F        4.14751619       1.13845370       4.25365685       0.00017453      -0.00024667      -0.00030181
F        2.45585004       3.53083066       7.18370825      -0.00017907       0.00025355       0.00031066
F        2.45585022       3.53083068       4.25365733      -0.00017774       0.00025162      -0.00030873
F        4.14751577       1.13845416       7.18370801       0.00017878      -0.00025278       0.00030907
