9
Lattice="6.849222447208252 3.5659954511972894e-08 3.9544003991509276 2.2830741734753803 6.457508931528895 3.9544004151108907 -3.529227008737948e-09 1.705143495192996e-08 7.9088008044146045" Properties=species:S:1:pos:R:3:forces:R:3 energy=-23.966894149780273 free_energy=-23.966894149780273 stress="-4.366297434899025e-05 2.4339994464384063e-09 1.2454159925567865e-09 2.4339994464384063e-09 -4.365617496659979e-05 -4.0962590958093514e-11 1.2454159925567865e-09 -4.0962590958093514e-11 -4.3657721107592806e-05" pbc="T T T"
Pb       2.28307404       1.61437757       3.95440033       0.00000063       0.00000003      -0.00000017
Pb       6.84922241       4.84313167      11.86320172      -0.00000093      -0.00000010       0.00000166
Ge      -0.00000005      -0.00000003       0.00000008       0.00000002      -0.00000009      -0.00000030
I        2.36323929       1.67106264       7.90880081      -0.00222982      -0.00157768      -0.00000040
I        6.76905742       4.78644637       7.90880061       0.00222966       0.00157769      -0.00000034
I        5.66760292       1.67106269       6.00102546       0.00111526      -0.00157669      -0.00193144
I        3.46469369       4.78644620       9.81657606      -0.00111492       0.00157702       0.00193122
I        3.46469403       4.78644635       6.00102545      -0.00111441       0.00157689      -0.00193140
I        5.66760272       1.67106248       9.81657594       0.00111450      -0.00157708       0.00193115
