9
Lattice="6.367662831184518 -8.901980736982398e-09 3.6763718657896836 2.122554286184673 6.003490075547889 3.676371835451037 5.178223824592665e-09 -3.349556177913359e-08 7.352743722610383" Properties=species:S:1:pos:R:3:forces:R:3 energy=-27.08035659790039 free_energy=-27.08035659790039 stress="-0.0001707375777186826 -3.681242422004516e-09 -4.917656504233037e-09 -3.681242422004516e-09 -0.0001707421033643186 -1.4689653937693947e-08 -4.917656504233037e-09 -1.4689653937693947e-08 -0.00017074706556741148" pbc="T T T"
Pb       2.12255425       1.50087256       3.67637194       0.00000054       0.00000016       0.00000027
Pb       6.36766284       4.50261763      11.02911553      -0.00000031       0.00000083       0.00000016
Ge      -0.00000028      -0.00000015      -0.00000035       0.00000109       0.00000051       0.00000148
Br       2.12759641       1.50443765       7.35274363      -0.00063784      -0.00045155       0.00000035
Br       6.36262112       4.49905254       7.35274370       0.00063654       0.00044946       0.00000046
Br       5.30386449       1.50443774       5.51892436       0.00031860      -0.00045152      -0.00055236
Br       3.18635243       4.49905258       9.18656330      -0.00031772       0.00045023       0.00055188
Br       3.18635250       4.49905212       5.51892431      -0.00031942       0.00045183      -0.00055272
Br       5.30386475       1.50443747       9.18656327       0.00031846      -0.00044996       0.00055039
