9
Lattice="6.047941930503962 -1.4154626384446389e-07 3.491780767351908 2.015980447706143 5.702054232498686 3.4917808753349977 -9.719490237754259e-08 6.3524585988993e-08 6.98356170305029" Properties=species:S:1:pos:R:3:forces:R:3 energy=-30.998794555664062 free_energy=-30.998794555664062 stress="6.229236169019714e-05 1.1785181719403681e-09 -1.544203520609244e-08 1.1785181719403681e-09 6.225188553798944e-05 1.095756196889397e-08 -1.544203520609244e-08 1.095756196889397e-08 6.224025855772197e-05" pbc="T T T"
Pb       2.01598063       1.42551359       3.49178088       0.00000082       0.00000032       0.00000046
Pb       6.04794232       4.27654029      10.47534234      -0.00000086       0.00000004       0.00000028
Ge       0.00000101      -0.00000012      -0.00000006      -0.00001832       0.00000295       0.00000500
Cl       1.93754274       1.37004903       6.98356192      -0.00230697      -0.00162972       0.00000060
Cl       6.12637852       4.33200449       6.98356156       0.00231938       0.00163868      -0.00000099
Cl       5.07917041       1.37004972       5.16974241       0.00115862      -0.00163686      -0.00200566
Cl       2.98475163       4.33200483       8.79738164      -0.00115421       0.00162918       0.00199570
Cl       2.98475132       4.33200478       5.16974169      -0.00115433       0.00162937      -0.00199711
Cl       5.07917052       1.37004999       8.79738097       0.00115590      -0.00163384       0.00200175
