9
Lattice="5.489922322030655 -2.48185697054721e-07 3.169608074419823 1.8299740228238603 5.175948143652468 3.1696078155266996 2.4187305816340987e-07 -1.4604789606482436e-07 6.339215729903356" Properties=species:S:1:pos:R:3:forces:R:3 energy=-41.601173400878906 free_energy=-41.601173400878906 stress="2.1165478756302036e-05 -2.5042631079941202e-08 3.248017321766383e-08 -2.5042631079941202e-08 2.1135863789822906e-05 -2.367980833639649e-08 3.248017321766383e-08 -2.367980833639649e-08 2.1135647330083884e-05" pbc="T T T"
Pb       1.82997465       1.29398662       3.16960706      -0.00000038       0.00000190       0.00000015
Pb       5.48992278       3.88196069       9.50882329      -0.00000065       0.00000076       0.00000059
Ge       0.00000014       0.00000025      -0.00000014      -0.00000396      -0.00000860       0.00000104
F        1.51262384       1.06958628       6.33921610      -0.00264049      -0.00186706      -0.00000192
F        5.80727304       4.10636188       6.33921612       0.00264263       0.00186840      -0.00000005
F        4.73361042       1.06958565       4.47957829       0.00131950      -0.00186512      -0.00228441
F        2.58628569       4.10636149       8.19885341      -0.00131929       0.00186944       0.00228599
F        2.58628528       4.10636210       4.47957843      -0.00132054       0.00186902      -0.00228888
F        4.73361017       1.06958627       8.19885363       0.00132352      -0.00186887       0.00228760
