9
Lattice="5.914229518801696 -1.4213173566571544e-07 3.414581983665282 1.97140970288854 5.575988906195309 3.414581988357274 -6.315809665962832e-08 -3.8913004683249175e-08 6.8291640767235675" Properties=species:S:1:pos:R:3:forces:R:3 energy=-34.05758285522461 free_energy=-34.05758285522461 stress="0.00017157963884528726 -2.933237652769094e-08 -3.7802569408107445e-10 -2.933237652769094e-08 0.0001716078695608303 -9.793578392702784e-09 -3.7802569408107445e-10 -9.793578392702784e-09 0.0001716158294584602" pbc="T T T"
Pb       1.97140967       1.39399759       3.41458196       0.00000061      -0.00000069      -0.00000064
Pb       5.91422939       4.18199098      10.24374647      -0.00000013       0.00000075      -0.00000102
Ge       0.00000011      -0.00000013      -0.00000009      -0.00000069       0.00000140      -0.00000196
Se       2.03072550       1.43593979       6.82916430      -0.00099142      -0.00070038       0.00000107
Se       5.85491384       4.14004889       6.82916417       0.00099042       0.00069919      -0.00000057
Se       4.89886634       1.43593985       5.17324202       0.00049616      -0.00070046      -0.00085984
Se       2.98677288       4.14004890       8.48508581      -0.00049722       0.00070282       0.00086053
Se       2.98677265       4.14004912       5.17324190      -0.00049535       0.00070105      -0.00085938
Se       4.89886628       1.43593989       8.48508556       0.00049761      -0.00070368       0.00086179
