9
Lattice="6.40510106720304 2.245883183880733e-08 3.697986743745626 2.135033715262172 6.038787110473899 3.697986735050541 -2.8532684439372136e-08 -3.0824875061075036e-08 7.395973536911261" Properties=species:S:1:pos:R:3:forces:R:3 energy=-30.279996871948242 free_energy=-30.279996871948242 stress="0.0002350946015212685 3.1739759709381588e-09 1.0154829865882675e-08 3.1739759709381588e-09 0.00023510682513006032 -7.430888127046842e-10 1.0154829865882675e-08 -7.430888127046842e-10 0.00023510366736445576" pbc="T T T"
Pb       2.13503352       1.50969663       3.69798681      -0.00000083      -0.00000122      -0.00000004
Pb       6.40510112       4.52909022      11.09396070       0.00000095       0.00000050       0.00000165
Ge       0.00000014      -0.00000000      -0.00000016      -0.00000036       0.00000054      -0.00000051
Te       2.29192504       1.62063608       7.39597363      -0.00608659      -0.00430337       0.00000057
Te       6.24820950       4.41815111       7.39597320       0.00608622       0.00430310      -0.00000120
Te       5.25913860       1.62063601       5.68285213       0.00304376      -0.00430326      -0.00527044
Te       3.28099617       4.41815143       9.10909483      -0.00304358       0.00430387       0.00527012
Te       3.28099639       4.41815130       5.68285213      -0.00304268       0.00430411      -0.00527044
Te       5.25913850       1.62063564       9.10909479       0.00304309      -0.00430425       0.00527030
