9
Lattice="4.902839758392777 -6.473279197630909e-08 2.8306559812014784 1.6342798509552388 4.622441648373769 2.8306559941544065 -8.433859837499087e-08 -4.377233923606541e-08 5.661312108481752" Properties=species:S:1:pos:R:3:forces:R:3 energy=-46.37005615234375 free_energy=-46.37005615234375 stress="2.6229690774925984e-05 3.7780242934104535e-08 -1.7316962086511012e-08 3.7780242934104535e-08 2.6344365323893726e-05 1.0294810337541094e-08 -1.7316962086511012e-08 1.0294810337541094e-08 2.6315272407373413e-05" pbc="T T T"
Pb       1.63428004       1.15560915       2.83065541       0.00000214      -0.00000569      -0.00000202
Pb       4.90284015       3.46683082       8.49196878       0.00000262      -0.00000219       0.00000206
Ge       0.00000012      -0.00000006       0.00000013       0.00000047      -0.00000107      -0.00000304
O        1.55113169       1.09681604       5.66131232      -0.00346315      -0.00244784       0.00000121
O        4.98598717       3.52562609       5.66131197       0.00346065       0.00245023      -0.00000091
O        4.12727363       1.09681587       4.17397534       0.00173050      -0.00244665      -0.00299895
O        2.40984478       3.52562543       7.14864795      -0.00173563       0.00244915       0.00299835
O        2.40984623       3.52562660       4.17397590      -0.00172871       0.00245190      -0.00299764
O        4.12727376       1.09681627       7.14864821       0.00173122      -0.00244892       0.00300026
