9
Lattice="6.114879736772389 -4.2820576303592934e-08 3.5304274458830616 2.038293227257652 5.7651637784801855 3.530427407711224 3.579749407424277e-08 -2.1438025771660843e-08 7.060854829763037" Properties=species:S:1:pos:R:3:forces:R:3 energy=-25.068201065063477 free_energy=-25.068201065063477 stress="0.00011546507448656484 5.370848654706606e-09 2.1650226056380006e-09 5.370848654706606e-09 0.00011546574387466535 1.2774390434344696e-09 2.1650226056380006e-09 1.2774390434344696e-09 0.00011547876056283712" pbc="T T T"
Pb       2.03829314       1.44129111       3.53042753      -0.00000035      -0.00000001       0.00000029
Pb       6.11487969       4.32387300      10.59128261       0.00000046      -0.00000031       0.00000230
Hg      -0.00000016       0.00000004      -0.00000038       0.00000506      -0.00000248       0.00000572
Cl       2.12075432       1.49959985       7.06085469      -0.00475876      -0.00336693       0.00000097
Cl       6.03241870       4.26556424       7.06085447       0.00475645       0.00336200      -0.00000014
Cl       5.05450236       1.49959985       5.36705439       0.00238001      -0.00336568      -0.00412028
Cl       3.09867035       4.26556390       8.75465505      -0.00237833       0.00336482       0.00412162
Cl       3.09867069       4.26556379       5.36705486      -0.00238136       0.00336914      -0.00412549
Cl       5.05450290       1.49959904       8.75465553       0.00237677      -0.00336072       0.00411496
