9
Lattice="5.707280831854401 7.386676782329696e-08 3.295100255042936 1.9024270089841553 5.380875942287844 3.2951002630269146 -1.212828257460798e-08 1.2023674748282588e-09 6.590200531092678" Properties=species:S:1:pos:R:3:forces:R:3 energy=-45.18989181518555 free_energy=-45.18989181518555 stress="7.028978870948777e-05 -3.6142260739779886e-08 -4.715571932933926e-09 -3.6142260739779886e-08 7.028610707493499e-05 9.591755834037485e-09 -4.715571932933926e-09 9.591755834037485e-09 7.027729589026421e-05" pbc="T T T"
Pb       1.90242641       1.34521909       3.29510037      -0.00000223       0.00000098       0.00000067
Pb       5.70728088       4.03565721       9.88530090       0.00000005       0.00000284      -0.00000089
Hf       0.00000016      -0.00000022      -0.00000016       0.00000035       0.00000124       0.00000088
S        2.01288186       1.42332244       6.59020029       0.00001559       0.00001104       0.00000047
S        5.59682604       3.95755367       6.59020059      -0.00001541      -0.00001276       0.00000048
S        4.70083965       1.42332248       5.03830708      -0.00000776       0.00000963       0.00001290
S        2.90886806       3.95755337       8.14209407       0.00000785      -0.00001213      -0.00001417
S        2.90886836       3.95755370       5.03830705       0.00000875      -0.00001107       0.00001395
S        4.70083991       1.42332235       8.14209400      -0.00000708       0.00001018      -0.00001435
