9
Lattice="5.151057051745925 1.0660318659677634e-07 2.9739642441529615 1.7170190768608953 4.856463393769703 2.9739643149838093 8.902518875240715e-09 9.30446905240524e-08 5.947928472886311" Properties=species:S:1:pos:R:3:forces:R:3 energy=-34.61153030395508 free_energy=-34.61153030395508 stress="0.00024500139988958836 1.4332366404801178e-08 6.258606077835793e-09 1.4332366404801178e-08 0.00024497168487869203 -5.328529839587759e-10 6.258606077835793e-09 -5.328529839587759e-10 0.0002449735184200108" pbc="T T T"
Pb       1.71701921       1.21411574       2.97396469      -0.00000004      -0.00000086       0.00000037
Pb       5.15105717       3.64234767       8.92189287       0.00000015       0.00000011       0.00000041
Hg      -0.00000022       0.00000025      -0.00000005       0.00000311      -0.00000305       0.00000634
F        1.80086081       1.27340123       5.94792840      -0.00130570      -0.00092345       0.00000056
F        5.06721523       3.58306258       5.94792826       0.00130498       0.00092304      -0.00000008
F        4.25062668       1.27340099       4.53355545       0.00065264      -0.00092317      -0.00112997
F        2.61744927       3.58306282       7.36230146      -0.00065173       0.00092174       0.00112940
F        2.61744948       3.58306232       4.53355548      -0.00065352       0.00092439      -0.00113264
F        4.25062684       1.27340089       7.36230161       0.00064994      -0.00091872       0.00112577
