9
Lattice="6.520705595404201 3.361489216469025e-08 3.7647311097378826 2.173568577027004 6.147780115069321 3.764731086297675 3.9736590634415444e-08 -6.102551128633695e-10 7.529462150649933" Properties=species:S:1:pos:R:3:forces:R:3 energy=-38.128448486328125 free_energy=-38.128448486328125 stress="2.836967360053677e-05 -5.2076232215370055e-09 4.713909262932248e-09 -5.2076232215370055e-09 2.837751708284486e-05 -4.787688467899898e-09 4.713909262932248e-09 -4.787688467899898e-09 2.8364802346914075e-05" pbc="T T T"
Pb       2.17356869       1.53694558       3.76473070       0.00000005       0.00000133      -0.00000136
Pb       6.52070559       4.61083485      11.29419378       0.00000004      -0.00000028       0.00000150
Hf       0.00000005       0.00000013       0.00000084       0.00000009      -0.00000063      -0.00000931
Te       2.31765206       1.63882764       7.52946236      -0.00056799      -0.00040148       0.00000030
Te       6.37662186       4.50895237       7.52946212       0.00056964       0.00040217      -0.00000106
Te       5.36187988       1.63882733       5.77187651       0.00028244      -0.00039873      -0.00048897
Te       3.33239472       4.50895208       9.28704729      -0.00028653       0.00040320       0.00049466
Te       3.33239466       4.50895279       5.77187645      -0.00028240       0.00039926      -0.00049020
Te       5.36187938       1.63882787       9.28704738       0.00028463      -0.00040486       0.00049439
