9
Lattice="6.428495689189225 4.26919695238246e-08 3.7114937272665887 2.1428319455984086 6.060843927232256 3.7114937117620093 2.6715936675227675e-08 -9.817344943280993e-11 7.422987408259852" Properties=species:S:1:pos:R:3:forces:R:3 energy=-21.959253311157227 free_energy=-21.959253311157227 stress="-1.9384206098038703e-05 8.725424827105144e-09 -4.384393292866662e-09 8.725424827105144e-09 -1.9388004147913307e-05 -1.130827209649965e-09 -4.384393292866662e-09 -1.130827209649965e-09 -1.9388340660952963e-05" pbc="T T T"
Pb       2.14283193       1.51521130       3.71149355       0.00000082       0.00000085      -0.00000063
Pb       6.42849590       4.54563270      11.13448116      -0.00000018       0.00000014       0.00000014
Hg      -0.00000018      -0.00000015       0.00000019      -0.00000053       0.00000038      -0.00000178
Br       2.25102822       1.59171739       7.42298745      -0.00255424      -0.00180633       0.00000045
Br       6.32029969       4.46912668       7.42298758       0.00255351       0.00180592      -0.00000049
Br       5.30298189       1.59171712       5.66094111       0.00127671      -0.00180469      -0.00221083
Br       3.26834603       4.46912654       9.18503366      -0.00127754       0.00180575       0.00221142
Br       3.26834569       4.46912694       5.66094109      -0.00127591       0.00180431      -0.00221026
Br       5.30298149       1.59171737       9.18503359       0.00127738      -0.00180624       0.00221200
