9
Lattice="6.06161275666495 5.191340506218997e-09 3.4996737258198367 2.0205375492031217 5.714943489921468 3.4996737972605727 -7.147669459516556e-08 3.695499534961232e-08 6.999347575440939" Properties=species:S:1:pos:R:3:forces:R:3 energy=-41.82335662841797 free_energy=-41.82335662841797 stress="0.00018384188297204673 -3.111987112447423e-08 -2.315894498394755e-08 -3.111987112447423e-08 0.00018385666771791875 4.0405435441925874e-08 -2.315894498394755e-08 4.0405435441925874e-08 0.0001838361204136163" pbc="T T T"
Pb       2.02053731       1.42873561       3.49967381      -0.00000052      -0.00000056       0.00000078
Pb       6.06161304       4.28620753      10.49902149       0.00000153       0.00000135       0.00000036
Hf       0.00000043      -0.00000021      -0.00000032      -0.00000312       0.00000102       0.00000205
Se       2.12207564       1.50053447       6.99934751      -0.00023355      -0.00016492      -0.00000017
Se       5.96007438       4.21440897       6.99934757       0.00023611       0.00016589       0.00000085
Se       5.00057440       1.50053461       5.33744551       0.00011856      -0.00016856      -0.00020528
Se       3.08157542       4.21440952       8.66124964      -0.00011816       0.00016613       0.00020246
Se       3.08157553       4.21440948       5.33744542      -0.00011650       0.00016551      -0.00020386
Se       5.00057483       1.50053414       8.66124973       0.00011577      -0.00016569       0.00020300
