9
Lattice="5.002058213629717 -2.132843110807006e-08 2.8879397262166195 1.6673526788022408 4.715985949632935 2.8879397937072557 -3.432407422643844e-08 5.838802911379911e-08 5.775879511884342" Properties=species:S:1:pos:R:3:forces:R:3 energy=-55.96063995361328 free_energy=-55.96063995361328 stress="1.5483374227187596e-05 -1.420574413657505e-08 1.5518789808766087e-08 -1.420574413657505e-08 1.546112252981402e-05 -5.5989136882317325e-08 1.5518789808766087e-08 -5.5989136882317325e-08 1.5580068065901287e-05" pbc="T T T"
Pb       1.66735255       1.17899661       2.88793967       0.00000027       0.00000000      -0.00000141
Pb       5.00205826       3.53698938       8.66381961      -0.00000178      -0.00000063       0.00000196
Hf       0.00000008      -0.00000001      -0.00000012      -0.00000173       0.00000260       0.00000098
O        1.66286492       1.17582335       5.77587931      -0.00063145      -0.00044560      -0.00000048
O        5.00654588       3.54016261       5.77587921       0.00063258       0.00044495       0.00000023
O        4.17062587       1.17582317       4.32802317       0.00031617      -0.00044626      -0.00054663
O        2.49878492       3.54016307       7.22373612      -0.00031388       0.00044560       0.00054425
O        2.49878564       3.54016277       4.32802312      -0.00031459       0.00044769      -0.00054801
O        4.17062532       1.17582320       7.22373593       0.00031543      -0.00044829       0.00054872
