9
Lattice="5.889059702172912 2.0372641796815406e-08 3.4000502978510445 1.963019922990022 5.552258683561677 3.4000502925539973 2.222417862087327e-08 9.227365793088312e-09 6.800100557208646" Properties=species:S:1:pos:R:3:forces:R:3 energy=-39.14115524291992 free_energy=-39.14115524291992 stress="0.00022442033514380455 1.1349465367516132e-08 1.0477602119252083e-09 1.1349465367516132e-08 0.00022442915360443294 2.0962733771057174e-08 1.0477602119252083e-09 2.0962733771057174e-08 0.00022443094349000603" pbc="T T T"
Pb       1.96302015       1.38806472       3.40005031       0.00000072       0.00000035       0.00000034
Pb       5.88905966       4.16419400      10.20015091      -0.00000087       0.00000014      -0.00000044
Ir      -0.00000022      -0.00000004       0.00000039       0.00000208       0.00000078      -0.00000203
Se       2.01922635       1.42780851       6.80010052      -0.00548583      -0.00387914      -0.00000034
Se       5.83285339       4.12445008       6.80010057       0.00548424       0.00387794       0.00000013
Se       4.87944655       1.42780870       5.14875194       0.00274191      -0.00387774      -0.00474918
Se       2.97263335       4.12444991       8.45144909      -0.00274269       0.00387884       0.00475073
Se       2.97263303       4.12445009       5.14875186      -0.00274222       0.00387740      -0.00474915
Se       4.87944634       1.42780890       8.45144899       0.00274264      -0.00387849       0.00474985
