9
Lattice="5.597145480655694 -2.3907626492953294e-08 3.2315134418489087 1.8657151140561388 5.277039353425924 3.2315134827636416 -3.250758052752085e-08 2.7123760355185222e-08 6.463026940002594" Properties=species:S:1:pos:R:3:forces:R:3 energy=-41.769676208496094 free_energy=-41.769676208496094 stress="0.00046575171290896833 -3.139668081075797e-08 5.552496240568416e-09 -3.139668081075797e-08 0.00046580604976043105 -8.757050085073104e-10 5.552496240568416e-09 -8.757050085073104e-10 0.0004657833487726748" pbc="T T T"
Pb       1.86571511       1.31925988       3.23151353       0.00000009       0.00000074      -0.00000012
Pb       5.59714548       3.95777957       9.69454048      -0.00000067      -0.00000042       0.00000027
Ir       0.00000001       0.00000011       0.00000004       0.00000034      -0.00000058      -0.00000079
S        1.89846139       1.34241489       6.46302698      -0.00723141      -0.00511342      -0.00000048
S        5.56439917       3.93462445       6.46302702       0.00723171       0.00511339       0.00000046
S        4.64791474       1.34241512       4.87562952       0.00361624      -0.00511423      -0.00626290
S        2.81494581       3.93462406       8.05042428      -0.00361571       0.00511375       0.00626320
S        2.81494589       3.93462418       4.87562941      -0.00361642       0.00511426      -0.00626367
S        4.64791454       1.34241521       8.05042428       0.00361615      -0.00511384       0.00626338
