9
Lattice="6.930036001559307 -1.7993436269882827e-07 4.001058300980639 2.3100118166404116 6.533700604808054 4.001058325637319 -1.3626800982331701e-08 2.056263053490461e-08 8.00211662556361" Properties=species:S:1:pos:R:3:forces:R:3 energy=-22.89503288269043 free_energy=-22.89503288269043 stress="-3.4301509003853425e-05 -1.6376683120711277e-08 -1.6416237258454203e-09 -1.6376683120711277e-08 -3.4293618227820843e-05 1.5562385824452463e-09 -1.6416237258454203e-09 1.5562385824452463e-09 -3.428336276556365e-05" pbc="T T T"
Pb       2.31001187       1.63342499       4.00105843      -0.00000039      -0.00000030      -0.00000150
Pb       6.93003617       4.90027539      12.00317496       0.00000058       0.00000001       0.00000150
In      -0.00000013       0.00000003       0.00000059       0.00000031      -0.00000071      -0.00000265
I        2.36793004       1.67437949       8.00211688      -0.00058500      -0.00041392      -0.00000088
I        6.87211753       4.85932102       8.00211664       0.00058621       0.00041424       0.00000012
I        5.74607111       1.67437934       6.05174641       0.00029241      -0.00041358      -0.00050671
I        3.49397706       4.85932055       9.95248637      -0.00029539       0.00041650       0.00050987
I        3.49397713       4.85932115       6.05174619      -0.00029298       0.00041316      -0.00050836
I        5.74607044       1.67437981       9.95248653       0.00029427      -0.00041533       0.00050866
