9
Lattice="5.210281635621765 -4.0656552413893975e-08 3.008157551092129 1.7367605288289492 4.9123007884147905 3.0081575130682796 -1.1062174994536745e-07 -1.2479091246251016e-07 6.016315293786631" Properties=species:S:1:pos:R:3:forces:R:3 energy=-41.05769729614258 free_energy=-41.05769729614258 stress="0.0004719676508102566 5.6092623879067105e-09 -5.92730486914661e-09 5.6092623879067105e-09 0.00047196063678711653 -2.986490699186106e-08 -5.92730486914661e-09 -2.986490699186106e-08 0.0004720166325569153" pbc="T T T"
Pb       1.73676067       1.22807542       3.00815754       0.00000024      -0.00000010       0.00000016
Pb       5.21028147       3.68422542       9.02447316       0.00000013       0.00000083      -0.00000025
In      -0.00000002       0.00000005       0.00000016      -0.00000285       0.00000101      -0.00001164
F        1.71626892       1.21358536       6.01631529      -0.00080428      -0.00056877      -0.00000015
F        5.23077317       3.69871522       6.01631521       0.00080536       0.00056934      -0.00000091
F        4.35214733       1.21358519       4.49448976       0.00040012      -0.00056515      -0.00069306
F        2.59489498       3.69871514       7.53814022      -0.00040311       0.00057006       0.00069815
F        2.59489473       3.69871534       4.49449016      -0.00040070       0.00056570      -0.00069361
F        4.35214701       1.21358546       7.53813998       0.00040511      -0.00057295       0.00070141
