9
Lattice="5.897932982290931 2.9126857709295372e-08 3.4051731443209867 1.9659776814923955 5.560624492688288 3.405173155981717 -6.29418598145784e-08 -3.02252220892274e-08 6.810346397660551" Properties=species:S:1:pos:R:3:forces:R:3 energy=-36.5213508605957 free_energy=-36.5213508605957 stress="2.3518421130575007e-06 -3.4516136615536652e-09 -4.51682291569e-09 -3.4516136615536652e-09 2.3293505364563316e-06 -2.589973790989575e-09 -4.51682291569e-09 -2.589973790989575e-09 2.352342335143476e-06" pbc="T T T"
Pb       1.96597748       1.39015624       3.40517320       0.00000075       0.00000017      -0.00000018
Pb       5.89793309       4.17046835      10.21551957      -0.00000069       0.00000015       0.00000051
Mn      -0.00000015      -0.00000047      -0.00000022       0.00000226       0.00000375       0.00000196
Cl       1.91887030       1.35684613       6.81034647      -0.00345487      -0.00244208       0.00000014
Cl       5.94504071       4.20377854       6.81034615       0.00345034       0.00243888       0.00000008
Cl       4.93849801       1.35684592       5.06696305       0.00172705      -0.00244107      -0.00298975
Cl       2.92541231       4.20377863       8.55372978      -0.00172472       0.00243935       0.00298781
Cl       2.92541272       4.20377898       5.06696300      -0.00172619       0.00244050      -0.00298896
Cl       4.93849793       1.35684562       8.55372975       0.00172612      -0.00243973       0.00298832
