9
Lattice="5.907998836378963 -5.194075552588423e-08 3.4109849333713744 1.9693328942144792 5.570114894534854 3.4109849373117775 2.302988151679072e-08 2.1110577899298937e-08 6.821969826853823" Properties=species:S:1:pos:R:3:forces:R:3 energy=-39.947574615478516 free_energy=-39.947574615478516 stress="8.502610580762848e-05 -1.9919077498542492e-09 -8.216436420127593e-09 -1.9919077498542492e-09 8.501935371896252e-05 4.373147621805629e-09 -8.216436420127593e-09 4.373147621805629e-09 8.490121399518102e-05" pbc="T T T"
Pb       1.96933336       1.39252885       3.41098513       0.00000269       0.00000227       0.00000269
Pb       5.90799850       4.17758622      10.23295473      -0.00000094      -0.00000007       0.00000298
Mn      -0.00000023       0.00000014      -0.00000003       0.00000093      -0.00000284      -0.00000645
Se       1.92397880       1.36045826       6.82197001       0.00001311       0.00000927      -0.00000109
Se       5.95335278       4.20965609       6.82197018      -0.00001386      -0.00000937      -0.00000055
Se       4.94600991       1.36045835       5.07719908      -0.00000900       0.00001074       0.00001323
Se       2.93132222       4.20965662       8.56674018       0.00000629      -0.00000846      -0.00001100
Se       2.93132214       4.20965657       5.07719921       0.00000748      -0.00001092       0.00001189
Se       4.94600948       1.36045837       8.56674027      -0.00000681       0.00000934      -0.00001192
