9
Lattice="5.688357361992332 3.4758767682653355e-08 3.284174637770618 1.896119187485134 5.363034707086307 3.2841745787940138 2.0994715920559588e-08 -5.7385806887673144e-08 6.568349239177305" Properties=species:S:1:pos:R:3:forces:R:3 energy=-45.06956100463867 free_energy=-45.06956100463867 stress="0.00013190785830374807 1.0378835568758404e-08 1.676754912693923e-08 1.0378835568758404e-08 0.00013191933976486325 -1.3485257355227986e-08 1.676754912693923e-08 -1.3485257355227986e-08 0.00013190237223170698" pbc="T T T"
Pb       1.89611916       1.34075882       3.28417479      -0.00000037      -0.00000001       0.00000012
Pb       5.68835745       4.02227606       9.85252374       0.00000061      -0.00000033       0.00000013
Mo       0.00000020       0.00000011      -0.00000019      -0.00000142      -0.00000174       0.00000125
S        1.90591387       1.34768465       6.56834909      -0.00010651      -0.00007578       0.00000053
S        5.67856236       4.01534973       6.56834922       0.00010969       0.00007782       0.00000095
S        4.73540047       1.34768471       4.93474432       0.00005257      -0.00007530      -0.00009237
S        2.84907594       4.01535028       8.20195426      -0.00005219       0.00007378       0.00009112
S        2.84907619       4.01534983       4.93474442      -0.00005437       0.00007651      -0.00009416
S        4.73540066       1.34768456       8.20195414       0.00005204      -0.00007471       0.00009221
