9
Lattice="6.825777305018656 6.720203613259419e-08 3.940864370277568 2.275259206099095 6.435404530882565 3.9408642991465848 4.654389624752801e-08 -5.420578114669898e-08 7.88172865993875" Properties=species:S:1:pos:R:3:forces:R:3 energy=-22.9134464263916 free_energy=-22.9134464263916 stress="-5.163489913684316e-05 1.0118188953356366e-08 -1.1003478683768719e-10 1.0118188953356366e-08 -5.164920003153384e-05 -1.964718610025784e-09 -1.1003478683768719e-10 -1.964718610025784e-09 -5.164062531548552e-05" pbc="T T T"
Pb       2.27525899       1.60885112       3.94086379      -0.00000020       0.00000015      -0.00000172
Pb       6.82577735       4.82655340      11.82259380       0.00000009      -0.00000015       0.00000178
Mg       0.00000011      -0.00000014      -0.00000018      -0.00000085       0.00000006      -0.00000035
I        2.33930138       1.65413586       7.88172900      -0.00149433      -0.00105660      -0.00000059
I        6.76173521       4.78126871       7.88172827       0.00149521       0.00105702      -0.00000003
I        5.65612724       1.65413587       5.96675794       0.00074621      -0.00105532      -0.00129305
I        3.44490934       4.78126880       9.79669956      -0.00074691       0.00105598       0.00129306
I        3.44491011       4.78126890       5.96675858      -0.00074690       0.00105581      -0.00129313
I        5.65612650       1.65413567       9.79669855       0.00074765      -0.00105695       0.00129402
