9
Lattice="6.746074780907718 -1.4483169735348376e-07 3.8948481579543524 2.248691504445263 6.360260070193344 3.894848075927933 8.425137544564116e-08 -4.088666597350527e-08 7.789696169980969" Properties=species:S:1:pos:R:3:forces:R:3 energy=-29.069093704223633 free_energy=-29.069093704223633 stress="0.00018085833289660513 -4.5901171752404935e-09 3.6924877044874904e-10 -4.5901171752404935e-09 0.00018086736963596195 1.4382023350023587e-09 3.6924877044874904e-10 1.4382023350023587e-09 0.0001808679080568254" pbc="T T T"
Pb       2.24869093       1.59006571       3.89484843      -0.00000089       0.00000141       0.00000054
Pb       6.74607490       4.77019475      11.68454407      -0.00000040      -0.00000061      -0.00000153
Mn       0.00000027       0.00000035       0.00000100      -0.00000130      -0.00000257      -0.00000595
I        2.24929203       1.59048922       7.78969613       0.00303496       0.00214568      -0.00000085
I        6.74547400       4.76977035       7.78969614      -0.00303184      -0.00214435       0.00000028
I        5.62142930       1.59048943       5.84279189      -0.00151821       0.00214696       0.00262944
I        3.37333785       4.76976956       9.73659999       0.00151527      -0.00214332      -0.00262450
I        3.37333712       4.76977014       5.84279221       0.00151719      -0.00214712       0.00262854
I        5.62142908       1.59049003       9.73659980      -0.00151475       0.00214390      -0.00262595
