9
Lattice="4.981758614172946 -2.4575786979274334e-08 2.8762196635490107 1.6605862244777185 4.6968470079217175 2.8762195892031053 5.763713000660566e-08 -5.029922362121571e-08 5.752439227267577" Properties=species:S:1:pos:R:3:forces:R:3 energy=-46.72486114501953 free_energy=-46.72486114501953 stress="5.7158995332429186e-05 1.6397724067473973e-08 3.749467847313781e-09 1.6397724067473973e-08 5.718249303754419e-05 -1.6872429842162973e-10 3.749467847313781e-09 -1.6872429842162973e-10 5.713252903660759e-05" pbc="T T T"
Pb       1.66058610       1.17421120       2.87621964      -0.00000008      -0.00000023      -0.00000021
Pb       4.98175864       3.52263535       8.62865922      -0.00000002      -0.00000026      -0.00000108
Mn       0.00000002       0.00000037      -0.00000097      -0.00000027      -0.00000883       0.00002383
F        1.65677312       1.17151562       5.75243921      -0.00006783      -0.00004858       0.00000054
F        4.98557154       3.52533152       5.75243936       0.00007200       0.00005099      -0.00000038
F        4.15337233       1.17151514       4.31102702       0.00003660      -0.00005102      -0.00006160
F        2.48897271       3.52533195       7.19385132      -0.00003190       0.00004512       0.00005469
F        2.48897267       3.52533151       4.31102735      -0.00003773       0.00005496      -0.00006646
F        4.15337249       1.17151519       7.19385186       0.00002919      -0.00004214       0.00005063
