9
Lattice="4.740541121683443 -2.5625594285362154e-08 2.7369525712227314 1.5801803135228927 4.469425097676785 2.736952633942943 -7.161561236280705e-08 2.6176386175020793e-08 5.473905266487344" Properties=species:S:1:pos:R:3:forces:R:3 energy=-50.213584899902344 free_energy=-50.213584899902344 stress="4.5147207856643945e-05 5.248089607334805e-08 -3.291595263021918e-08 5.248089607334805e-08 4.539470683084801e-05 5.962443339058154e-08 -3.291595263021918e-08 5.962443339058154e-08 4.493956294027157e-05" pbc="T T T"
Pb       1.58018037       1.11735635       2.73695251       0.00000038      -0.00000069      -0.00000054
Pb       4.74054111       3.35206890       8.21085760      -0.00000033      -0.00000043      -0.00000055
Mn      -0.00000002      -0.00000002      -0.00000049       0.00000077       0.00000120       0.00000521
O        1.52205754       1.07625724       5.47390543      -0.00026175      -0.00018653      -0.00000053
O        4.79866374       3.39316785       5.47390519       0.00026296       0.00018621      -0.00000002
O        3.97951227       1.07625715       4.05509313       0.00012964      -0.00018631      -0.00022504
O        2.34120911       3.39316777       6.89271758      -0.00013107       0.00018590       0.00022674
O        2.34120892       3.39316789       4.05509329      -0.00012986       0.00018373      -0.00022529
O        3.97951239       1.07625719       6.89271763       0.00012883      -0.00018374       0.00022055
