9
Lattice="6.255432748225049 4.7762236561067276e-08 3.611575781775045 2.085144280658618 5.897678598293092 3.6115758056434144 2.016295629841989e-08 4.349002399170669e-08 7.223151528626824" Properties=species:S:1:pos:R:3:forces:R:3 energy=-26.83896827697754 free_energy=-26.83896827697754 stress="-5.472682460094802e-05 5.9803766383481616e-09 -1.2833679674528753e-09 5.9803766383481616e-09 -5.474201316246763e-05 -7.849010330573947e-10 -1.2833679674528753e-09 -7.849010330573947e-10 -5.474395220517181e-05" pbc="T T T"
Pb       2.08514476       1.47442015       3.61157551       0.00000140       0.00000104      -0.00000069
Pb       6.25543233       4.42325948      10.83472702      -0.00000196       0.00000086      -0.00000104
Mg       0.00000011       0.00000010      -0.00000038      -0.00000028      -0.00000002       0.00000436
Br       2.11594612       1.49619972       7.22315156      -0.00095670      -0.00067676       0.00000095
Br       6.22463100       4.40147864       7.22315178       0.00095795       0.00067642       0.00000083
Br       5.19745955       1.49619965       5.44403874       0.00047860      -0.00067778      -0.00082910
Br       3.14311737       4.40147879       9.00226480      -0.00047686       0.00067434       0.00082764
Br       3.14311741       4.40147867       5.44403864      -0.00047887       0.00067693      -0.00082994
Br       5.19745955       1.49619956       9.00226479       0.00047675      -0.00067504       0.00082692
