9
Lattice="5.006199663822768 -1.299369721496954e-08 2.890330819459127 1.668733209662935 4.719890187494931 2.8903308183518632 5.3367058550298297e-08 3.6380100906195245e-08 5.780661546483822" Properties=species:S:1:pos:R:3:forces:R:3 energy=-52.13515090942383 free_energy=-52.13515090942383 stress="-3.4551903809187934e-05 -7.630556630999763e-09 -2.213832317465858e-08 -7.630556630999763e-09 -3.4540844353614375e-05 2.478880567480246e-08 -2.213832317465858e-08 2.478880567480246e-08 -3.463312532403506e-05" pbc="T T T"
Pb       1.66873321       1.17997264       2.89033062       0.00000008       0.00000021      -0.00000036
Pb       5.00619975       3.53991757       8.67099270      -0.00000041      -0.00000050       0.00000082
Mo      -0.00000014      -0.00000002       0.00000030       0.00000092      -0.00000059       0.00000106
O        1.57986251       1.11713157       5.78066187      -0.00135434      -0.00095832       0.00000091
O        5.09507053       3.60275877       5.78066148       0.00135493       0.00095725      -0.00000077
O        4.21626846       1.11713125       4.25853227       0.00067782      -0.00095749      -0.00117075
O        2.45866424       3.60275873       7.30279097      -0.00067830       0.00095809       0.00117075
O        2.45866481       3.60275848       4.25853168      -0.00067699       0.00095713      -0.00117350
O        4.21626838       1.11713175       7.30279143       0.00067747      -0.00095606       0.00117064
