9
Lattice="6.26831703605561 6.179396862791559e-08 3.6190145021721825 2.089439065597885 5.909825934925823 3.6190145102792592 4.859567973523391e-09 1.3365349000643854e-08 7.23802899592738" Properties=species:S:1:pos:R:3:forces:R:3 energy=-32.66111755371094 free_energy=-32.66111755371094 stress="-0.000151638247189112 7.205975816049204e-09 1.7154429265975324e-10 7.205975816049204e-09 -0.0001516590709798038 -2.3407131788388824e-09 1.7154429265975324e-10 -2.3407131788388824e-09 -0.0001516552729299292" pbc="T T T"
Pb       2.08943929       1.47745694       3.61901441       0.00000061       0.00000102       0.00000028
Pb       6.26831744       4.43236951      10.85704353       0.00000017       0.00000085      -0.00000037
Mn      -0.00000020       0.00000009      -0.00000011      -0.00000094      -0.00000047      -0.00000008
Br       2.04430079       1.44553890       7.23802900       0.00125032       0.00088374      -0.00000033
Br       6.31345562       4.46428717       7.23802901      -0.00125200      -0.00088494       0.00000049
Br       5.24616650       1.44553889       5.38943088      -0.00062548       0.00088470       0.00108288
Br       3.11158923       4.46428680       9.08662730       0.00062618      -0.00088456      -0.00108333
Br       3.11158921       4.46428693       5.38943074       0.00062609      -0.00088549       0.00108355
Br       5.24616653       1.44553881       9.08662725      -0.00062494       0.00088508      -0.00108313
