9
Lattice="5.884201384227027 3.858330297179344e-08 3.397245537625123 1.961400483874398 5.547679677002986 3.397245561720207 -7.356681828867093e-08 -2.250926423848721e-08 6.794491202671707" Properties=species:S:1:pos:R:3:forces:R:3 energy=-30.892372131347656 free_energy=-30.892372131347656 stress="-9.435824176762253e-05 3.1734820993278845e-08 -4.352650240235789e-09 3.1734820993278845e-08 -9.429146302863955e-05 3.710380891419618e-10 -4.352650240235789e-09 3.710380891419618e-10 -9.429980127606541e-05" pbc="T T T"
Pb       1.96140068       1.38691902       3.39724584      -0.00000302      -0.00000331       0.00000064
Pb       5.88420144       4.16075992      10.19173664       0.00000509       0.00000075      -0.00000080
Mg      -0.00000018       0.00000017       0.00000019       0.00000073      -0.00000043      -0.00000210
Cl       1.96808281       1.39164559       6.79449091      -0.00253994      -0.00179674      -0.00000066
Cl       5.87751940       4.15603399       6.79449138       0.00253758       0.00179650       0.00000103
Cl       4.90016054       1.39164431       5.10165620       0.00126490      -0.00179292      -0.00220148
Cl       2.94544104       4.15603555       8.48732544      -0.00126713       0.00179514       0.00220328
Cl       2.94544077       4.15603593       5.10165677      -0.00126667       0.00179480      -0.00220132
Cl       4.90016063       1.39164433       8.48732585       0.00126853      -0.00179370       0.00220148
