9
Lattice="4.877117292415896 -1.6679522630212737e-08 2.8158049845813884 1.6257057732790134 4.5981902121880385 2.815804941512198 2.7781307336858344e-08 -3.3104387297031655e-08 5.631609921044165" Properties=species:S:1:pos:R:3:forces:R:3 energy=-43.65595245361328 free_energy=-43.65595245361328 stress="8.590330980950966e-05 3.189322583807552e-08 2.9269330070746946e-08 3.189322583807552e-08 8.588794298702851e-05 -4.909576745149025e-09 2.9269330070746946e-08 -4.909576745149025e-09 8.589209755882621e-05" pbc="T T T"
Pb       1.62570625       1.14954733       2.81580505       0.00000053       0.00000135      -0.00000105
Pb       4.87711730       3.44864292       8.44741485       0.00000083      -0.00000101      -0.00000056
Mg      -0.00000003       0.00000008      -0.00000077       0.00000063      -0.00000273       0.00001820
F        1.58562842       1.12120873       5.63160995       0.00025930       0.00018327       0.00000002
F        4.91719460       3.47698139       5.63160989      -0.00025864      -0.00018166       0.00000163
F        4.08430289       1.12120863       4.18899942      -0.00012916       0.00017977       0.00022119
F        2.41851979       3.47698169       7.07422065       0.00013274      -0.00018723      -0.00022960
F        2.41852013       3.47698139       4.18899951       0.00012717      -0.00017969       0.00022008
F        4.08430311       1.12120845       7.07422072      -0.00013354       0.00018790      -0.00023007
