9
Lattice="5.991991272581144 -3.817738472668939e-08 3.459477735641462 1.99733040169556 5.649303516366498 3.459477712265968 6.132244205687656e-09 -2.429284339700328e-08 6.918955460661577" Properties=species:S:1:pos:R:3:forces:R:3 energy=-41.63114547729492 free_energy=-41.63114547729492 stress="8.795686153462157e-05 -3.8726639672859164e-08 5.071609798790178e-09 -3.8726639672859164e-08 8.796596375759691e-05 -7.902497323186708e-09 5.071609798790178e-09 -7.902497323186708e-09 8.800788782536983e-05" pbc="T T T"
Pb       1.99733030       1.41232566       3.45947781      -0.00000040      -0.00000020      -0.00000026
Pb       5.99199129       4.23697746      10.37843327       0.00000046       0.00000008      -0.00000000
Mo      -0.00000020       0.00000032      -0.00000019       0.00000212      -0.00000396      -0.00000003
Se       2.01801994       1.42695569       6.91895548       0.00000508       0.00000307      -0.00000021
Se       5.97130190       4.22234771       6.91895547      -0.00000367      -0.00000355       0.00000072
Se       4.98298118       1.42695564       5.20713418      -0.00000278       0.00000292       0.00000453
Se       3.00634044       4.22234797       8.63077646       0.00000144      -0.00000149      -0.00000152
Se       3.00634063       4.22234789       5.20713455      -0.00000019       0.00000039       0.00000021
Se       4.98298126       1.42695549       8.63077658      -0.00000215       0.00000276      -0.00000353
