9
Lattice="6.435111290182771 -7.073258821070981e-08 3.7153133325990595 2.1450370392555356 6.067081163562485 3.7153133166377232 3.166724542074388e-08 2.8435289851039554e-09 7.430626610348836" Properties=species:S:1:pos:R:3:forces:R:3 energy=-37.48241424560547 free_energy=-37.48241424560547 stress="8.437615178991109e-05 1.182703357471837e-08 -3.60804364163414e-09 1.182703357471837e-08 8.435931522399187e-05 -4.256343721920075e-09 -3.60804364163414e-09 -4.256343721920075e-09 8.435644122073427e-05" pbc="T T T"
Pb       2.14503683       1.51677040       3.71531349      -0.00000038       0.00000140      -0.00000033
Pb       6.43511131       4.55031100      11.14593972      -0.00000031       0.00000103      -0.00000014
Nb       0.00000002      -0.00000046       0.00000027      -0.00000048       0.00000424       0.00000013
Te       2.24949949       1.59063623       7.43062668      -0.00530992      -0.00375525       0.00000079
Te       6.33064924       4.47644477       7.43062669       0.00530855       0.00375330       0.00000025
Te       5.31036140       1.59063648       5.66343713       0.00265458      -0.00375501      -0.00459769
Te       3.26978683       4.47644482       9.19781638      -0.00265297       0.00375174       0.00459596
Te       3.26978670       4.47644482       5.66343680      -0.00265403       0.00375294      -0.00459587
Te       5.31036164       1.59063632       9.19781588       0.00265492      -0.00375439       0.00459696
