9
Lattice="6.182843898196637 -9.228545340203387e-09 3.569666703266866 2.0609479714372196 5.829241175139312 3.5696666788927947 3.9939691941640515e-08 -1.610481744955207e-09 7.139333337356167" Properties=species:S:1:pos:R:3:forces:R:3 energy=-32.277400970458984 free_energy=-32.277400970458984 stress="-8.383680687984452e-05 -1.8010220870223748e-08 1.3871034321155662e-09 -1.8010220870223748e-08 -8.384112152270973e-05 -1.5195242397680886e-08 1.3871034321155662e-09 -1.5195242397680886e-08 -8.383765089092776e-05" pbc="T T T"
Pb       2.06094770       1.45731011       3.56966684      -0.00000079      -0.00000012       0.00000035
Pb       6.18284416       4.37193094      10.70899957       0.00000084       0.00000006      -0.00000062
Ni       0.00000045       0.00000029       0.00000073      -0.00000239      -0.00000374      -0.00000751
Te       2.10090119       1.48556156       7.13933328      -0.00377010      -0.00266507      -0.00000015
Te       6.14289022       4.34367936       7.13933367       0.00377296       0.00266813       0.00000118
Te       5.13239348       1.48556129       5.38910053       0.00188533      -0.00266623      -0.00326441
Te       3.11139858       4.34367966       8.88956565      -0.00188659       0.00266860       0.00326847
Te       3.11139833       4.34367958       5.38910090      -0.00188704       0.00266668      -0.00326525
Te       5.13239355       1.48556186       8.88956576       0.00188775      -0.00266828       0.00326791
