9
Lattice="5.504163101282446 3.9023215734136754e-08 3.177830039331669 1.8347210615921448 5.189374730814508 3.1778300548509413 4.2730678478542014e-08 4.922230672832303e-08 6.355660004651625" Properties=species:S:1:pos:R:3:forces:R:3 energy=-37.667171478271484 free_energy=-37.667171478271484 stress="0.00025347882183268666 -9.406828205271722e-09 -8.90370799311313e-09 -9.406828205271722e-09 0.00025348065537400544 2.3891737477299557e-09 -8.90370799311313e-09 2.3891737477299557e-09 0.00025342529988847673" pbc="T T T"
Pb       1.83472103       1.29734374       3.17783006      -0.00000033      -0.00000014       0.00000010
Pb       5.50416321       3.89203114       9.53348991       0.00000015       0.00000085      -0.00000034
Ni      -0.00000020       0.00000036      -0.00000055       0.00000094      -0.00000761       0.00001226
S        1.79816820       1.27149658       6.35566009      -0.00506541      -0.00358078       0.00000022
S        5.54071606       3.91787799       6.35566021       0.00506786       0.00358367      -0.00000070
S        4.60507907       1.27149657       4.73508921       0.00253381      -0.00358185      -0.00438753
S        2.73380498       3.91787824       7.97623097      -0.00253111       0.00357944       0.00438523
S        2.73380518       3.91787814       4.73508936      -0.00253589       0.00358394      -0.00439173
S        4.60507920       1.27149652       7.97623111       0.00253031      -0.00357753       0.00438240
