9
Lattice="5.8266671658317835 6.480904492508101e-08 3.364027658063253 1.9422223528118432 5.4934353561193925 3.364027825901288 -2.6000559607102797e-07 2.17070066083179e-08 6.728055766469448" Properties=species:S:1:pos:R:3:forces:R:3 energy=-31.42501449584961 free_energy=-31.42501449584961 stress="8.336286555277184e-05 -9.005850287735484e-09 -1.9289643660158617e-08 -9.005850287735484e-09 8.336641622008756e-05 -6.563550591920375e-09 -1.9289643660158617e-08 -6.563550591920375e-09 8.336417522514239e-05" pbc="T T T"
Pb       1.94222226       1.37335838       3.36402758      -0.00000019      -0.00000122       0.00000022
Pb       5.82666681       4.12007698      10.09208340      -0.00000062       0.00000064      -0.00000204
Ni      -0.00000012       0.00000034      -0.00000062       0.00000198      -0.00000119       0.00000584
Cl       1.90053484       1.34388072       6.72805526       0.00174692       0.00123538       0.00000304
Cl       5.86835534       4.14955403       6.72805536      -0.00174868      -0.00123544       0.00000022
Cl       4.87639940       1.34388118       5.00993881      -0.00087169       0.00123373       0.00151287
Cl       2.89248961       4.14955503       8.44617301       0.00087467      -0.00123760      -0.00151595
Cl       2.89248902       4.14955396       5.00993922       0.00087266      -0.00123267       0.00151198
Cl       4.87639982       1.34388108       8.44617293      -0.00087510       0.00123817      -0.00151624
