9
Lattice="6.152282818292614 3.8117152433489326e-08 3.55202210877766 2.0507609555860506 5.800427855246595 3.5520221430410714 3.64313573507226e-09 4.454009129652977e-08 7.104044211245189" Properties=species:S:1:pos:R:3:forces:R:3 energy=-28.103395462036133 free_energy=-28.103395462036133 stress="-1.154861365648685e-05 6.972769472923801e-09 1.5097315064771522e-10 6.972769472923801e-09 -1.1531876225490123e-05 -3.5420437694000384e-09 1.5097315064771522e-10 -3.5420437694000384e-09 -1.1541824278538115e-05" pbc="T T T"
Pb       2.05076125       1.45010683       3.55202234      -0.00000034      -0.00000070       0.00000095
Pb       6.15228297       4.35032072      10.65606640       0.00000109      -0.00000027      -0.00000059
Ni       0.00000008       0.00000009       0.00000004      -0.00000065      -0.00000086      -0.00000360
Br       2.01197663       1.42268248       7.10404410      -0.00542508      -0.00383611      -0.00000037
Br       6.19106668       4.37774534       7.10404423       0.00542757       0.00383854       0.00000020
Br       5.14629437       1.42268262       5.29444515       0.00271177      -0.00383674      -0.00469899
Br       3.05674946       4.37774549       8.91364327      -0.00271428       0.00383791       0.00470027
Br       3.05674926       4.37774558       5.29444514      -0.00271308       0.00383638      -0.00469860
Br       5.14629440       1.42268263       8.91364321       0.00271299      -0.00383815       0.00470090
