9
Lattice="6.160598119006675 3.793489883842155e-07 3.5568225991548292 2.0535330643439 5.808267483052698 3.556822598540412 1.54284457466881e-08 1.01570474740391e-08 7.113645171586887" Properties=species:S:1:pos:R:3:forces:R:3 energy=-37.59013748168945 free_energy=-37.59013748168945 stress="0.00023919358500279486 1.0277327788799084e-07 -1.5174100198578344e-08 1.0277327788799084e-07 0.0002391169109614566 2.441087509907902e-08 -1.5174100198578344e-08 2.441087509907902e-08 0.00023904457339085639" pbc="T T T"
Pb       2.05353341       1.45206717       3.55682240       0.00000048       0.00000017      -0.00000006
Pb       6.16059883       4.35620063      10.67046726       0.00000045      -0.00000013      -0.00000015
Nb       0.00000052      -0.00000004      -0.00000233      -0.00000922       0.00000081       0.00003266
Cl       2.00048218       1.41455445       7.11364543      -0.00481048      -0.00340092       0.00000168
Cl       6.21364865       4.39371309       7.11364524       0.00481597       0.00340581       0.00000142
Cl       5.16035680       1.41455471       5.28929091       0.00240815      -0.00340644      -0.00417069
Cl       3.05377282       4.39371476       8.93800131      -0.00239486       0.00338641       0.00414875
Cl       3.05377336       4.39371373       5.28929013      -0.00240530       0.00340056      -0.00416312
Cl       5.16035817       1.41455310       8.93800116       0.00239474      -0.00338632       0.00414971
