9
Lattice="4.8669112003796675 -5.017825838910994e-08 2.809912585808216 1.622303688132502 4.588567800479844 2.8099125823767834 -9.054555780693586e-09 -1.0605139878834946e-08 5.619825187299311" Properties=species:S:1:pos:R:3:forces:R:3 energy=-41.0286979675293 free_energy=-41.0286979675293 stress="0.00011555629316717386 -4.5172022566930536e-08 1.1407548683450841e-08 -4.5172022566930536e-08 0.00011553682270459831 -2.6727184021524408e-08 1.1407548683450841e-08 -2.6727184021524408e-08 0.00011555858509382233" pbc="T T T"
Pb       1.62230376       1.14714163       2.80991268       0.00000022      -0.00000157       0.00000160
Pb       4.86691128       3.44142583       8.42973780       0.00000029       0.00000000       0.00000118
Ni      -0.00000031      -0.00000024       0.00000109       0.00000705       0.00000546      -0.00002008
F        1.59297575       1.12640400       5.61982511      -0.00033788      -0.00023856       0.00000063
F        4.89623939       3.46216422       5.61982512       0.00033127       0.00023375      -0.00000021
F        4.07042325       1.12640372       4.18946997       0.00016534      -0.00023388      -0.00028625
F        2.41879168       3.46216382       7.05017978      -0.00017048       0.00024087       0.00029540
F        2.41879151       3.46216392       4.18947018      -0.00016665       0.00023543      -0.00028761
F        4.07042313       1.12640409       7.05017976       0.00017063      -0.00024169       0.00029545
