9
Lattice="5.187886456824579 -1.26537605070628e-07 2.995227563104401 1.7292954086706935 4.8911858956812795 2.9952274897292006 -1.1752351127270653e-07 -1.7296768077837163e-07 5.990455329765585" Properties=species:S:1:pos:R:3:forces:R:3 energy=-48.819942474365234 free_energy=-48.819942474365234 stress="0.00044294900726526976 6.052450629567829e-08 8.693072928167567e-09 6.052450629567829e-08 0.0004429806722328067 6.962928011944314e-08 8.693072928167567e-09 6.962928011944314e-08 0.00044291335507296026" pbc="T T T"
Pb       1.72929562       1.22279629       2.99522778      -0.00000007       0.00000033      -0.00000023
Pb       5.18788633       3.66838941       8.98568286       0.00000017      -0.00000021       0.00000014
Nb      -0.00000008       0.00000000       0.00000005       0.00000220       0.00000241       0.00000100
F        1.68571090       1.19197737       5.99045524      -0.00248617      -0.00175774      -0.00000014
F        5.23147071       3.69920829       5.99045511       0.00248325       0.00175568      -0.00000016
F        4.34503086       1.19197734       4.45509593       0.00124109      -0.00175512      -0.00214943
F        2.57215094       3.69920827       7.52581436      -0.00124091       0.00175446       0.00214902
F        2.57215058       3.69920842       4.45509575      -0.00123951       0.00175300      -0.00214684
F        4.34503099       1.19197704       7.52581469       0.00123988      -0.00175312       0.00214702
