9
Lattice="6.605707721614027 -9.324964255979676e-08 3.8138071330274683 2.201902512294187 6.227920546857736 3.813807087406279 5.14718544180264e-08 -1.9478273256933216e-08 7.627614176903087" Properties=species:S:1:pos:R:3:forces:R:3 energy=-24.77810287475586 free_energy=-24.77810287475586 stress="-0.000185765020432882 -1.494259938006337e-09 -7.536799628837798e-09 -1.494259938006337e-09 -0.00018576924048829824 -5.503190680933301e-10 -7.536799628837798e-09 -5.503190680933301e-10 -0.0001857588067650795" pbc="T T T"
Pb       2.20190236       1.55698009       3.81380738       0.00000004      -0.00000008       0.00000053
Pb       6.60570766       4.67093994      11.44142062      -0.00000026      -0.00000063      -0.00000106
Ni       0.00000014      -0.00000010       0.00000006      -0.00000080       0.00000008      -0.00000162
I        2.19725568       1.55369433       7.62761421       0.00701515       0.00496075      -0.00000068
I        6.61035455       4.67422607       7.62761445      -0.00701335      -0.00495920      -0.00000049
I        5.50707989       1.55369442       5.71668630      -0.00350776       0.00496051       0.00607543
I        3.30053064       4.67422625       9.53854214       0.00350633      -0.00495960      -0.00607411
I        3.30053024       4.67422613       5.71668631       0.00350738      -0.00496148       0.00607602
I        5.50707997       1.55369461       9.53854217      -0.00350665       0.00495961      -0.00607402
