9
Lattice="5.010379624184185 -3.734922262421002e-09 2.892744295539801 1.6701265428286058 4.72383139486244 2.8927442869571824 8.250808387424741e-09 -4.677333866343158e-09 5.785488576788789" Properties=species:S:1:pos:R:3:forces:R:3 energy=-55.8431510925293 free_energy=-55.8431510925293 stress="7.362325413851067e-05 -6.282641518140508e-09 3.0726436506256505e-08 -6.282641518140508e-09 7.340702723013237e-05 -6.723570322719752e-08 3.0726436506256505e-08 -6.723570322719752e-08 7.360884046647698e-05" pbc="T T T"
Pb       1.67012688       1.18095831       2.89274468       0.00000303       0.00000216      -0.00000035
Pb       5.01037964       3.54287361       8.67823325       0.00000118       0.00000202       0.00000031
Nb       0.00000061       0.00000064      -0.00000100       0.00000101       0.00000068       0.00000160
O        1.63758236       1.15794544       5.78548830      -0.00448167      -0.00316930       0.00000082
O        5.04292339       3.56588562       5.78548820       0.00448525       0.00317180       0.00000118
O        4.19158835       1.15794532       4.31093227       0.00224024      -0.00317252      -0.00388098
O        2.48891741       3.56588574       7.26004536      -0.00224072       0.00316346       0.00387859
O        2.48891760       3.56588555       4.31093239      -0.00224519       0.00317025      -0.00388241
O        4.19158838       1.15794552       7.26004548       0.00223708      -0.00316894       0.00388074
