9
Lattice="6.539506482281895 -3.5216779618129635e-08 3.7755857246580864 2.1798354699729168 6.165505754363277 3.77558570892829 -3.0197781933360245e-08 -4.0618063705705e-08 7.5511715016202725" Properties=species:S:1:pos:R:3:forces:R:3 energy=-33.787696838378906 free_energy=-33.787696838378906 stress="8.73281605890952e-05 4.629352012841537e-09 -1.0284290752338165e-08 4.629352012841537e-09 8.732466085348278e-05 2.1623666413006504e-08 -1.0284290752338165e-08 2.1623666413006504e-08 8.733676804695278e-05" pbc="T T T"
Pb       2.17983573       1.54137643       3.77558554       0.00000040      -0.00000022       0.00000010
Pb       6.53950602       4.62412936      11.32675740      -0.00000022       0.00000051       0.00000073
Nb      -0.00000040       0.00000026       0.00000021       0.00000482      -0.00000766      -0.00000348
Br       2.11711246       1.49702447       7.55117148      -0.00090736      -0.00064212      -0.00000007
Br       6.60222983       4.66848153       7.55117154       0.00090784       0.00064130      -0.00000040
Br       5.48095032       1.49702404       5.60905879       0.00045206      -0.00063920      -0.00078383
Br       3.23839194       4.66848127       9.49328372      -0.00045593       0.00064500       0.00079094
Br       3.23839157       4.66848129       5.60905897      -0.00045313       0.00064129      -0.00078698
Br       5.48095018       1.49702412       9.49328401       0.00045151      -0.00063890       0.00078297
