9
Lattice="5.584673376009963 -6.64620948990232e-08 3.2243127333112724 1.8615577474899099 5.265280509388201 3.2243127018785382 5.6425896778762805e-08 1.4021132294595429e-09 6.448625368890002" Properties=species:S:1:pos:R:3:forces:R:3 energy=-43.65378952026367 free_energy=-43.65378952026367 stress="0.00042195123387500644 -1.231526258749227e-08 3.483578936425147e-08 -1.231526258749227e-08 0.0004219477705191821 3.707412687958822e-08 3.483578936425147e-08 3.707412687958822e-08 0.0004219417169224471" pbc="T T T"
Pb       1.86155774       1.31632010       3.22431263      -0.00000134       0.00000039      -0.00000129
Pb       5.58467340       3.94896029       9.67293814       0.00000029      -0.00000022       0.00000118
Os      -0.00000007      -0.00000007      -0.00000021      -0.00000047       0.00000015       0.00000108
S        1.89983358       1.34338518       6.44862538      -0.00718677      -0.00508183      -0.00000068
S        5.54639760       3.92189525       6.44862529       0.00718623       0.00508058      -0.00000030
S        4.63475688       1.34338506       4.86961696       0.00359407      -0.00508177      -0.00622469
S        2.81147466       3.92189512       8.02763393      -0.00359377       0.00508273       0.00622457
S        2.81147446       3.92189542       4.86961720      -0.00359336       0.00508171      -0.00622439
S        4.63475654       1.34338527       8.02763394       0.00359491      -0.00508225       0.00622422
