9
Lattice="5.885276075915795 -1.905707898959356e-08 3.397865766854132 1.9617586413898267 5.5486916123985095 3.3978658233448242 -7.331238277638726e-08 1.7347027798013776e-08 6.795731660689058" Properties=species:S:1:pos:R:3:forces:R:3 energy=-41.05491638183594 free_energy=-41.05491638183594 stress="0.0002096332173096016 -5.0142570984235135e-08 -1.3777991192398531e-08 -5.0142570984235135e-08 0.00020967377349734306 2.4018577349238512e-08 -1.3777991192398531e-08 2.4018577349238512e-08 0.00020970417244825512" pbc="T T T"
Pb       1.96175845       1.38717307       3.39786587      -0.00000033      -0.00000087      -0.00000024
Pb       5.88527592       4.16151850      10.19359703      -0.00000085       0.00000074      -0.00000024
Os       0.00000014       0.00000017       0.00000059       0.00000123      -0.00000166      -0.00000655
Se       2.00875509       1.42040423       6.79573173      -0.00473237      -0.00334622      -0.00000035
Se       5.83827959       4.12828730       6.79573184       0.00473207       0.00334674       0.00000041
Se       4.88089838       1.42040453       5.13749898       0.00236775      -0.00334726      -0.00410122
Se       2.96613645       4.12828678       8.45396387      -0.00237048       0.00335060       0.00410506
Se       2.96613611       4.12828736       5.13749881      -0.00236613       0.00334674      -0.00409856
Se       4.88089844       1.42040448       8.45396423       0.00236888      -0.00334868       0.00410172
