9
Lattice="5.657615468284345 5.82426289382624e-09 3.2664259426020426 1.88587179577658 5.334051335773863 3.2664259988521587 -3.321320983026278e-08 4.540678198194399e-08 6.532851942731076" Properties=species:S:1:pos:R:3:forces:R:3 energy=-38.530391693115234 free_energy=-38.530391693115234 stress="0.0004464990634005517 -1.695899776166243e-08 9.27319465660048e-09 -1.695899776166243e-08 0.0004464717349037528 -2.6266363306604035e-08 9.27319465660048e-09 -2.6266363306604035e-08 0.00044653358054347336" pbc="T T T"
Pb       1.88587179       1.33351306       3.26642589      -0.00000003       0.00000012       0.00000006
Pb       5.65761570       4.00053825       9.79927801       0.00000002      -0.00000035      -0.00000001
P        0.00000007       0.00000019      -0.00000032      -0.00000791       0.00000017       0.00000250
S        1.78803967       1.26433514       6.53285213       0.00145370       0.00102895       0.00000167
S        5.75544714       4.06971612       6.53285197      -0.00144798      -0.00102389      -0.00000008
S        4.76359534       1.26433517       4.81491378      -0.00072509       0.00102592       0.00125575
S        2.77989161       4.06971640       8.25079013       0.00072712      -0.00102991      -0.00126058
S        2.77989179       4.06971610       4.81491370       0.00072566      -0.00102633       0.00125694
S        4.76359584       1.26433518       8.25079000      -0.00072554       0.00102586      -0.00125653
