9
Lattice="6.059043299210102 1.6063424588046038e-07 3.498190258597881 2.0196812175396786 5.712520879044436 3.4981903168718493 -4.643894291310746e-09 6.808695753669132e-08 6.996380525239269" Properties=species:S:1:pos:R:3:forces:R:3 energy=-31.476064682006836 free_energy=-31.476064682006836 stress="4.76526292914059e-05 7.141076707739558e-08 -1.26441312975345e-09 7.141076707739558e-08 4.763199103763327e-05 -9.04131525203411e-09 -1.26441312975345e-09 -9.04131525203411e-09 4.756946145789698e-05" pbc="T T T"
Pb       2.01968094       1.42813000       3.49818997      -0.00000024      -0.00000007       0.00000012
Pb       6.05904351       4.28439052      10.49457019       0.00000089      -0.00000084      -0.00000143
Pt       0.00000129      -0.00000060       0.00000029      -0.00003265       0.00001320       0.00000179
Cl       1.93996708       1.37176453       6.99638058      -0.00102299      -0.00072620       0.00000061
Cl       6.13875678       4.34075702       6.99638078       0.00103690       0.00073101       0.00000131
Cl       5.08905999       1.37176405       5.17825122       0.00051623      -0.00072878      -0.00089128
Cl       2.98966424       4.34075764       8.81451001      -0.00050621       0.00071841       0.00088149
Cl       2.98966430       4.34075718       5.17825143      -0.00050747       0.00072002      -0.00088231
Cl       5.08905989       1.37176408       8.81450996       0.00051546      -0.00072669       0.00088964
