9
Lattice="5.935874210624801 4.5856710785423634e-08 3.42707855260624 1.9786247714201088 5.596395748533339 3.4270785676558964 1.387171017900102e-09 1.9412913257591916e-08 6.854157102809793" Properties=species:S:1:pos:R:3:forces:R:3 energy=-35.095516204833984 free_energy=-35.095516204833984 stress="0.00021731387823820114 5.01055863466604e-09 -1.8874951601688394e-10 5.01055863466604e-09 0.00021732096502091736 9.014594404277432e-09 -1.8874951601688394e-10 9.014594404277432e-09 0.00021733313042204827" pbc="T T T"
Pb       1.97862495       1.39909933       3.42707862      -0.00000001       0.00000064       0.00000056
Pb       5.93587405       4.19729701      10.28123509      -0.00000023       0.00000016      -0.00000022
Pd      -0.00000000      -0.00000009       0.00000037       0.00000031      -0.00000021      -0.00000253
Se       2.05309556       1.45175769       6.85415728      -0.00223461      -0.00158015      -0.00000002
Se       5.86140335       4.14463798       6.85415714       0.00223511       0.00158000       0.00000046
Se       4.90932665       1.45175786       5.20511140       0.00111672      -0.00157999      -0.00193492
Se       3.00517243       4.14463783       8.50320277      -0.00111736       0.00158027       0.00193605
Se       3.00517249       4.14463795       5.20511150      -0.00111742       0.00157902      -0.00193462
Se       4.90932644       1.45175767       8.50320278       0.00111745      -0.00157976       0.00193495
