9
Lattice="5.608722692049503 -4.216598432992153e-08 3.238197665971135 1.869574235527357 5.287954380804387 3.23819758872393 5.045103602810501e-08 -5.8933814073271166e-08 6.476395244558505" Properties=species:S:1:pos:R:3:forces:R:3 energy=-36.85072326660156 free_energy=-36.85072326660156 stress="0.0003525350766722113 2.3110652946911614e-08 -8.171123333511332e-09 2.3110652946911614e-08 0.00035258469870314 2.0891341989681678e-08 -8.171123333511332e-09 2.0891341989681678e-08 0.00035256045521236956" pbc="T T T"
Pb       1.86957442       1.32198863       3.23819741       0.00000065       0.00000067      -0.00000060
Pb       5.60872282       3.96596582       9.71459266      -0.00000007      -0.00000030       0.00000011
Pd       0.00000009       0.00000014       0.00000029      -0.00000039      -0.00000405      -0.00000034
S        1.93035742       1.36496910       6.47639523      -0.00676036      -0.00477821      -0.00000092
S        5.54793935       3.92298505       6.47639557       0.00676131       0.00478083       0.00000195
S        4.64354378       1.36496883       4.90993619       0.00337839      -0.00478047      -0.00585419
S        2.83475313       3.92298522       8.04285426      -0.00338054       0.00477958       0.00585562
S        2.83475299       3.92298529       4.90993631      -0.00337970       0.00478059      -0.00585544
S        4.64354396       1.36496892       8.04285412       0.00338066      -0.00477856       0.00585371
