9
Lattice="5.144556259211179 1.5634763990740658e-07 2.9702109066920226 1.7148521821966765 4.850334053516866 2.970210996088343 1.1094979094009833e-07 1.879410370404966e-07 5.94042162121342" Properties=species:S:1:pos:R:3:forces:R:3 energy=-39.8049201965332 free_energy=-39.8049201965332 stress="9.806579328142107e-05 -3.2946680050827126e-08 -2.417342592764271e-08 -3.2946680050827126e-08 9.812725329538807e-05 1.530644588854102e-08 -2.417342592764271e-08 1.530644588854102e-08 9.812226198846474e-05" pbc="T T T"
Pb       1.71485280       1.21258327       2.97021125       0.00000002      -0.00000033       0.00000096
Pb       5.14455607       3.63775123       8.91063284      -0.00000024      -0.00000012       0.00000125
Pt       0.00000004       0.00000005       0.00000048       0.00000503      -0.00000512      -0.00001439
F        1.68792965       1.19354667       5.94042134       0.00367683       0.00259990       0.00000132
F        5.17147892       3.65678761       5.94042140      -0.00367677      -0.00259867       0.00000185
F        4.30059103       1.19354721       4.43200118      -0.00183806       0.00259817       0.00318354
F        2.55881708       3.65678774       7.44884207       0.00183442      -0.00259432      -0.00317580
F        2.55881758       3.65678705       4.43200098       0.00183737      -0.00259730       0.00318247
F        4.30059121       1.19354674       7.44884209      -0.00183824       0.00259799      -0.00318098
