9
Lattice="4.902112543048854 -5.18397983512268e-08 2.8302361292755194 1.6340374598671743 4.62175611951349 2.8302361389878468 -7.709472387511077e-08 -4.2619074737605485e-08 5.660472392083025" Properties=species:S:1:pos:R:3:forces:R:3 energy=-46.483367919921875 free_energy=-46.483367919921875 stress="-0.000572142016608268 2.3198433396487417e-08 1.8584682237587913e-08 2.3198433396487417e-08 -0.0005721903289668262 -1.3660422126804406e-08 1.8584682237587913e-08 -1.3660422126804406e-08 -0.0005721540655940771" pbc="T T T"
Pb       1.63403745       1.15543895       2.83023590       0.00000041      -0.00000132      -0.00000007
Pb       4.90211243       3.46631701       8.49070846       0.00000023      -0.00000043      -0.00000018
Pt       0.00000008      -0.00000013       0.00000006      -0.00000227       0.00000102      -0.00000801
O        1.58146637       1.11826554       5.66047256      -0.00452077      -0.00319707      -0.00000109
O        4.95468323       3.50349070       5.66047249       0.00452274       0.00319859       0.00000039
O        4.11137975       1.11826522       4.19982595       0.00225827      -0.00319380      -0.00391141
O        2.42477047       3.50349044       7.12111847      -0.00226095       0.00319707       0.00391573
O        2.42477056       3.50349059       4.19982608      -0.00225991       0.00319493      -0.00391328
O        4.11137932       1.11826574       7.12111870       0.00226229      -0.00319853       0.00391790
