9
Lattice="4.925170448309118 -8.342678286934513e-08 2.843548567537532 1.6417234213445466 4.643495202200288 2.843548537693652 -4.075520360498162e-08 -6.536941220029353e-08 5.687097205665135" Properties=species:S:1:pos:R:3:forces:R:3 energy=-44.705039978027344 free_energy=-44.705039978027344 stress="0.0006237756460905075 5.961762639117296e-09 -4.398845732112022e-08 5.961762639117296e-09 0.0006237108027562499 3.470955789453001e-08 -4.398845732112022e-08 3.470955789453001e-08 0.0006237418856471777" pbc="T T T"
Pb       1.64172335       1.16087353       2.84354859      -0.00000067       0.00000089       0.00000033
Pb       4.92517051       3.48262166       8.53064590      -0.00000002       0.00000081       0.00000029
Pd      -0.00000006       0.00000016      -0.00000013       0.00000139       0.00000080       0.00001117
O        1.55471286       1.09934761       5.68709704      -0.00461464      -0.00326450       0.00000046
O        5.01218132       3.54414726       5.68709701       0.00461367       0.00326331      -0.00000087
O        4.14781426       1.09934767       4.18996953       0.00231012      -0.00326735      -0.00400101
O        2.41907943       3.54414737       7.18422525      -0.00230725       0.00326237       0.00399484
O        2.41907954       3.54414732       4.18996919      -0.00230685       0.00326321      -0.00399721
O        4.14781408       1.09934758       7.18422497       0.00230422      -0.00325963       0.00399154
