9
Lattice="6.711590990164522 -5.0660770454634134e-08 3.8749389467665494 2.2371968855573674 6.32774887941543 3.8749390565797928 -6.67984107953541e-08 8.72595543835329e-08 7.749878009231276" Properties=species:S:1:pos:R:3:forces:R:3 energy=-25.617408752441406 free_energy=-25.617408752441406 stress="-1.8250741049996577e-05 -1.1156735979511723e-08 -2.093134998659707e-09 -1.1156735979511723e-08 -1.823163438530173e-05 -1.7790854345278717e-09 -2.093134998659707e-09 -1.7790854345278717e-09 -1.8210845155408606e-05" pbc="T T T"
Pb       2.23719680       1.58193672       3.87493878      -0.00000081      -0.00000075      -0.00000060
Pb       6.71159076       4.74581171      11.62481721       0.00000036       0.00000028      -0.00000002
Pt      -0.00000060      -0.00000017      -0.00000033       0.00000566       0.00000197       0.00000351
I        2.22046070       1.57010300       7.74987810       0.00044133       0.00031171       0.00000037
I        6.72832768       4.75764641       7.74987794      -0.00044626      -0.00031463      -0.00000017
I        5.60136064       1.57010309       5.79791487      -0.00022037       0.00031159       0.00038105
I        3.34742725       4.75764610       9.70184124       0.00022133      -0.00031251      -0.00038193
I        3.34742733       4.75764609       5.79791478       0.00022059      -0.00031088       0.00038081
I        5.60136064       1.57010275       9.70184147      -0.00022182       0.00031319      -0.00038300
