9
Lattice="5.79409597994835 -3.528014250913971e-08 3.3452228771018837 1.931365291842075 5.462726093474595 3.3452228797778374 -2.7944139263496554e-08 -1.648213772050913e-08 6.690445802604459" Properties=species:S:1:pos:R:3:forces:R:3 energy=-35.32638168334961 free_energy=-35.32638168334961 stress="0.00012113371485611424 -1.6599232210978698e-08 -2.974904322883276e-09 -1.6599232210978698e-08 0.00012116018478991464 -5.3028048618841694e-09 -2.974904322883276e-09 -5.3028048618841694e-09 0.00012116847210563719" pbc="T T T"
Pb       1.93136526       1.36568129       3.34522298       0.00000024       0.00000023      -0.00000010
Pb       5.79409591       4.09704427      10.03566869      -0.00000026      -0.00000008       0.00000005
P        0.00000019       0.00000009       0.00000014       0.00000002       0.00000013      -0.00000389
Se       1.90481812       1.34691004       6.69044572      -0.00003429      -0.00002442      -0.00000007
Se       5.82064272       4.11581598       6.69044574       0.00003417       0.00002398       0.00000031
Se       4.84168687       1.34691002       4.99484403       0.00001766      -0.00002478      -0.00003038
Se       2.88377455       4.11581615       8.38604749      -0.00001877       0.00002708       0.00003257
Se       2.88377442       4.11581632       4.99484387      -0.00001778       0.00002475      -0.00003110
Se       4.84168691       1.34690996       8.38604762       0.00001881      -0.00002700       0.00003257
