9
Lattice="5.578708172217548 5.358885189804442e-09 3.220868709058996 1.8595694166150951 5.259656429034881 3.220868672991615 4.9474705136545026e-08 -9.189461375594913e-09 6.441737332425302" Properties=species:S:1:pos:R:3:forces:R:3 energy=-39.0898323059082 free_energy=-39.0898323059082 stress="0.0004060899664182216 2.2863801518724358e-08 1.9873032996997608e-08 2.2863801518724358e-08 0.0004060922656208277 -3.189127539826586e-08 1.9873032996997608e-08 -3.189127539826586e-08 0.0004060578066855669" pbc="T T T"
Pb       1.85956935       1.31491401       3.22086854      -0.00000002       0.00000003       0.00000052
Pb       5.57870805       3.94474226       9.66260604       0.00000049      -0.00000097       0.00000022
Pt       0.00000020       0.00000024       0.00000020      -0.00000181      -0.00000205       0.00000297
S        1.89967565       1.34327347       6.44173729      -0.00740701      -0.00523707       0.00000001
S        5.53860176       3.91638277       6.44173722       0.00740880       0.00523874       0.00000003
S        4.62887041       1.34327347       4.86603613       0.00370309      -0.00523636      -0.00641364
S        2.80940732       3.91638293       8.01743867      -0.00370240       0.00523549       0.00641155
S        2.80940744       3.91638300       4.86603613      -0.00370458       0.00523955      -0.00641626
S        4.62887046       1.34327355       8.01743874       0.00370350      -0.00523746       0.00641471
