9
Lattice="4.50642200973604 -7.392954587054628e-09 2.6017840054598036 1.5021406451257588 4.248695548157725 2.6017840363182105 -2.2186091759744075e-08 2.2105727926696193e-08 5.203568049347044" Properties=species:S:1:pos:R:3:forces:R:3 energy=-51.919586181640625 free_energy=-51.919586181640625 stress="0.00035726476926356554 -4.99050889501973e-09 3.30841203322052e-08 -4.99050889501973e-09 0.0003571120905689895 -4.357643490493501e-08 3.30841203322052e-08 -4.357643490493501e-08 0.0003574613656383008" pbc="T T T"
Pb       1.50214071       1.06217375       2.60178397      -0.00000015      -0.00000008       0.00000002
Pb       4.50642210       3.18652168       7.80535209       0.00000013      -0.00000035       0.00000013
P       -0.00000012      -0.00000004      -0.00000013       0.00000173       0.00000364      -0.00000108
O        1.40611764       0.99427523       5.20356807       0.00443566       0.00314009       0.00000027
O        4.60244503       3.25442013       5.20356798      -0.00444055      -0.00313985      -0.00000192
O        3.80336315       0.99427515       3.81951761      -0.00221980       0.00314116       0.00384247
O        2.20519941       3.25442049       6.58761839       0.00221860      -0.00314093      -0.00384319
O        2.20519932       3.25442040       3.81951772       0.00222206      -0.00314271       0.00384510
O        3.80336317       0.99427525       6.58761841      -0.00221938       0.00313914      -0.00384176
