9
Lattice="5.8840814285412355 -2.6951467541542843e-08 3.397175925205627 1.9613604316127953 5.547564986638204 3.397175958387353 -2.490055151335404e-08 2.303186844507279e-08 6.794351893540142" Properties=species:S:1:pos:R:3:forces:R:3 energy=-36.6027717590332 free_energy=-36.6027717590332 stress="8.004938717931509e-05 1.0150528417796068e-08 1.4525348035476782e-08 1.0150528417796068e-08 8.00267662270926e-05 -1.6854988516001868e-08 1.4525348035476782e-08 -1.6854988516001868e-08 8.001967216841877e-05" pbc="T T T"
Pb       1.96136055       1.38689137       3.39717599      -0.00000004       0.00000013       0.00000037
Pb       5.88408146       4.16067355      10.19152783       0.00000001      -0.00000056      -0.00000145
Pt      -0.00000002      -0.00000007       0.00000014      -0.00000069       0.00000138      -0.00000412
Se       2.02007334       1.42840749       6.79435190      -0.00098296      -0.00069483       0.00000026
Se       5.82536852       4.11915752       6.79435193       0.00098342       0.00069484       0.00000004
Se       4.87404480       1.42840732       5.14661063       0.00049005      -0.00069312      -0.00084966
Se       2.97139707       4.11915765       8.44209304      -0.00049122       0.00069518       0.00085142
Se       2.97139698       4.11915769       5.14661066      -0.00049058       0.00069351      -0.00085002
Se       4.87404463       1.42840739       8.44209300       0.00049207      -0.00069637       0.00085316
