9
Lattice="5.8725295510019295 5.185560666085708e-08 3.390506526660869 1.9575099414526806 5.5366739073939675 3.390506453518555 7.774011218351947e-08 -3.461017229627704e-08 6.781012918671975" Properties=species:S:1:pos:R:3:forces:R:3 energy=-37.985107421875 free_energy=-37.985107421875 stress="0.00016448560927528888 3.021722250196035e-08 -4.992231517064738e-09 3.021722250196035e-08 0.000164391691214405 -1.4520333380119155e-08 -4.992231517064738e-09 -1.4520333380119155e-08 0.00016452818817924708" pbc="T T T"
Pb       1.95750993       1.38416861       3.39050625       0.00000025      -0.00000047       0.00000128
Pb       5.87252938       4.15250551      10.17151956       0.00000346      -0.00000095       0.00000024
Rh       0.00000012      -0.00000023      -0.00000018       0.00000091       0.00000056      -0.00000011
Se       2.00608329       1.41851495       6.78101291      -0.00372757      -0.00263547      -0.00000021
Se       5.82395633       4.11815890       6.78101285       0.00372542       0.00263499      -0.00000038
Se       4.86948808       1.41851491       5.12782547       0.00186215      -0.00263394      -0.00322707
Se       2.96055151       4.11815918       8.43420075      -0.00186352       0.00263426       0.00322761
Se       2.96055163       4.11815902       5.12782541      -0.00186281       0.00263513      -0.00322787
Se       4.86948804       1.41851487       8.43420055       0.00186164      -0.00263408       0.00322652
