9
Lattice="5.928967254936366 2.404070467051658e-08 3.4230908816232692 1.9763223972711008 5.589884021207714 3.423090957325669 -6.825844583184901e-08 4.445012681985437e-08 6.84618188147361" Properties=species:S:1:pos:R:3:forces:R:3 energy=-43.28598403930664 free_energy=-43.28598403930664 stress="0.00018056383123621345 -1.451386033579638e-08 -1.3097344542245537e-08 -1.451386033579638e-08 0.00018054830434266478 7.903693699518044e-09 -1.3097344542245537e-08 7.903693699518044e-09 0.00018056941917166114" pbc="T T T"
Pb       1.97632243       1.39747116       3.42309091      -0.00000004      -0.00000051      -0.00000017
Pb       5.92896722       4.19241319      10.26927301      -0.00000007      -0.00000056       0.00000014
Re      -0.00000010      -0.00000010       0.00000027       0.00000040       0.00000088      -0.00000227
Se       2.01122770       1.42215288       6.84618184      -0.00204489      -0.00144593      -0.00000024
Se       5.89406185       4.16773120       6.84618188       0.00204411       0.00144574       0.00000000
Se       4.92335324       1.42215290       5.16486544       0.00102326      -0.00144652      -0.00177255
Se       2.98193642       4.16773103       8.52749801      -0.00102362       0.00144829       0.00177386
Se       2.98193624       4.16773115       5.16486529      -0.00102271       0.00144574      -0.00177148
Se       4.92335331       1.42215291       8.52749827       0.00102371      -0.00144725       0.00177285
