9
Lattice="5.535120225683379 1.7489908428273378e-08 3.195703036047169 1.8450400928215864 5.218561366240568 3.1957030341347705 8.424998423246395e-09 3.6151651572291778e-09 6.39140605750178" Properties=species:S:1:pos:R:3:forces:R:3 energy=-42.15919876098633 free_energy=-42.15919876098633 stress="0.00012293910549487919 1.9219218216903755e-08 -2.248968833384879e-08 1.9219218216903755e-08 0.0001229463523486629 4.0914334142883035e-09 -2.248968833384879e-08 4.0914334142883035e-09 0.000122966303024441" pbc="T T T"
Pb       1.84504034       1.30464038       3.19570306       0.00000025      -0.00000005       0.00000020
Pb       5.53512037       3.91392098       9.58710898      -0.00000041       0.00000036       0.00000049
Ru       0.00000007       0.00000007       0.00000008      -0.00000023       0.00000007      -0.00000049
S        1.89561819       1.34040444       6.39140597      -0.00268346      -0.00189793      -0.00000006
S        5.48454166       3.87815672       6.39140610       0.00268584       0.00189865      -0.00000023
S        4.58731121       1.34040437       4.83735632       0.00134084      -0.00189751      -0.00232315
S        2.79284916       3.87815719       7.94545578      -0.00134173       0.00189689       0.00232339
S        2.79284905       3.87815710       4.83735627      -0.00134113       0.00189608      -0.00232232
S        4.58731125       1.34040429       7.94545587       0.00134033      -0.00189626       0.00232220
