9
Lattice="5.635244561438844 -7.310228808351975e-08 3.2535099128928078 1.8784147817533976 5.312959417367293 3.2535099183280813 -3.0435734064400004e-08 -1.4864499564705542e-08 6.507019878501795" Properties=species:S:1:pos:R:3:forces:R:3 energy=-46.63029479980469 free_energy=-46.63029479980469 stress="8.012518082978204e-05 -2.684170929967422e-08 2.048909264473764e-09 -2.684170929967422e-08 8.013188926270232e-05 5.938553204742902e-09 2.048909264473764e-09 5.938553204742902e-09 8.020221866900101e-05" pbc="T T T"
Pb       1.87841489       1.32823987       3.25351010      -0.00000041       0.00000004       0.00000009
Pb       5.63524441       3.98471978       9.76052990       0.00000027       0.00000067       0.00000026
Re      -0.00000001      -0.00000020       0.00000016       0.00000097       0.00000190      -0.00000438
S        1.90803563       1.34918488       6.50701989       0.00015432       0.00010943      -0.00000073
S        5.60562384       3.96377452       6.50701987      -0.00015652      -0.00011081      -0.00000041
S        4.68122660       1.34918481       4.90591737      -0.00007734       0.00010937       0.00013322
S        2.83243255       3.96377432       8.10812219       0.00007573      -0.00010651      -0.00013065
S        2.83243257       3.96377449       4.90591728       0.00007761      -0.00011081       0.00013375
S        4.68122672       1.34918481       8.10812211      -0.00007525       0.00010669      -0.00013101
