9
Lattice="4.924300283085646 -2.2088667643787342e-07 2.843046040808042 1.6414333085375101 4.642674393721861 2.8430458864888544 -3.580211477298611e-08 -2.1431757869578122e-07 5.686092143627172" Properties=species:S:1:pos:R:3:forces:R:3 energy=-52.471160888671875 free_energy=-52.471160888671875 stress="5.672961560776457e-05 1.7916229611003587e-09 1.5221488069983025e-08 1.7916229611003587e-09 5.6852262787288055e-05 -2.3878188315507032e-08 1.5221488069983025e-08 -2.3878188315507032e-08 5.674761996488087e-05" pbc="T T T"
Pb       1.64143343       1.16066846       2.84304579      -0.00000018       0.00000121       0.00000018
Pb       4.92430038       3.48200571       8.52913814       0.00000100       0.00000014       0.00000014
Ru       0.00000013       0.00000002       0.00000018      -0.00000200       0.00000064      -0.00000549
O        1.52450398       1.07798693       5.68609207      -0.00211573      -0.00149730       0.00000012
O        5.04122969       3.56468694       5.68609191       0.00211573       0.00149584       0.00000012
O        4.16204812       1.07798686       4.16330528       0.00105754      -0.00149664      -0.00183302
O        2.40368511       3.56468690       7.20887881      -0.00105903       0.00149801       0.00183588
O        2.40368533       3.56468731       4.16330512      -0.00105709       0.00149724      -0.00183392
O        4.16204808       1.07798662       7.20887893       0.00105938      -0.00149885       0.00183684
