9
Lattice="5.878652424356427 1.5961723108661432e-07 3.3940415099080066 1.9595509307179524 5.5424468598482 3.394041558213931 -4.544437299175722e-08 2.7028365920302666e-08 6.788083098527991" Properties=species:S:1:pos:R:3:forces:R:3 energy=-39.82133102416992 free_energy=-39.82133102416992 stress="0.0001889542763819918 -1.561530993399174e-08 -2.6501824734737056e-08 -1.561530993399174e-08 0.00018899113638326526 -2.5058671582200986e-08 -2.6501824734737056e-08 -2.5058671582200986e-08 0.00018895177345257252" pbc="T T T"
Pb       1.95955109       1.38561221       3.39404155       0.00000082       0.00000008       0.00000067
Pb       5.87865256       4.15683499      10.18212434      -0.00000063      -0.00000014      -0.00000156
Ru      -0.00000012       0.00000005      -0.00000018       0.00000110       0.00000002       0.00000068
Se       2.00674333       1.41898205       6.78808316      -0.00477383      -0.00337629       0.00000064
Se       5.83145998       4.12346504       6.78808313       0.00477341       0.00337511       0.00000021
Se       4.87528064       1.41898213       5.13193246       0.00238729      -0.00337557      -0.00413433
Se       2.96292251       4.12346494       8.44423388      -0.00238688       0.00337566       0.00413507
Se       2.96292263       4.12346479       5.13193256      -0.00238825       0.00337682      -0.00413591
Se       4.87528064       1.41898200       8.44423383       0.00238699      -0.00337572       0.00413430
