9
Lattice="4.997754971484518 1.6049583913603716e-08 2.885455203562255 1.665918317548461 4.711928711706365 2.8854552406479277 -4.502988063509415e-08 1.35795375687768e-08 5.770910485118557" Properties=species:S:1:pos:R:3:forces:R:3 energy=-59.233829498291016 free_energy=-59.233829498291016 stress="-0.0001324574841419235 5.854485607414972e-08 1.669166138640321e-08 5.854485607414972e-08 -0.0001322872267337516 4.160080990800452e-08 1.669166138640321e-08 4.160080990800452e-08 -0.00013244387810118496" pbc="T T T"
Pb       1.66591812       1.17798215       2.88545527      -0.00000030       0.00000130       0.00000093
Pb       4.99775495       3.53394632       8.65636517      -0.00000035       0.00000021      -0.00000163
Re       0.00000001       0.00000009       0.00000003      -0.00000028      -0.00000024       0.00000570
O        1.55559254       1.09997021       5.77091047      -0.00023866      -0.00016880       0.00000061
O        5.10808070       3.61195859       5.77091051       0.00023746       0.00016940      -0.00000008
O        4.21995881       1.09997017       4.23263815       0.00012076      -0.00016999      -0.00020778
O        2.44371459       3.61195889       7.30918303      -0.00011623       0.00016546       0.00020182
O        2.44371450       3.61195853       4.23263803      -0.00011754       0.00016785      -0.00020337
O        4.21995867       1.09997001       7.30918302       0.00011456      -0.00016391       0.00020206
