9
Lattice="5.719009716424609 5.8015714359025464e-09 3.301871913001076 1.9063365740336398 5.391934113452266 3.301871919197754 2.3229964790103408e-08 2.4015422016653372e-08 6.603743785766647" Properties=species:S:1:pos:R:3:forces:R:3 energy=-34.65713882446289 free_energy=-34.65713882446289 stress="3.80988021788653e-05 -2.7762236953776664e-08 -2.4665364861675698e-08 -2.7762236953776664e-08 3.8163965655257925e-05 -2.0852368720625236e-08 -2.4665364861675698e-08 -2.0852368720625236e-08 3.817087417701259e-05" pbc="T T T"
Pb       1.90633662       1.34798333       3.30187210       0.00000003       0.00000011       0.00000162
Pb       5.71900946       4.04395079       9.90561569      -0.00000186      -0.00000037      -0.00000019
Se       0.00000005       0.00000018       0.00000033      -0.00000031      -0.00000004      -0.00000894
S        1.87429518       1.32532659       6.60374391       0.00072372       0.00051060       0.00000066
S        5.75105101       4.06660725       6.60374381      -0.00072330      -0.00050935      -0.00000069
S        4.78186215       1.32532698       4.92505954      -0.00036025       0.00051153       0.00062537
S        2.84348459       4.06660717       8.28242781       0.00035876      -0.00050706      -0.00062156
S        2.84348427       4.06660713       4.92505948       0.00036180      -0.00051156       0.00062501
S        4.78186198       1.32532718       8.28242776      -0.00035876       0.00050631      -0.00062114
