9
Lattice="5.263325869613077 -1.7165111644058184e-07 3.0387829484443185 1.754441776660817 4.962311350868215 3.038782979695345 -2.084281552352011e-07 -1.0910653739321833e-07 6.077566257897056" Properties=species:S:1:pos:R:3:forces:R:3 energy=-37.04128646850586 free_energy=-37.04128646850586 stress="1.4541949894919526e-05 2.84828036711815e-08 3.421237693146395e-08 2.84828036711815e-08 1.4491486581391655e-05 -3.464950637521724e-08 3.421237693146395e-08 -3.464950637521724e-08 1.4420605111808982e-05" pbc="T T T"
Pb       1.75444116       1.24057804       3.03878296      -0.00000247      -0.00000112      -0.00000012
Pb       5.26332566       3.72173287       9.11634933      -0.00000007       0.00000073      -0.00000015
Se      -0.00000020      -0.00000049       0.00000029       0.00000306       0.00000961      -0.00000769
F        1.75324527       1.23973180       6.07756614      -0.00149196      -0.00105485       0.00000092
F        5.26452157       3.72257866       6.07756593       0.00149009       0.00105223       0.00000056
F        4.38670305       1.23973237       4.55713980       0.00074515      -0.00105420      -0.00128841
F        2.63106486       3.72257899       7.59799234      -0.00074595       0.00105244       0.00128993
F        2.63106496       3.72258008       4.55713890      -0.00074393       0.00105131      -0.00128689
F        4.38670308       1.23973204       7.59799301       0.00074607      -0.00105634       0.00129232
