9
Lattice="6.484703648979331 1.510033860148356e-07 3.7439452881962683 2.1615679485759784 6.113837034137153 3.7439454211909218 -7.640540207546902e-08 1.0885777615649114e-07 7.487890708730548" Properties=species:S:1:pos:R:3:forces:R:3 energy=-27.232454299926758 free_energy=-27.232454299926758 stress="0.00018671479483600706 3.372269796741989e-09 -2.497141660118274e-10 3.372269796741989e-09 0.00018672402075026184 -6.8977596967556565e-09 -2.497141660118274e-10 -6.8977596967556565e-09 0.0001867285172920674" pbc="T T T"
Pb       2.16156787       1.52845917       3.74394553       0.00000027      -0.00000067       0.00000013
Pb       6.48470341       4.58537798      11.23183567      -0.00000024      -0.00000018      -0.00000141
Sn       0.00000008       0.00000003      -0.00000019       0.00000006       0.00000014      -0.00000202
Br       2.18514174       1.54512865       7.48789082      -0.00592822      -0.00419199      -0.00000015
Br       6.46112967       4.56870868       7.48789088       0.00592765       0.00419264       0.00000088
Br       5.39213289       1.54512860       5.63633343       0.00296328      -0.00419131      -0.00513329
Br       3.25413889       4.56870839       9.33944783      -0.00296457       0.00419280       0.00513430
Br       3.25413857       4.56870868       5.63633359      -0.00296377       0.00419085      -0.00513254
Br       5.39213297       1.54512901       9.33944810       0.00296549      -0.00419223       0.00513409
