9
Lattice="6.0864439929806995 -2.558354646947689e-08 3.5140101008845646 2.0288146397524014 5.738354530529187 3.5140101016711065 -1.9840214129027768e-08 -1.3065856545008254e-08 7.028020236133366" Properties=species:S:1:pos:R:3:forces:R:3 energy=-33.653656005859375 free_energy=-33.653656005859375 stress="0.0003038900322280824 -2.4755708594170756e-08 -1.5371854900081416e-08 -2.4755708594170756e-08 0.00030385953141376376 -7.476264940464716e-09 -1.5371854900081416e-08 -7.476264940464716e-09 0.00030395505018532276" pbc="T T T"
Pb       2.02881415       1.43458889       3.51401028       0.00000001      -0.00000010       0.00000068
Pb       6.08644402       4.30376567      10.54203010      -0.00000024      -0.00000254       0.00000088
Sn       0.00000012      -0.00000022       0.00000003       0.00000234       0.00000143      -0.00000113
Se       2.16012969       1.52744242       7.02801999       0.00067270       0.00047630      -0.00000093
Se       5.95512902       4.21091204       7.02802009      -0.00067530      -0.00047835       0.00000020
Se       5.00637907       1.52744256       5.38473770      -0.00033704       0.00047752       0.00058425
Se       3.10887981       4.21091212       8.67130315       0.00033674      -0.00047492      -0.00058320
Se       3.10887951       4.21091208       5.38473743       0.00033674      -0.00047570       0.00058296
Se       5.00637910       1.52744245       8.67130293      -0.00033599       0.00047647      -0.00058381
