9
Lattice="6.38541228353002 -8.074466170697626e-08 3.6866195056531157 2.1284706957090047 6.020224494580707 3.686619487190886 -1.3580526033883729e-08 -3.2214375059586455e-08 7.373239034828381" Properties=species:S:1:pos:R:3:forces:R:3 energy=-23.95651626586914 free_energy=-23.95651626586914 stress="0.00018607376841828227 -7.058895690192912e-09 8.974891940738416e-10 -7.058895690192912e-09 0.0001860676857177168 -2.3810937666013388e-09 8.974891940738416e-10 -2.3810937666013388e-09 0.00018605319201014936" pbc="T T T"
Pb       2.12847067       1.50505612       3.68661961      -0.00000036       0.00000029       0.00000010
Pb       6.38541235       4.51516829      11.05985825       0.00000021      -0.00000016      -0.00000039
S       -0.00000039      -0.00000038      -0.00000018       0.00000302       0.00000180       0.00000054
Br       2.16044389       1.52766473       7.37323903      -0.00533456      -0.00377169      -0.00000007
Br       6.35343914       4.49255975       7.37323915       0.00533298       0.00377034       0.00000016
Br       5.30519026       1.52766443       5.55761892       0.00266623      -0.00377205      -0.00461975
Br       3.20869280       4.49256000       9.18885912      -0.00266707       0.00377178       0.00461978
Br       3.20869288       4.49255988       5.55761902      -0.00266725       0.00377171      -0.00462005
Br       5.30519020       1.52766464       9.18885918       0.00266685      -0.00377190       0.00461966
