9
Lattice="4.830273152958375 -1.0945774898058008e-08 2.7887596170613977 1.6100910632091394 4.554025084228196 2.788759578016154 6.901988101425731e-08 9.839212233509654e-10 5.57751911457685" Properties=species:S:1:pos:R:3:forces:R:3 energy=-45.118324279785156 free_energy=-45.118324279785156 stress="-7.7469721873058e-06 1.1282143930202437e-07 4.1814018914010376e-09 1.1282143930202437e-07 -7.6204005381441675e-06 9.381103893701948e-08 4.1814018914010376e-09 9.381103893701948e-08 -7.874486982473172e-06" pbc="T T T"
Pb       1.61009070       1.13850659       2.78875988      -0.00000204       0.00000105      -0.00000115
Pb       4.83027325       3.41551881       8.36627801       0.00000032       0.00000164      -0.00000114
Se      -0.00000119       0.00000159      -0.00000080      -0.00002019       0.00002544      -0.00001607
O        1.50362840       1.06322520       5.57751922       0.00013518       0.00008559       0.00000195
O        4.93673649       3.49079908       5.57751954      -0.00012577      -0.00009561       0.00000484
O        4.07845915       1.06322541       4.09094025      -0.00006384       0.00008762       0.00011611
O        2.36190540       3.49079889       7.06409850       0.00007153      -0.00009787      -0.00010872
O        2.36190524       3.49079922       4.09094025       0.00006884      -0.00009763       0.00011504
O        4.07845967       1.06322538       7.06409845      -0.00006318       0.00008965      -0.00011051
