9
Lattice="5.24797744492916 -7.234271385933458e-08 3.0299211227047347 1.749325758597803 4.9478400175872 3.0299211022201935 4.25401452801586e-08 4.992040938308127e-09 6.059842171727766" Properties=species:S:1:pos:R:3:forces:R:3 energy=-41.02477264404297 free_energy=-41.02477264404297 stress="-9.384121221955866e-05 -2.2418586098638116e-08 2.3449549857446073e-08 -2.2418586098638116e-08 -9.381159907206893e-05 -5.950224135631288e-08 2.3449549857446073e-08 -5.950224135631288e-08 -9.381063864566386e-05" pbc="T T T"
Pb       1.74932572       1.23695970       3.02992132      -0.00000007       0.00000018      -0.00000013
Pb       5.24797733       3.71088022       9.08976325       0.00000023       0.00000024      -0.00000035
Sn       0.00000011      -0.00000017      -0.00000063       0.00000211       0.00000472       0.00001083
F        1.73394588       1.22608448       6.05984221      -0.00239782      -0.00169523       0.00000045
F        5.26335769       3.72175548       6.05984220       0.00239396       0.00169342       0.00000004
F        4.38100436       1.22608447       4.53156236       0.00119950      -0.00169684      -0.00207787
F        2.61629850       3.72175599       7.58812269      -0.00119548       0.00169078       0.00207065
F        2.61629867       3.72175509       4.53156237      -0.00120137       0.00169881      -0.00208076
F        4.38100468       1.22608458       7.58812210       0.00119895      -0.00169608       0.00207709
