9
Lattice="6.0374955055785495 -3.238080631739323e-08 3.4857496772472545 2.0124984676451003 5.692205314864149 3.485749683630726 -1.4634530277934619e-08 -2.530064506298165e-09 6.971499379842251" Properties=species:S:1:pos:R:3:forces:R:3 energy=-37.66063690185547 free_energy=-37.66063690185547 stress="8.038891246542335e-05 -1.3803011178481484e-08 1.4677585535860516e-11 -1.3803011178481484e-08 8.040785178309307e-05 -4.080963122987669e-09 1.4677585535860516e-11 -4.080963122987669e-09 8.040180546231568e-05" pbc="T T T"
Pb       2.01249848       1.42305133       3.48574968      -0.00000047       0.00000032       0.00000021
Pb       6.03749544       4.26915389      10.45724914       0.00000030       0.00000016      -0.00000098
Sc      -0.00000008       0.00000009       0.00000027       0.00000405      -0.00000218      -0.00000075
Cl       2.00499451       1.41774521       6.97149935       0.00161232       0.00113975       0.00000019
Cl       6.04499944       4.27446009       6.97149933      -0.00161396      -0.00114086       0.00000089
Cl       5.03499829       1.41774522       5.22212596      -0.00080667       0.00114012       0.00139721
Cl       3.01499579       4.27445996       8.72087256       0.00080567      -0.00113906      -0.00139491
Cl       3.01499575       4.27446004       5.22212600       0.00080518      -0.00113885       0.00139511
Cl       5.03499821       1.41774527       8.72087266      -0.00080644       0.00114059      -0.00139692
