9
Lattice="6.224875893647922 -1.5401510907652516e-07 3.593933956955971 2.074958493382514 5.868869281259523 3.5939339441847613 -7.245815174056598e-10 -1.6153726574919162e-08 7.187867915166839" Properties=species:S:1:pos:R:3:forces:R:3 energy=-30.85448455810547 free_energy=-30.85448455810547 stress="0.0001185881847050041 -4.9752266306768433e-08 1.215428735434898e-08 -4.9752266306768433e-08 0.0001186272274935618 -1.61034154899653e-08 1.215428735434898e-08 -1.61034154899653e-08 0.00011866867862408981" pbc="T T T"
Pb       2.07495879       1.46721736       3.59393399      -0.00000026      -0.00000007       0.00000058
Pb       6.22487543       4.40165150      10.78180171       0.00000024      -0.00000013       0.00000076
Sn      -0.00000051       0.00000001       0.00000128       0.00001287       0.00000231      -0.00002019
Cl       2.05094235       1.45023535       7.18786802      -0.00036436      -0.00025778       0.00000009
Cl       6.24889264       4.41863433       7.18786771       0.00035521       0.00025155       0.00000067
Cl       5.19940458       1.45023524       5.37010223       0.00017855      -0.00025359      -0.00031108
Cl       3.10043007       4.41863323       9.00563277      -0.00018580       0.00026269       0.00032258
Cl       3.10043006       4.41863369       5.37010282      -0.00018217       0.00025673      -0.00031555
Cl       5.19940420       1.45023574       9.00563273       0.00018576      -0.00026177       0.00032222
