9
Lattice="5.839993266523079 9.230302051880327e-08 3.3717217546950935 1.9466645130771842 5.505998278595862 3.3717217479769612 4.2613951643084686e-08 2.1904650178946064e-08 6.743443435580609" Properties=species:S:1:pos:R:3:forces:R:3 energy=-35.72925567626953 free_energy=-35.72925567626953 stress="0.0002237952867290005 -1.1666971388990532e-08 2.3564279416632417e-08 -1.1666971388990532e-08 0.00022378252469934523 -2.352295602747745e-08 2.3564279416632417e-08 -2.352295602747745e-08 0.00022380219888873398" pbc="T T T"
Pb       1.94666482       1.37649964       3.37172170       0.00000167       0.00000199      -0.00000012
Pb       5.83999330       4.12949933      10.11516520      -0.00000056       0.00000295       0.00000009
Si      -0.00000015       0.00000011       0.00000034      -0.00000184      -0.00000165      -0.00000429
Se       1.96491554       1.38940520       6.74344358      -0.00447402      -0.00316473      -0.00000030
Se       5.82174203       4.11659308       6.74344349       0.00447429       0.00316336      -0.00000127
Se       4.85753559       1.38940494       5.07338844       0.00223591      -0.00316254      -0.00387319
Se       2.92912241       4.11659291       8.41349805      -0.00223752       0.00316545       0.00387641
Se       2.92912228       4.11659307       5.07338875      -0.00223694       0.00316199      -0.00387521
Se       4.85753548       1.38940529       8.41349822       0.00223905      -0.00316691       0.00387775
