9
Lattice="6.956304302099514 -5.067460904478771e-08 4.016224188837789 2.3187680314213224 6.558466595469337 4.016224226080404 -3.902873239836261e-08 1.8015254415562547e-08 8.032448445275277" Properties=species:S:1:pos:R:3:forces:R:3 energy=-29.601022720336914 free_energy=-29.601022720336914 stress="-5.083489213575376e-06 6.7051697527631404e-09 -2.4408637333550587e-09 6.7051697527631404e-09 -5.092526407679543e-06 1.0701317609829175e-09 -2.4408637333550587e-09 1.0701317609829175e-09 -5.088340458314633e-06" pbc="T T T"
Pb       2.31876808       1.63961678       4.01622423       0.00000064       0.00000065       0.00000032
Pb       6.95630425       4.91884980      12.04867256      -0.00000043      -0.00000004      -0.00000047
Sc       0.00000026      -0.00000008      -0.00000107      -0.00000231      -0.00000019       0.00000683
I        2.33001585       1.64756977       8.03244825      -0.00199969      -0.00141444       0.00000072
I        6.94505656       4.91089676       8.03244848       0.00200173       0.00141540       0.00000092
I        5.79129621       1.64757013       6.03407727       0.00100167      -0.00141665      -0.00173436
I        3.48377544       4.91089700      10.03082044      -0.00099842       0.00141155       0.00172974
I        3.48377583       4.91089648       6.03407693      -0.00100156       0.00141591      -0.00173372
I        5.79129665       1.64756961      10.03082037       0.00099835      -0.00141223       0.00173005
