9
Lattice="6.24744879222885 6.624748539930035e-09 3.6069662071819946 2.0824829522039323 5.890151008855456 3.606966180828586 1.1536799590940612e-08 -2.4118417312302158e-08 7.213932394381662" Properties=species:S:1:pos:R:3:forces:R:3 energy=-30.748062133789062 free_energy=-30.748062133789062 stress="7.925732643343508e-05 -4.071585735232475e-09 -2.2166178226257216e-08 -4.071585735232475e-09 7.927279511932284e-05 2.1245023518190465e-08 -2.2166178226257216e-08 2.1245023518190465e-08 7.925964746391401e-05" pbc="T T T"
Pb       2.08248275       1.47253723       3.60696636      -0.00000016      -0.00000191       0.00000010
Pb       6.24744869       4.41761381      10.82089858       0.00000030       0.00000307       0.00000008
Sr      -0.00000036      -0.00000000      -0.00000030       0.00000422      -0.00000059      -0.00000037
Cl       2.21943816       1.56937947       7.21393228      -0.00065793      -0.00046678       0.00000023
Cl       6.11049405       4.32077172       7.21393260       0.00065522       0.00046398      -0.00000018
Cl       5.13772986       1.56937928       5.52905590       0.00032969      -0.00046684      -0.00056980
Cl       3.19220199       4.32077166       8.89880888      -0.00033059       0.00046806       0.00057126
Cl       3.19220181       4.32077147       5.52905572      -0.00032818       0.00046543      -0.00056868
Cl       5.13773012       1.56937936       8.89880911       0.00032746      -0.00046442       0.00056739
