9
Lattice="5.791569065647918 3.54202331219341e-08 3.3437638935956895 1.9305230583516686 5.4603437508370645 3.3437638882705234 4.2435136639486515e-08 2.3484205707765004e-08 6.687527713691584" Properties=species:S:1:pos:R:3:forces:R:3 energy=-35.90597152709961 free_energy=-35.90597152709961 stress="0.000164150376804173 -5.113020229430276e-09 1.6568431959740337e-08 -5.113020229430276e-09 0.00016409864474553615 -1.5530464025914625e-08 1.6568431959740337e-08 -1.5530464025914625e-08 0.00016409593808930367" pbc="T T T"
Pb       1.93052346       1.36508557       3.34376372       0.00000135      -0.00000188      -0.00000041
Pb       5.79156877       4.09525810      10.03129166      -0.00000087       0.00000024      -0.00000004
Sn       0.00000032      -0.00000019      -0.00000013      -0.00000455      -0.00000053       0.00000020
S        2.02764486       1.43376158       6.68752774      -0.00018770      -0.00013351       0.00000026
S        5.69444706       4.02658233       6.68752806       0.00019157       0.00013669      -0.00000002
S        4.77774653       1.43376148       5.09975549       0.00009407      -0.00013362      -0.00016391
S        2.94434552       4.02658257       8.27529978      -0.00009404       0.00013359       0.00016305
S        2.94434576       4.02658254       5.09975575      -0.00009373       0.00013450      -0.00016376
S        4.77774640       1.43376130       8.27529983       0.00009397      -0.00013545       0.00016487
