9
Lattice="6.84868044596517 1.6248706251892966e-07 3.9540873824450755 2.282893548054726 6.456997871009185 3.954087533355148 -1.1024065000741952e-07 1.0687444412028849e-07 7.908174955832599" Properties=species:S:1:pos:R:3:forces:R:3 energy=-21.424821853637695 free_energy=-21.424821853637695 stress="-0.00019543204689398408 -2.8671280905001595e-09 4.630293370944116e-11 -2.8671280905001595e-09 -0.0001954258041223511 -1.9284489560789098e-09 4.630293370944116e-11 -1.9284489560789098e-09 -0.00019543097005225718" pbc="T T T"
Pb       2.28289343       1.61424949       3.95408780      -0.00000023       0.00000017       0.00000055
Pb       6.84868036       4.84274827      11.86226245       0.00000004      -0.00000113       0.00000043
Se       0.00000006      -0.00000008       0.00000023      -0.00000046       0.00000020      -0.00000015
I        2.38326612       1.68522422       7.90817493       0.00245742       0.00173802      -0.00000035
I        6.74830760       4.77177407       7.90817491      -0.00245714      -0.00173736      -0.00000064
I        5.65704719       1.68522405       6.01805648      -0.00122918       0.00173845       0.00212846
I        3.47452680       4.77177413       9.79829304       0.00122880      -0.00173743      -0.00212863
I        3.47452673       4.77177415       6.01805644       0.00122926      -0.00173835       0.00212881
I        5.65704725       1.68522427       9.79829319      -0.00122856       0.00173740      -0.00212848
