9
Lattice="6.954396798351268 5.1907404066972585e-08 4.015122900602081 2.318132345723634 6.556668236521462 4.015122847483956 6.004694039147982e-08 -2.259657210218019e-08 8.030245697199815" Properties=species:S:1:pos:R:3:forces:R:3 energy=-23.838958740234375 free_energy=-23.838958740234375 stress="-3.6811779864365235e-05 7.259809642334858e-09 8.489359437646726e-09 7.259809642334858e-09 -3.681620364659466e-05 -6.842888478075793e-09 8.489359437646726e-09 -6.842888478075793e-09 -3.682738679344766e-05" pbc="T T T"
Pb       2.31813217       1.63916711       4.01512256      -0.00000085      -0.00000026       0.00000000
Pb       6.95439692       4.91750100      12.04536877       0.00000002       0.00000006       0.00000050
Sn      -0.00000001       0.00000024      -0.00000037      -0.00000117      -0.00000145       0.00000327
I        2.41209633       1.70560984       8.03024579      -0.00767968      -0.00543038       0.00000026
I        6.86043282       4.85105839       8.03024554       0.00768147       0.00543153      -0.00000002
I        5.74834874       1.70560993       6.10405973       0.00384020      -0.00543043      -0.00665078
I        3.52418026       4.85105874       9.95643191      -0.00383901       0.00542910       0.00664868
I        3.52418086       4.85105832       6.10406002      -0.00384025       0.00543235      -0.00665210
I        5.74834878       1.70560949       9.95643182       0.00383927      -0.00543054       0.00665021
