9
Lattice="5.159122916780827 2.2119095040811084e-07 2.9786208515347545 1.7197078334114457 4.864067754017443 2.9786208758809214 1.6393467324854127e-07 1.4573724041201858e-07 5.957241419126242" Properties=species:S:1:pos:R:3:forces:R:3 energy=-50.11793518066406 free_energy=-50.11793518066406 stress="2.7639373001875356e-05 5.431269300970598e-08 4.5305483808988356e-08 5.431269300970598e-08 2.7514079192769714e-05 -2.7465839380624857e-08 4.5305483808988356e-08 -2.7465839380624857e-08 2.757165020739194e-05" pbc="T T T"
Pb       1.71970775       1.21601741       2.97862095       0.00000035      -0.00000016      -0.00000000
Pb       5.15912316       3.64805073       8.93586181       0.00000039       0.00000033       0.00000010
Sc       0.00000024       0.00000001      -0.00000054      -0.00000550       0.00000288       0.00001045
F        1.64777942       1.16515618       5.95724150       0.00139853       0.00098953       0.00000034
F        5.23105123       3.69891187       5.95724166      -0.00139692      -0.00098789       0.00000170
F        4.33523339       1.16515609       4.40563934      -0.00069900       0.00098813       0.00121051
F        2.54359722       3.69891257       7.50884415       0.00070538      -0.00099722      -0.00121954
F        2.54359767       3.69891203       4.40563950       0.00069834      -0.00098866       0.00121084
F        4.33523364       1.16515567       7.50884402      -0.00070199       0.00099310      -0.00121421
