9
Lattice="6.200600338795967 3.5490660815362344e-09 3.579918227983825 2.0668667435788324 5.845982042232983 3.579918296167589 -4.8120680359392184e-08 4.948126361460667e-08 7.159836539315038" Properties=species:S:1:pos:R:3:forces:R:3 energy=-27.304990768432617 free_energy=-27.304990768432617 stress="9.731240425026044e-05 -8.036849408199487e-09 -4.45734960052846e-09 -8.036849408199487e-09 9.731579484650865e-05 3.537916903884053e-10 -4.45734960052846e-09 3.537916903884053e-10 9.731949103297666e-05" pbc="T T T"
Pb       2.06686729       1.46149543       3.57991794       0.00000104      -0.00000030      -0.00000075
Pb       6.20060016       4.38448669      10.73975485      -0.00000034       0.00000026      -0.00000072
Se      -0.00000036      -0.00000051       0.00000004       0.00000606       0.00000590      -0.00000045
Cl       2.04448948       1.44567225       7.15983655      -0.00059488      -0.00042123       0.00000047
Cl       6.22297779       4.40031000       7.15983661       0.00059149       0.00041902       0.00000048
Cl       5.17835564       1.44567236       5.35049804       0.00029665      -0.00042149      -0.00051501
Cl       3.08911132       4.40030989       8.96917504      -0.00029802       0.00041971       0.00051486
Cl       3.08911133       4.40031007       5.35049784      -0.00029716       0.00041857      -0.00051323
Cl       5.17835546       1.44567230       8.96917531       0.00029513      -0.00042021       0.00051436
