9
Lattice="6.354188089783478 -7.6952638377109e-09 3.6685921912667507 2.11806269367682 5.990785968609949 3.6685921837539968 -5.668885538831174e-10 -9.602062083560664e-09 7.337184383515358" Properties=species:S:1:pos:R:3:forces:R:3 energy=-30.879993438720703 free_energy=-30.879993438720703 stress="0.0001964597759069875 -2.7282569536879464e-09 2.806549714851059e-10 -2.7282569536879464e-09 0.0001964563998626545 -3.1243863052310417e-10 2.806549714851059e-10 -3.1243863052310417e-10 0.00019644199346657842" pbc="T T T"
Pb       2.11806269       1.49769649       3.66859222      -0.00000043      -0.00000034       0.00000033
Pb       6.35418810       4.49308941      11.00577647       0.00000004      -0.00000093      -0.00000033
Si       0.00000024       0.00000004      -0.00000004      -0.00000204      -0.00000025      -0.00000020
Te       2.16424327       1.53035115       7.33718435       0.00574704       0.00406438      -0.00000006
Te       6.30800734       4.46043474       7.33718441      -0.00574584      -0.00406250       0.00000014
Te       5.27206638       1.53035116       5.54288191      -0.00287276       0.00406312       0.00497655
Te       3.20018433       4.46043485       9.13148699       0.00287331      -0.00406330      -0.00497710
Te       3.20018434       4.46043481       5.54288183       0.00287315      -0.00406365       0.00497716
Te       5.27206644       1.53035117       9.13148688      -0.00287247       0.00406347      -0.00497651
