9
Lattice="6.719231693628744 -1.556947168001293e-08 3.8793502056121096 2.2397439341486485 6.334952223705471 3.8793501173616844 8.226650393615502e-08 -4.9913097241023086e-08 7.758700268734472" Properties=species:S:1:pos:R:3:forces:R:3 energy=-21.366987228393555 free_energy=-21.366987228393555 stress="-0.00023409799905493855 2.5693986938080116e-09 -3.2976443797849697e-10 2.5693986938080116e-09 -0.00023409280402120203 8.247663108029712e-10 -3.2976443797849697e-10 8.247663108029712e-10 -0.00023409353161696345" pbc="T T T"
Pb       2.23974374       1.58373827       3.87935021      -0.00000074       0.00000134       0.00000042
Pb       6.71923189       4.75121421      11.63805022       0.00000088      -0.00000058      -0.00000089
S       -0.00000029      -0.00000002      -0.00000013      -0.00000049      -0.00000020       0.00000013
I        2.35300794       1.66382785       7.75870023      -0.00498723      -0.00352629      -0.00000012
I        6.60596793       4.67112420       7.75870051       0.00498750       0.00352625       0.00000032
I        5.54272773       1.66382787       5.91711472       0.00249358      -0.00352659      -0.00431908
I        3.41624816       4.67112419       9.60028592      -0.00249366       0.00352651       0.00431887
I        3.41624790       4.67112419       5.91711474      -0.00249389       0.00352611      -0.00431905
I        5.54272784       1.66382787       9.60028593       0.00249403      -0.00352659       0.00431940
