9
Lattice="6.415377203818549 -1.0626948281114658e-07 3.703919895825835 2.138459014808531 6.048475630340652 3.7039198143141743 4.369827368435308e-08 -6.893168188325326e-08 7.407839715964043" Properties=species:S:1:pos:R:3:forces:R:3 energy=-33.4289665222168 free_energy=-33.4289665222168 stress="7.695803651586175e-05 -1.1985913594969588e-08 -5.494779298231833e-09 -1.1985913594969588e-08 7.69660618971102e-05 4.95117413734647e-09 -5.494779298231833e-09 4.95117413734647e-09 7.697018008911982e-05" pbc="T T T"
Pb       2.13845917       1.51211833       3.70391973      -0.00000033      -0.00000118      -0.00000009
Pb       6.41537711       4.53635671      11.11176004      -0.00000008       0.00000015       0.00000120
Sc       0.00000044       0.00000016       0.00000069      -0.00000316      -0.00000039      -0.00000547
Br       2.13286279       1.50816153       7.40783967      -0.00510509      -0.00360984       0.00000008
Br       6.42097264       4.54031371       7.40783942       0.00510898       0.00361286      -0.00000049
Br       5.34894561       1.50816220       5.55103366       0.00255355      -0.00361238      -0.00442372
Br       3.20489085       4.54031358       9.26464537      -0.00255531       0.00361368       0.00442551
Br       3.20489095       4.54031374       5.55103363      -0.00255372       0.00361124      -0.00442262
Br       5.34894549       1.50816185       9.26464548       0.00255514      -0.00361413       0.00442570
