9
Lattice="4.635694843957846 -7.822987356795146e-08 2.6764195842038103 1.5452315389698266 4.370575124168782 2.6764195875413503 -1.078747637303694e-08 -3.540257426342255e-09 5.352839187092045" Properties=species:S:1:pos:R:3:forces:R:3 energy=-48.60796356201172 free_energy=-48.60796356201172 stress="-3.292213295935653e-05 -2.450438607581873e-08 4.6077161641733255e-08 -2.450438607581873e-08 -3.3034360967576504e-05 4.7468862618416097e-08 4.6077161641733255e-08 4.7468862618416097e-08 -3.318186281831004e-05" pbc="T T T"
Pb       1.54523165       1.09264368       2.67641961      -0.00000050       0.00000065      -0.00000027
Pb       4.63569485       3.27793146       8.02925887      -0.00000013      -0.00000043      -0.00000112
S        0.00000006      -0.00000004       0.00000011      -0.00000413       0.00000039       0.00000237
O        1.38552350       0.97971303       5.35283900      -0.00042033      -0.00029540       0.00000134
O        4.79540276       3.39086198       5.35283905       0.00042272       0.00029588       0.00000192
O        3.94293295       0.97971321       3.87631817       0.00021529      -0.00030088      -0.00036633
O        2.23799348       3.39086170       6.82936048      -0.00021279       0.00029826       0.00036180
O        2.23799326       3.39086171       3.87631826      -0.00021410       0.00029981      -0.00036359
O        3.94293268       0.97971315       6.82936030       0.00021291      -0.00029814       0.00036073
