9
Lattice="5.221582001975442 1.5823551744634764e-09 3.0146818869568484 1.7405274022749821 4.922954626723672 3.0146817712708733 2.412677011933208e-07 2.8916176290498078e-08 6.02936335602576" Properties=species:S:1:pos:R:3:forces:R:3 energy=-41.39907455444336 free_energy=-41.39907455444336 stress="9.584689541952685e-05 -7.075226182706729e-09 -5.3120839282883026e-08 -7.075226182706729e-09 9.569093526806682e-05 -5.099925814988637e-08 -5.3120839282883026e-08 -5.099925814988637e-08 9.571355622028932e-05" pbc="T T T"
Pb       1.74052641       1.23073930       3.01468158      -0.00000469       0.00000275      -0.00000190
Pb       5.22158251       3.69221562       9.04404648      -0.00000180      -0.00000213       0.00000839
Sr      -0.00000024      -0.00000010       0.00000015       0.00000120       0.00000087       0.00000868
F        1.83821283       1.29981276       6.02936340       0.00153580       0.00108726       0.00000084
F        5.12389679       3.62314152       6.02936290      -0.00153492      -0.00108860      -0.00000327
F        4.30247647       1.29981341       4.60662066      -0.00076463       0.00108878       0.00133090
F        2.65963333       3.62314168       7.45210643       0.00076951      -0.00109137      -0.00133580
F        2.65963429       3.62314182       4.60662050       0.00076878      -0.00108688       0.00132842
F        4.30247620       1.29981254       7.45210589      -0.00076922       0.00108939      -0.00133628
