9
Lattice="6.532703183209023 4.604530569149002e-08 3.771657948982823 2.1775677726583553 6.159091600897726 3.7716579463673043 9.794501154536862e-09 3.722408110458294e-09 7.543315881001053" Properties=species:S:1:pos:R:3:forces:R:3 energy=-23.95809555053711 free_energy=-23.95809555053711 stress="0.00012183545186417177 -5.447741702191422e-10 -2.216100858376535e-09 -5.447741702191422e-10 0.00012183182843727991 2.6327551250204806e-09 -2.216100858376535e-09 2.6327551250204806e-09 0.00012183123908471316" pbc="T T T"
Pb       2.17756786       1.53977294       3.77165795       0.00000065      -0.00000018      -0.00000001
Pb       6.53270349       4.61931903      11.31497419       0.00000057       0.00000151       0.00000066
Se      -0.00000003       0.00000014       0.00000043      -0.00000087       0.00000058      -0.00000240
Br       2.18672169       1.54624574       7.54331595      -0.00139928      -0.00098959      -0.00000004
Br       6.52354917       4.61284580       7.54331559       0.00139958       0.00098951       0.00000027
Br       5.43934246       1.54624564       5.66541434       0.00069936      -0.00098966      -0.00121137
Br       3.27092848       4.61284570       9.42121700      -0.00069998       0.00098948       0.00121200
Br       3.27092856       4.61284594       5.66541445      -0.00069982       0.00098836      -0.00121154
Br       5.43934221       1.54624566       9.42121732       0.00069983      -0.00099011       0.00121240
