9
Lattice="4.970278413472763 2.848595328330756e-08 2.869591681439772 1.6567594388087727 4.6860237416292545 2.869591783986969 -6.784336770552946e-08 7.762160337458022e-08 5.739183480387716" Properties=species:S:1:pos:R:3:forces:R:3 energy=-44.706329345703125 free_energy=-44.706329345703125 stress="-8.320352208102122e-06 3.6247232770847404e-08 -2.1815507622591213e-08 3.6247232770847404e-08 -8.117133802443277e-06 2.4183670177535532e-08 -2.1815507622591213e-08 2.4183670177535532e-08 -8.244081982411444e-06" pbc="T T T"
Pb       1.65675970       1.17150550       2.86959208       0.00000135      -0.00000312       0.00000079
Pb       4.97027860       3.51451784       8.60877540       0.00000043      -0.00000056       0.00000092
Sn       0.00000024       0.00000003       0.00000032      -0.00000290      -0.00000061      -0.00000371
O        1.66977674       1.18071050       5.73918323      -0.00177455      -0.00125515      -0.00000056
O        4.95726037       3.50531331       5.73918330       0.00177550       0.00125837       0.00000069
O        4.13539000       1.18071072       4.31566076       0.00088727      -0.00125486      -0.00153625
O        2.49164769       3.50531340       7.16270581      -0.00088763       0.00125629       0.00153607
O        2.49164787       3.50531341       4.31566080      -0.00088739       0.00125504      -0.00153577
O        4.13538995       1.18071083       7.16270581       0.00088805      -0.00125515       0.00153780
