9
Lattice="6.114618742238156 1.6107874346505578e-09 3.5302768280606895 2.0382062331189656 5.764917668755219 3.5302768554486397 -7.87065285777686e-08 -2.211066216037867e-08 7.0605537924450905" Properties=species:S:1:pos:R:3:forces:R:3 energy=-26.772777557373047 free_energy=-26.772777557373047 stress="0.00011210246884729713 -8.2689561864413e-09 -3.22174664724173e-09 -8.2689561864413e-09 0.00011211863602511585 5.290440530103524e-09 -3.22174664724173e-09 5.290440530103524e-09 0.00011213391553610563" pbc="T T T"
Pb       2.03820654       1.44122953       3.53027720       0.00000096       0.00000060       0.00000074
Pb       6.11461885       4.32368804      10.59083060       0.00000029      -0.00000078       0.00000063
S       -0.00000004       0.00000039      -0.00000128      -0.00000105      -0.00000375       0.00001283
Cl       2.02740090       1.43358886       7.06055373      -0.00098306      -0.00069410      -0.00000225
Cl       6.12542398       4.33132862       7.06055398       0.00098342       0.00069594      -0.00000104
Cl       5.10091807       1.43358883       5.28605750       0.00049198      -0.00069478      -0.00085431
Cl       3.05190657       4.33132888       8.83505014      -0.00049120       0.00069454       0.00084865
Cl       3.05190659       4.33132870       5.28605768      -0.00049126       0.00069606      -0.00085378
Cl       5.10091797       1.43358862       8.83505037       0.00049034      -0.00069356       0.00084859
