9
Lattice="6.598265743893818 1.7392709301820606e-07 3.8095106140741035 2.1994220559712683 6.220904577212507 3.8095106532878376 -6.559939056697542e-08 1.6410469356752324e-09 7.619021341769704" Properties=species:S:1:pos:R:3:forces:R:3 energy=-27.190046310424805 free_energy=-27.190046310424805 stress="6.900596054038033e-05 2.381650254790202e-08 -2.43851125958372e-08 2.381650254790202e-08 6.898502033436671e-05 2.895243689238214e-08 -2.43851125958372e-08 2.895243689238214e-08 6.893626414239407e-05" pbc="T T T"
Pb       2.19942139       1.55522594       3.80951094      -0.00000251      -0.00000247       0.00000099
Pb       6.59826643       4.66567870      11.42853215       0.00000305      -0.00000016       0.00000261
Sr      -0.00000017       0.00000012       0.00000027       0.00000336      -0.00000044       0.00000045
Br       2.35530590       1.66545304       7.61902127      -0.00108840      -0.00076847      -0.00000060
Br       6.44238190       4.55545205       7.61902111       0.00108567       0.00076753      -0.00000179
Br       5.42061304       1.66545251       5.84926497       0.00054193      -0.00076673      -0.00093782
Br       3.37707455       4.55545211       9.38877712      -0.00054353       0.00076934       0.00093812
Br       3.37707484       4.55545212       5.84926521      -0.00054131       0.00076646      -0.00093744
Br       5.42061309       1.66545244       9.38877735       0.00054171      -0.00076506       0.00093548
