9
Lattice="5.038608921632554 -8.238609101558944e-08 2.9090420818863003 1.6795362547538562 4.750445674301009 2.9090420382085598 -7.42931616450087e-08 -1.0602727407971839e-07 5.818084292452112" Properties=species:S:1:pos:R:3:forces:R:3 energy=-58.919979095458984 free_energy=-58.919979095458984 stress="-0.00019542376685421914 5.18851734909731e-08 -2.795411369049816e-08 5.18851734909731e-08 -0.00019554329628590494 3.9195462875341036e-08 -2.795411369049816e-08 3.9195462875341036e-08 -0.00019545102259144187" pbc="T T T"
Pb       1.67953619       1.18761095       2.90904154       0.00000147      -0.00000057      -0.00000176
Pb       5.03860891       3.56283425       8.72712579       0.00000022       0.00000083      -0.00000306
Ta       0.00000051      -0.00000001      -0.00000043      -0.00000290      -0.00000077      -0.00000165
O        1.61057695       1.13884940       5.81808450       0.00113463       0.00080240       0.00000351
O        5.10756777       3.61159601       5.81808450      -0.00113142      -0.00079745       0.00000153
O        4.23332047       1.13884959       4.30384298      -0.00056577       0.00079906       0.00097990
O        2.48482457       3.61159562       7.33232603       0.00056577      -0.00080335      -0.00098276
O        2.48482423       3.61159595       4.30384261       0.00056696      -0.00080287       0.00098604
O        4.23332071       1.13884995       7.33232590      -0.00056815       0.00080305      -0.00098199
