9
Lattice="5.1116554643955405 -6.428963112452007e-09 2.951215831129595 1.7038852368422268 4.819314516168295 2.951215678527208 1.1867027008817627e-07 -1.0298650724604639e-07 5.902431456716237" Properties=species:S:1:pos:R:3:forces:R:3 energy=-49.20207595825195 free_energy=-49.20207595825195 stress="0.000521907873917371 1.8091439457634806e-08 -1.2163804408160672e-09 1.8091439457634806e-08 0.0005219482118263841 -8.706743770403591e-09 -1.2163804408160672e-09 -8.706743770403591e-09 0.0005219439044594765" pbc="T T T"
Pb       1.70388524       1.20482857       2.95121586      -0.00000000      -0.00000017       0.00000006
Pb       5.11165561       3.61448588       8.85364709       0.00000017       0.00000009      -0.00000022
Ti       0.00000018       0.00000012       0.00000001       0.00000395       0.00000008       0.00000291
F        1.61999098       1.14550647       5.90243138      -0.00384921      -0.00272246       0.00000009
F        5.19554974       3.67380804       5.90243127       0.00384668       0.00272058      -0.00000003
F        4.30166031       1.14550628       4.35416879       0.00192283      -0.00271985      -0.00333127
F        2.51388051       3.67380801       7.45069434      -0.00192317       0.00271964       0.00333071
F        2.51388050       3.67380803       4.35416889      -0.00192417       0.00272173      -0.00333317
F        4.30166039       1.14550617       7.45069427       0.00192301      -0.00271960       0.00333102
