9
Lattice="6.098069905006029 -9.039427383246423e-09 3.5207222992213394 2.0326899297887207 5.749315358244906 3.520722351224739 -6.43517002310994e-08 1.8187355551392366e-08 7.041444709903097" Properties=species:S:1:pos:R:3:forces:R:3 energy=-31.766407012939453 free_energy=-31.766407012939453 stress="0.00031241707620210946 5.626801247160529e-10 1.668870197590877e-08 5.626801247160529e-10 0.0003123759524896741 8.84980355664311e-09 1.668870197590877e-08 8.84980355664311e-09 0.0003124161157757044" pbc="T T T"
Pb       2.03268989       1.43732928       3.52072215      -0.00000148       0.00000137      -0.00000047
Pb       6.09806958       4.31198647      10.56216771      -0.00000016      -0.00000102       0.00000132
Te      -0.00000029      -0.00000020       0.00000034       0.00000163       0.00000044      -0.00000128
Se       2.19398994       1.55138542       7.04144473       0.00088596       0.00062560       0.00000028
Se       5.93677004       4.19793012       7.04144434      -0.00088702      -0.00062696      -0.00000073
Se       5.00107505       1.55138555       5.42077357      -0.00044311       0.00062875       0.00076953
Se       3.12968486       4.19792973       8.66211571       0.00044300      -0.00062810      -0.00076846
Se       3.12968502       4.19793014       5.42077329       0.00044553      -0.00062763       0.00076897
Se       5.00107495       1.55138496       8.66211559      -0.00044440       0.00062760      -0.00076911
