9
Lattice="4.92540855103811 1.469663503754986e-07 2.8436861479380484 1.6418029825626261 4.643719986076585 2.843686158927227 1.384087412013313e-07 1.113286614809118e-07 5.687372056145125" Properties=species:S:1:pos:R:3:forces:R:3 energy=-53.28741455078125 free_energy=-53.28741455078125 stress="-0.00016574340406805277 -6.653623074726056e-08 3.7820818477030116e-08 -6.653623074726056e-08 -0.0001656424574321136 -1.342971067685994e-08 3.7820818477030116e-08 -1.342971067685994e-08 -0.0001655456580920145" pbc="T T T"
Pb       1.64180282       1.16092980       2.84368572      -0.00000260       0.00000007      -0.00000115
Pb       4.92540858       3.48278973       8.53105835       0.00000162      -0.00000263       0.00000051
Ti      -0.00000059       0.00000065       0.00000064       0.00000457      -0.00000571      -0.00000618
O        1.56866325       1.10921294       5.68737227       0.00275326       0.00194246      -0.00000025
O        4.99854828       3.53450834       5.68737226      -0.00275517      -0.00194824      -0.00000058
O        4.14107777       1.10921262       4.20218793      -0.00137675       0.00195122       0.00238937
O        2.42613453       3.53450711       7.17255533       0.00137377      -0.00194049      -0.00237417
O        2.42613465       3.53450743       4.20218919       0.00137553      -0.00194097       0.00237507
O        4.14107750       1.10921271       7.17255615      -0.00137395       0.00194448      -0.00238305
