9
Lattice="5.63156788426103 2.4156084310550576e-08 3.2513873582075283 1.8771893254986602 5.309493318310099 3.251387344402388 1.6941215382601945e-08 -4.92856228030515e-09 6.502774687072011" Properties=species:S:1:pos:R:3:forces:R:3 energy=-47.469017028808594 free_energy=-47.469017028808594 stress="0.00011478077794890851 -2.0242085341237726e-08 3.583853924737923e-08 -2.0242085341237726e-08 0.000114824426418636 -8.328532530299526e-09 3.583853924737923e-08 -8.328532530299526e-09 0.000114837872388307" pbc="T T T"
Pb       1.87718961       1.32737346       3.25138719      -0.00000004      -0.00000033      -0.00000060
Pb       5.63156791       3.98211984       9.75416207       0.00000082       0.00000031       0.00000000
Ta      -0.00000004      -0.00000012      -0.00000027       0.00000201       0.00000030       0.00000219
S        1.95354990       1.38136859       6.50277517      -0.00076729      -0.00054276       0.00000031
S        5.55520720       3.92812503       6.50277480       0.00076559       0.00054091       0.00000013
S        4.65479290       1.38136847       4.94321107       0.00038360      -0.00054264      -0.00066468
S        2.85396432       3.92812471       8.06233805      -0.00038402       0.00054309       0.00066510
S        2.85396438       3.92812476       4.94321146      -0.00038536       0.00054485      -0.00066775
S        4.65479266       1.38136859       8.06233805       0.00038473      -0.00054365       0.00066492
