9
Lattice="5.852977834060522 -3.859034325260644e-08 3.3792182408812517 1.9509926108816915 5.518240149788927 3.3792181786807265 1.0775498882662125e-08 -6.856038619345155e-08 6.7584364630988105" Properties=species:S:1:pos:R:3:forces:R:3 energy=-34.12520217895508 free_energy=-34.12520217895508 stress="3.729208401637152e-06 1.3955678390686899e-08 -8.265499396031828e-09 1.3955678390686899e-08 3.715968659889768e-06 -4.514195683924527e-09 -8.265499396031828e-09 -4.514195683924527e-09 3.710569444592693e-06" pbc="T T T"
Pb       1.95099281       1.37955980       3.37921811       0.00000087      -0.00000025      -0.00000025
Pb       5.85297793       4.13868045      10.13765404       0.00000054       0.00000021      -0.00000252
Te      -0.00000008      -0.00000014       0.00000015       0.00000417       0.00000219      -0.00000094
S        1.96155228       1.38702723       6.75843657      -0.00010729      -0.00007683       0.00000071
S        5.84241804       4.13121309       6.75843650       0.00010300       0.00007313       0.00000098
S        4.87220163       1.38702667       5.07797260       0.00005013      -0.00007388      -0.00008956
S        2.93176855       4.13121330       8.43890071      -0.00005209       0.00007460       0.00009140
S        2.93176861       4.13121313       5.07797224      -0.00005227       0.00007477      -0.00009075
S        4.87220205       1.38702669       8.43890065       0.00005278      -0.00007385       0.00009084
