9
Lattice="5.957283715255113 8.474373994948117e-08 3.4394393393729423 1.9857613345191345 5.616580939892711 3.439439311307499 2.57396544794642e-08 -1.6172323213805398e-08 6.878878634163427" Properties=species:S:1:pos:R:3:forces:R:3 energy=-43.70797348022461 free_energy=-43.70797348022461 stress="9.210423741023988e-05 4.86738427341038e-09 -1.1986694303800505e-08 4.86738427341038e-09 9.210022108163685e-05 7.628377041157819e-09 -1.1986694303800505e-08 7.628377041157819e-09 9.207622497342527e-05" pbc="T T T"
Pb       1.98576115       1.40414511       3.43943955      -0.00000019       0.00000066       0.00000010
Pb       5.95728417       4.21243610      10.31831838       0.00000038       0.00000119       0.00000041
Ta       0.00000001      -0.00000014      -0.00000035       0.00000120       0.00000126       0.00000507
Se       2.06068570       1.45712487       6.87887854      -0.00071201      -0.00050415       0.00000057
Se       5.88235950       4.15945611       6.87887854       0.00071064       0.00050240       0.00000010
Se       4.92694086       1.45712479       5.22404516       0.00035621      -0.00050487      -0.00061694
Se       3.01610383       4.15945647       8.53371216      -0.00035451       0.00050110       0.00061315
Se       3.01610395       4.15945620       5.22404505      -0.00035579       0.00050325      -0.00061558
Se       4.92694116       1.45712449       8.53371212       0.00035404      -0.00050082       0.00061311
