9
Lattice="6.370577732236315 3.8035607143506116e-08 3.6780546894598354 2.1235259465809717 6.006238260794693 3.6780546895026993 -1.8298581916886023e-08 -1.2886516090426582e-08 7.356109410613711" Properties=species:S:1:pos:R:3:forces:R:3 energy=-35.88837432861328 free_energy=-35.88837432861328 stress="-3.5376782761886716e-05 1.5571079980958302e-09 8.02825006473995e-09 1.5571079980958302e-09 -3.537748852977529e-05 -1.9263174166894714e-08 8.02825006473995e-09 -1.9263174166894714e-08 -3.5380649933358654e-05" pbc="T T T"
Pb       2.12352599       1.50155957       3.67805489       0.00000035       0.00000081       0.00000075
Pb       6.37057760       4.50467849      11.03416431      -0.00000025      -0.00000125       0.00000135
Ti      -0.00000005      -0.00000006      -0.00000042       0.00000055       0.00000138       0.00000141
Te       2.22023033       1.56993998       7.35610930      -0.00171053      -0.00120834       0.00000000
Te       6.27387329       4.43629843       7.35610926       0.00170910       0.00120908      -0.00000022
Te       5.26046258       1.56994014       5.60083022       0.00085504      -0.00120869      -0.00148118
Te       3.23364078       4.43629871       9.11138873      -0.00085394       0.00120655       0.00147783
Te       3.23364130       4.43629817       5.60083015      -0.00085520       0.00120933      -0.00148085
Te       5.26046282       1.56993972       9.11138867       0.00085480      -0.00120891       0.00148096
