9
Lattice="5.618280249412793 -2.2312101659757305e-08 3.2437156751960106 1.8727600209530024 5.296965403545292 3.243715746467364 -6.867249912911975e-08 3.873046370067509e-08 6.487431469336284" Properties=species:S:1:pos:R:3:forces:R:3 energy=-43.180206298828125 free_energy=-43.180206298828125 stress="0.0001917427871376276 -2.3402003890282685e-08 4.308600143332342e-09 -2.3402003890282685e-08 0.00019180154777131975 2.548673494473519e-09 4.308600143332342e-09 2.548673494473519e-09 0.0001918109628604725" pbc="T T T"
Pb       1.87275994       1.32424136       3.24371594      -0.00000057       0.00000038      -0.00000008
Pb       5.61828018       3.97272408       9.73114709      -0.00000011      -0.00000089       0.00000095
Ti      -0.00000018       0.00000006       0.00000079       0.00000113      -0.00000103      -0.00000937
S        1.90885615       1.34976548       6.48743145      -0.00188759      -0.00133467      -0.00000086
S        5.58218403       3.94720008       6.48743141       0.00188738       0.00133520       0.00000002
S        4.66385216       1.34976547       4.89683366       0.00094308      -0.00133437      -0.00163314
S        2.82718825       3.94719968       8.07802858      -0.00094633       0.00133905       0.00163966
S        2.82718826       3.94719988       4.89683387      -0.00094371       0.00133455      -0.00163457
S        4.66385199       1.34976561       8.07802863       0.00094667      -0.00133830       0.00163794
