9
Lattice="5.946718497908735 6.598952370450847e-08 3.4333395832508287 1.982239583862265 5.606620105160176 3.4333395445501504 1.805263701323202e-08 -3.463331823161737e-08 6.866679135233584" Properties=species:S:1:pos:R:3:forces:R:3 energy=-40.12337875366211 free_energy=-40.12337875366211 stress="0.00025375152472406626 -3.0817066232202706e-08 -5.205341935266006e-09 -3.0817066232202706e-08 0.0002537390682846308 -4.65425165074862e-09 -5.205341935266006e-09 -4.65425165074862e-09 0.0002537575492169708" pbc="T T T"
Pb       1.98223962       1.40165512       3.43333949       0.00000157       0.00000118       0.00000000
Pb       5.94671837       4.20496569      10.30001843       0.00000006       0.00000057      -0.00000065
Ti       0.00000010      -0.00000012       0.00000006       0.00000055      -0.00000268       0.00000053
Se       2.02366276       1.43094554       6.86667930      -0.00380119      -0.00268878      -0.00000003
Se       5.90529526       4.17567430       6.86667916       0.00380153       0.00268752      -0.00000005
Se       4.93488722       1.43094547       5.18588305       0.00190025      -0.00268855      -0.00329165
Se       2.99407108       4.17567421       8.54747515      -0.00190137       0.00268963       0.00329384
Se       2.99407087       4.17567440       5.18588303      -0.00190125       0.00268873      -0.00329373
Se       4.93488712       1.43094594       8.54747541       0.00189984      -0.00268748       0.00329165
