9
Lattice="6.437515310837138 6.308243677243974e-09 3.7167012049236354 2.1458384410036384 6.069347666781794 3.716701208196409 6.365857709093194e-09 8.509672934126826e-09 7.433402398821273" Properties=species:S:1:pos:R:3:forces:R:3 energy=-39.20942306518555 free_energy=-39.20942306518555 stress="0.00016718947154004127 -1.404076943600785e-08 -3.316513952356104e-09 -1.404076943600785e-08 0.00016720048733986914 1.7201690072354836e-09 -3.316513952356104e-09 1.7201690072354836e-09 0.0001672016514930874" pbc="T T T"
Pb       2.14583846       1.51733694       3.71670121      -0.00000079       0.00000037       0.00000017
Pb       6.43751529       4.55201066      11.15010364       0.00000008      -0.00000026       0.00000006
Ta      -0.00000005      -0.00000023      -0.00000005       0.00000131      -0.00000016      -0.00000030
Te       2.24937209       1.59054629       7.43340241       0.00184719       0.00130658      -0.00000004
Te       6.33398185       4.47880155       7.43340237      -0.00184886      -0.00130710       0.00000045
Te       5.31282928       1.59054632       5.66471461      -0.00092243       0.00130567       0.00159882
Te       3.27052442       4.47880147       9.20209028       0.00092329      -0.00130534      -0.00159907
Te       3.27052444       4.47880146       5.66471456       0.00092342      -0.00130661       0.00159919
Te       5.31282926       1.59054630       9.20209022      -0.00092323       0.00130688      -0.00159939
