9
Lattice="6.415213582053751 4.646217818831826e-08 3.7038254286474137 2.1384045526810436 6.048321352308496 3.7038254606473555 1.5096394777999737e-08 4.9866587321230234e-08 7.407650831146963" Properties=species:S:1:pos:R:3:forces:R:3 energy=-33.036354064941406 free_energy=-33.036354064941406 stress="1.8334048945689574e-05 6.761694315571276e-09 -7.725922124279805e-09 6.761694315571276e-09 1.8324111806578003e-05 1.771722857313307e-08 -7.725922124279805e-09 1.771722857313307e-08 1.8349117453908548e-05" pbc="T T T"
Pb       2.13840456       1.51208075       3.70382512      -0.00000019       0.00000035      -0.00000027
Pb       6.41521374       4.53624074      11.11147604       0.00000022      -0.00000102      -0.00000111
Ti       0.00000018       0.00000053      -0.00000042      -0.00000275      -0.00000434      -0.00000015
Br       2.08065548       1.47124547       7.40765113       0.00147502       0.00104294       0.00000015
Br       6.47296208       4.57707553       7.40765097      -0.00146943      -0.00103936       0.00000004
Br       5.37488584       1.47124578       5.50572649      -0.00073639       0.00104153       0.00127485
Br       3.17873249       4.57707526       9.30957528       0.00073460      -0.00104058      -0.00127219
Br       3.17873219       4.57707578       5.50572652       0.00073612      -0.00104228       0.00127444
Br       5.37488602       1.47124594       9.30957576      -0.00073715       0.00104275      -0.00127578
