9
Lattice="6.931683321448489 1.128088535494635e-09 4.002009072647771 2.3105610873668456 6.535253638378948 4.002009108754551 -1.2789446251605075e-07 -4.6213344070528505e-08 8.004018366815176" Properties=species:S:1:pos:R:3:forces:R:3 energy=-29.506240844726562 free_energy=-29.506240844726562 stress="5.713921564165503e-05 1.4506061241092993e-08 -8.845557175618524e-09 1.4506061241092993e-08 5.712253550882451e-05 -6.0965370529686425e-09 -8.845557175618524e-09 -6.0965370529686425e-09 5.711636185878888e-05" pbc="T T T"
Pb       2.31056090       1.63381330       4.00200935      -0.00000018       0.00000009       0.00000036
Pb       6.93168319       4.90144048      12.00602691      -0.00000015       0.00000007      -0.00000081
Ti       0.00000041       0.00000021      -0.00000156      -0.00000369      -0.00000074       0.00001230
I        2.26157512       1.59917483       8.00401796      -0.00281075      -0.00198773       0.00000089
I        6.98066878       4.93607842       8.00401838       0.00281389       0.00198885      -0.00000041
I        5.80089539       1.59917519       5.96059096       0.00140776      -0.00198953      -0.00243672
I        3.44134877       4.93607913      10.04744659      -0.00140338       0.00198356       0.00243021
I        3.44134861       4.93607814       5.96059089      -0.00140667       0.00199017      -0.00243683
I        5.80089593       1.59917465      10.04744666       0.00140314      -0.00198474       0.00243098
