9
Lattice="4.992238898438468 -3.220940828971484e-08 2.882270466329675 1.6640796499394526 4.706727818455057 2.8822703840677217 6.400139582891148e-08 -5.549408265121688e-08 5.764540821805676" Properties=species:S:1:pos:R:3:forces:R:3 energy=-46.87187576293945 free_energy=-46.87187576293945 stress="-0.00045045491424389184 2.263271703384362e-08 9.545647827735593e-08 2.263271703384362e-08 -0.0004505946417339146 -8.796160244628481e-08 9.545647827735593e-08 -8.796160244628481e-08 -0.0004505006072577089" pbc="T T T"
Pb       1.66407971       1.17668206       2.88227032       0.00000084       0.00000030      -0.00000026
Pb       4.99223894       3.53004590       8.64681136      -0.00000029       0.00000020      -0.00000027
Te       0.00000010      -0.00000003       0.00000000      -0.00000361      -0.00000235       0.00000117
O        1.58917990       1.12372002       5.76454083       0.00391841       0.00277174      -0.00000029
O        5.06713872       3.58300784       5.76454082      -0.00391638      -0.00276887      -0.00000042
O        4.19764902       1.12371973       4.25854049      -0.00196022       0.00277239       0.00339472
O        2.45866966       3.58300791       7.27054131       0.00196028      -0.00277221      -0.00339663
O        2.45866963       3.58300790       4.25854059       0.00195789      -0.00276870       0.00339067
O        4.19764876       1.12371977       7.27054112      -0.00195760       0.00276738      -0.00338984
