9
Lattice="6.281325524964698 7.018887853745883e-08 3.6265249274414857 2.0937752255432676 5.9220905482515525 3.6265249544955234 -9.299371228510643e-09 2.6558630856151758e-08 7.253049870989965" Properties=species:S:1:pos:R:3:forces:R:3 energy=-35.73738098144531 free_energy=-35.73738098144531 stress="-6.734286580467597e-05 1.3088423678198069e-08 5.267253300189623e-09 1.3088423678198069e-08 -6.735239003319293e-05 3.138687532100448e-09 5.267253300189623e-09 3.138687532100448e-09 -6.736000796081498e-05" pbc="T T T"
Pb       2.09377505       1.48052320       3.62652486       0.00000005       0.00000076      -0.00000009
Pb       6.28132595       4.44156816      10.87957498       0.00000082       0.00000094      -0.00000014
V        0.00000006       0.00000013      -0.00000022      -0.00000061      -0.00000079       0.00000072
Te       2.17201919       1.53584962       7.25304999      -0.00155681      -0.00110128       0.00000028
Te       6.20308164       4.38624091       7.25304995       0.00155713       0.00110094       0.00000030
Te       5.19531598       1.53584952       5.50754872       0.00077836      -0.00110096      -0.00134721
Te       3.17978457       4.38624096       8.99855111      -0.00077772       0.00109928       0.00134696
Te       3.17978465       4.38624083       5.50754871      -0.00077861       0.00110086      -0.00134745
Te       5.19531585       1.53584926       8.99855090       0.00077737      -0.00109978       0.00134663
