9
Lattice="6.321109372309305 5.690105959742009e-08 3.649494219408646 2.1070364751835977 5.9595992156820605 3.6494942815886438 -3.7380045287861407e-08 4.9723021260113586e-08 7.298988503561472" Properties=species:S:1:pos:R:3:forces:R:3 energy=-32.78848648071289 free_energy=-32.78848648071289 stress="-9.6283016318921e-05 1.0475053047187544e-09 -1.2901160140188495e-08 1.0475053047187544e-09 -9.629211126593873e-05 -1.985001718551871e-09 -1.2901160140188495e-08 -1.985001718551871e-09 -9.628712723497301e-05" pbc="T T T"
Pb       2.10703632       1.48989981       3.64949425       0.00000027      -0.00000055       0.00000007
Pb       6.32110922       4.46969945      10.94848246      -0.00000072      -0.00000084      -0.00000034
V       -0.00000016       0.00000080      -0.00000126       0.00000088      -0.00000700       0.00001211
Br       2.06904706       1.46303744       7.29898842       0.00346973       0.00245221      -0.00000016
Br       6.35909866       4.49656192       7.29898863      -0.00346548      -0.00245105      -0.00000025
Br       5.28658562       1.46303754       5.44134163      -0.00173337       0.00245146       0.00300346
Br       3.14156014       4.49656195       9.15663565       0.00173518      -0.00245260      -0.00300361
Br       3.14156020       4.49656152       5.44134204       0.00173131      -0.00244862       0.00299899
Br       5.28658615       1.46303686       9.15663622      -0.00173777       0.00245701      -0.00301034
