9
Lattice="5.051296560432332 -3.719943162339085e-08 2.916367444328407 1.6837655295127179 4.762408017948621 2.916367367355035 7.364004989730827e-08 -4.2201356661836356e-08 5.832734761108512" Properties=species:S:1:pos:R:3:forces:R:3 energy=-47.72938919067383 free_energy=-47.72938919067383 stress="5.860598321305588e-05 -1.1844285552342626e-08 2.9632248654820614e-08 -1.1844285552342626e-08 5.861169847776182e-05 -7.562183768072828e-09 2.9632248654820614e-08 -7.562183768072828e-09 5.862848411197774e-05" pbc="T T T"
Pb       1.68376549       1.19060219       2.91636723      -0.00000019      -0.00000011      -0.00000036
Pb       5.05129646       3.57180588       8.74910241      -0.00000066       0.00000029      -0.00000045
V        0.00000016       0.00000001      -0.00000037      -0.00000138       0.00000497       0.00002039
F        1.64914226       1.16611937       5.83273468       0.00063774       0.00045067      -0.00000035
F        5.08592042       3.59628868       5.83273470      -0.00063942      -0.00045259      -0.00000072
F        4.22672536       1.16611957       4.34456630      -0.00031636       0.00044810       0.00054813
F        2.50833653       3.59628850       7.32090362       0.00032320      -0.00045666      -0.00055934
F        2.50833654       3.59628821       4.34456628       0.00031721      -0.00044803       0.00054827
F        4.22672544       1.16611929       7.32090338      -0.00032014       0.00045318      -0.00055554
