9
Lattice="4.9650487850847 6.033275811592655e-08 2.8665722299634715 1.6550162708907694 4.681092901548111 2.8665723125587013 5.0688117952118106e-09 1.0474228288487372e-07 5.733144451147459" Properties=species:S:1:pos:R:3:forces:R:3 energy=-51.68585205078125 free_energy=-51.68585205078125 stress="6.001397196087055e-05 5.6738070242090544e-08 6.8429663713232e-08 5.6738070242090544e-08 5.977672481094487e-05 -4.059769764808152e-08 6.8429663713232e-08 -4.059769764808152e-08 5.968853292870335e-05" pbc="T T T"
Pb       1.65501658       1.17027306       2.86657254      -0.00000021      -0.00000202       0.00000164
Pb       4.96504865       3.51081901       8.59971698       0.00000094      -0.00000229       0.00000136
V        0.00000003      -0.00000047       0.00000025      -0.00000073      -0.00000471       0.00000090
O        1.52979350       1.08172771       5.73314465       0.00029194       0.00020754       0.00000064
O        5.09027092       3.59936565       5.73314409      -0.00028992      -0.00020266      -0.00000105
O        4.20015211       1.08172816       4.19141200      -0.00014722       0.00020939       0.00025272
O        2.41991295       3.59936590       7.27487663       0.00014639      -0.00020742      -0.00025678
O        2.41991280       3.59936543       4.19141256       0.00014603      -0.00020713       0.00025535
O        4.20015278       1.08172812       7.27487667      -0.00014699       0.00020903      -0.00025451
