9
Lattice="5.015703978023285 -1.2516081263814636e-07 2.895818022506531 1.6719012650905476 4.728850551326268 2.895817923631484 -4.762995717650335e-08 -1.547761852124063e-07 5.791636127510551" Properties=species:S:1:pos:R:3:forces:R:3 energy=-53.858558654785156 free_energy=-53.858558654785156 stress="-0.00014676808496005833 4.566385669591e-08 -1.1878221961580948e-08 4.566385669591e-08 -0.00014677700528409332 2.7470829166986732e-08 -1.1878221961580948e-08 2.7470829166986732e-08 -0.00014676038699690253" pbc="T T T"
Pb       1.67190155       1.18221235       2.89581814       0.00000194      -0.00000008       0.00000055
Pb       5.01570394       3.54663788       8.68745430       0.00000016      -0.00000040       0.00000000
W       -0.00000003       0.00000030       0.00000019      -0.00000075      -0.00000437       0.00000026
O        1.58624133       1.12164212       5.79163601      -0.00089514      -0.00063229       0.00000052
O        5.10136375       3.60720810       5.79163586       0.00089788       0.00063503      -0.00000085
O        4.22258296       1.12164197       4.26954317       0.00044620      -0.00063241      -0.00077379
O        2.46502197       3.60720831       7.31372862      -0.00044680       0.00063181       0.00077462
O        2.46502176       3.60720844       4.26954344      -0.00044805       0.00063360      -0.00077426
O        4.22258346       1.12164172       7.31372864       0.00044447      -0.00063086       0.00077236
