9
Lattice="5.700863447273711 -9.37822325402271e-09 3.2913950562146126 1.9002878116759303 5.374825672630263 3.29139504797017 3.090117600009662e-09 -7.912292841097707e-09 6.582790107076987" Properties=species:S:1:pos:R:3:forces:R:3 energy=-47.33985137939453 free_energy=-47.33985137939453 stress="7.530386210419238e-05 -2.494741480063567e-08 1.1199607463652228e-08 -2.494741480063567e-08 7.531114533776417e-05 -5.465747410227095e-09 1.1199607463652228e-08 -5.465747410227095e-09 7.532570452895015e-05" pbc="T T T"
Pb       1.90028779       1.34370634       3.29139516      -0.00000003       0.00000028       0.00000002
Pb       5.70086362       4.03111927       9.87418524       0.00000006       0.00000001       0.00000073
W       -0.00000012      -0.00000008       0.00000016      -0.00000067      -0.00000040       0.00000193
S        1.88495253       1.33286271       6.58278996       0.00085734       0.00060608      -0.00000013
S        5.71619867       4.04196299       6.58278995      -0.00085679      -0.00060599       0.00000023
S        4.75838698       1.33286304       4.92381206      -0.00042717       0.00060463       0.00074019
S        2.84276426       4.04196272       8.24176811       0.00042768      -0.00060594      -0.00074171
S        2.84276425       4.04196278       4.92381201       0.00042696      -0.00060457       0.00074017
S        4.75838708       1.33286289       8.24176812      -0.00042753       0.00060581      -0.00074145
