9
Lattice="5.98899754123766 -6.926316696017227e-08 3.4577493841736304 1.9963324214650278 5.646481102156583 3.457749430902506 -4.1213460520440086e-08 2.80886526995555e-08 6.915498839731048" Properties=species:S:1:pos:R:3:forces:R:3 energy=-43.57823944091797 free_energy=-43.57823944091797 stress="7.487297261832282e-05 -4.7189125496061024e-08 1.822142259300108e-08 -4.7189125496061024e-08 7.49061509850435e-05 -2.6936801234000995e-08 1.822142259300108e-08 -2.6936801234000995e-08 7.495109457522631e-05" pbc="T T T"
Pb       1.99633233       1.41162038       3.45774934      -0.00000052      -0.00000032       0.00000016
Pb       5.98899736       4.23486071      10.37324831      -0.00000029       0.00000065       0.00000013
W       -0.00000003      -0.00000000       0.00000079       0.00000202       0.00000125      -0.00000635
Se       1.99901669       1.41351814       6.91549885      -0.00006607      -0.00004667      -0.00000055
Se       5.98631337       4.23296306       6.91549885       0.00006443       0.00004395      -0.00000051
Se       4.98948909       1.41351813       5.18894875       0.00003250      -0.00004510      -0.00005529
Se       2.99584121       4.23296254       8.64204842      -0.00003481       0.00004941       0.00005954
Se       2.99584092       4.23296273       5.18894892      -0.00003386       0.00004779      -0.00005903
Se       4.98948874       1.41351858       8.64204842       0.00003665      -0.00005089       0.00006182
