9
Lattice="6.375548259020593 2.1089767541171286e-08 3.6809244541974606 2.1251827826691145 6.010924592614935 3.680924437260426 -3.38345220621973e-08 -4.4668161156656985e-08 7.361848966997997" Properties=species:S:1:pos:R:3:forces:R:3 energy=-38.52672576904297 free_energy=-38.52672576904297 stress="-8.630383490526583e-06 2.7103115307625103e-09 3.364592160437496e-09 2.7103115307625103e-09 -8.617720595793799e-06 7.750592168065396e-09 3.364592160437496e-09 7.750592168065396e-09 -8.600522050983272e-06" pbc="T T T"
Pb       2.12518278       1.50273133       3.68092446       0.00000026       0.00000041      -0.00000022
Pb       6.37554820       4.50819363      11.04277338       0.00000005       0.00000007       0.00000007
W        0.00000001      -0.00000009      -0.00000007       0.00000213       0.00000011      -0.00000077
Te       2.20326561       1.55794383       7.36184889      -0.00406788      -0.00287637      -0.00000051
Te       6.29746554       4.45298056       7.36184893       0.00406737       0.00287745       0.00000003
Te       5.27391559       1.55794384       5.58900824       0.00203417      -0.00287684      -0.00352135
Te       3.22681543       4.45298052       9.13468969      -0.00203505       0.00287562       0.00352267
Te       3.22681542       4.45298065       5.58900827      -0.00203493       0.00287566      -0.00352255
Te       5.27391542       1.55794401       9.13468963       0.00203381      -0.00287614       0.00352267
