9
Lattice="7.08955052069929 8.817178351178432e-09 4.093153916907237 2.363183543854526 6.6840923505544385 4.09315386729815 1.430643440300679e-08 -5.064228559787795e-08 8.186307809035068" Properties=species:S:1:pos:R:3:forces:R:3 energy=-30.185325622558594 free_energy=-30.185325622558594 stress="8.524509030394256e-05 4.850092771846448e-09 1.7812659125482355e-09 4.850092771846448e-09 8.523883298039436e-05 -4.84990847482436e-09 1.7812659125482355e-09 -4.84990847482436e-09 8.524184522684664e-05" pbc="T T T"
Pb       2.36318349       1.67102304       4.09315387      -0.00000005       0.00000004       0.00000035
Pb       7.08955034       5.01306938      12.27946148      -0.00000001      -0.00000020      -0.00000010
Y        0.00000031       0.00000023      -0.00000014      -0.00000064      -0.00000339       0.00000020
I        2.43747993       1.72355846       8.18630773      -0.00500048      -0.00353615       0.00000044
I        7.01525393       4.96053359       8.18630801       0.00500331       0.00353775      -0.00000002
I        5.87081050       1.72355826       6.20407325       0.00250017      -0.00353612      -0.00432907
I        3.58192363       4.96053402      10.16854234      -0.00250080       0.00353655       0.00433060
I        3.58192335       4.96053379       6.20407341      -0.00250083       0.00353720      -0.00433233
I        5.87081079       1.72355848      10.16854241       0.00249935      -0.00353566       0.00432990
