9
Lattice="5.2935117352889 2.726346316976863e-08 3.0562104991067915 1.7645038982083279 4.990770552530049 3.0562105671051736 -1.2288858010992102e-07 -3.6146777134638016e-09 6.112421211062886" Properties=species:S:1:pos:R:3:forces:R:3 energy=-49.92108154296875 free_energy=-49.92108154296875 stress="0.0005328243714757264 6.063242352638554e-08 -4.336597303478129e-09 6.063242352638554e-08 0.0005328070838004351 3.034412898728078e-08 -4.336597303478129e-09 3.034412898728078e-08 0.000532780890353024" pbc="T T T"
Pb       1.76450403       1.24769247       3.05621061       0.00000011      -0.00000087       0.00000064
Pb       5.29351157       3.74307796       9.16863192      -0.00000036      -0.00000060      -0.00000022
Y       -0.00000010       0.00000000       0.00000006       0.00000242       0.00000705      -0.00000087
F        1.75476308       1.24080489       6.11242122       0.00143975       0.00101744       0.00000017
F        5.30325261       3.74996580       6.11242115      -0.00144449      -0.00102077      -0.00000036
F        4.41613012       1.24080498       4.57587970      -0.00072168       0.00102089       0.00125003
F        2.64188531       3.74996564       7.64896226       0.00072287      -0.00102201      -0.00125167
F        2.64188513       3.74996581       4.57587975       0.00072457      -0.00102423       0.00125483
F        4.41613037       1.24080477       7.64896243      -0.00072323       0.00102310      -0.00125277
