9
Lattice="6.19083116238522 -1.181129345006617e-08 3.5742779539632754 2.063610300603463 5.836771664451567 3.57427808511838 -8.609968082670249e-08 9.97498688829257e-08 7.14855605705559" Properties=species:S:1:pos:R:3:forces:R:3 energy=-37.956295013427734 free_energy=-37.956295013427734 stress="5.6389679230051115e-05 -2.574340962624433e-09 -2.5730946262569887e-08 -2.574340962624433e-09 5.6376084103249013e-05 2.807780674629612e-08 -2.5730946262569887e-08 2.807780674629612e-08 5.638313450617716e-05" pbc="T T T"
Pb       2.06361008       1.45919285       3.57427797      -0.00000061      -0.00000115       0.00000001
Pb       6.19083115       4.37757882      10.72283426      -0.00000010       0.00000007       0.00000139
Y       -0.00000044       0.00000018      -0.00000049       0.00000708      -0.00000253       0.00000901
Cl       2.11606122       1.49628138       7.14855596      -0.00037991      -0.00026827       0.00000007
Cl       6.13838024       4.34049047       7.14855598       0.00037736       0.00026679      -0.00000012
Cl       5.13280041       1.49628183       5.40684100       0.00019119      -0.00026998      -0.00033075
Cl       3.12164111       4.34049011       8.89027121      -0.00019016       0.00026840       0.00032835
Cl       3.12164105       4.34049014       5.40684087      -0.00019062       0.00027001      -0.00032976
Cl       5.13280065       1.49628123       8.89027157       0.00018574      -0.00026333       0.00032181
