9
Lattice="6.068659349173393 -3.1541913309219476e-08 3.5037421104245845 2.022886363870218 5.7215870423451545 3.503742207620774 -5.353415174999655e-08 8.118613629415323e-08 7.007484313573066" Properties=species:S:1:pos:R:3:forces:R:3 energy=-40.481475830078125 free_energy=-40.481475830078125 stress="0.0001673767837928608 -4.230714623076892e-08 -6.1864549039114536e-09 -4.230714623076892e-08 0.00016741506988182664 -2.1726223042861648e-09 -6.1864549039114536e-09 -2.1726223042861648e-09 0.0001674285886110738" pbc="T T T"
Pb       2.02288654       1.43039660       3.50374170       0.00000024      -0.00000061      -0.00000068
Pb       6.06865909       4.29119058      10.51122659       0.00000110       0.00000197       0.00000215
Zr       0.00000007       0.00000025       0.00000127       0.00000082      -0.00000423      -0.00001686
Se       2.12773349       1.50453479       7.00748447       0.00029153       0.00020684      -0.00000038
Se       5.96381199       4.21705196       7.00748434      -0.00029070      -0.00020531       0.00000036
Se       5.00479266       1.50453494       5.34641363      -0.00014747       0.00020806       0.00025453
Se       3.08675368       4.21705164       8.66855422       0.00014135      -0.00020079      -0.00024597
Se       3.08675325       4.21705228       5.34641368       0.00014610      -0.00020629       0.00025392
Se       5.00479184       1.50453534       8.66855461      -0.00014301       0.00020047      -0.00024723
