9
Lattice="5.000330711315837 1.798029001462331e-08 2.886942273305812 1.6667769599685662 4.714357007580938 2.8869422053321045 -1.2441038564797811e-08 -9.204757748110568e-08 5.773884568160196" Properties=species:S:1:pos:R:3:forces:R:3 energy=-53.68766784667969 free_energy=-53.68766784667969 stress="0.000245408940827474 -1.2204121269121515e-08 3.247866331435034e-08 -1.2204121269121515e-08 0.0002453691267874092 -7.929703116360542e-08 3.247866331435034e-08 -7.929703116360542e-08 0.00024545929045416415" pbc="T T T"
Pb       1.66677618       1.17858937       2.88694201      -0.00000277      -0.00000035      -0.00000073
Pb       5.00033109       3.53576732       8.66082664       0.00000027      -0.00000176      -0.00000217
Zr      -0.00000014      -0.00000025      -0.00000070      -0.00000016       0.00000218       0.00000251
O        1.69945819       1.20169858       5.77388527      -0.00474143      -0.00335062       0.00000306
O        4.96764982       3.51265837       5.77388469       0.00473803       0.00334996       0.00000067
O        4.15060162       1.20169893       4.35871615       0.00237092      -0.00335014      -0.00410610
O        2.51650616       3.51265887       7.18905295      -0.00236577       0.00334829       0.00410241
O        2.51650546       3.51265837       4.35871647      -0.00237086       0.00335330      -0.00410402
O        4.15060241       1.20169820       7.18905281       0.00237173      -0.00335008       0.00410348
