9
Lattice="5.735528287960968 -3.152636833643299e-08 3.3114087031018378 1.9118427623937033 5.40750794339863 3.3114086520697446 5.86543785495177e-08 -2.1026377165134503e-08 6.622817304611303" Properties=species:S:1:pos:R:3:forces:R:3 energy=-43.52852249145508 free_energy=-43.52852249145508 stress="0.0003264099941588938 2.173371171920735e-08 2.993273540141672e-08 2.173371171920735e-08 0.0003264304541517049 -3.619345889660508e-08 2.993273540141672e-08 -3.619345889660508e-08 0.0003264392144046724" pbc="T T T"
Pb       1.91184274       1.35187679       3.31140889      -0.00000013      -0.00000162       0.00000136
Pb       5.73552843       4.05563084       9.93422670      -0.00000004       0.00000085       0.00000332
Zr       0.00000012      -0.00000013      -0.00000060      -0.00000170       0.00000197       0.00000648
S        2.02836451       1.43427020       6.62281703      -0.00648293      -0.00458282       0.00000049
S        5.61900656       3.97323786       6.62281682       0.00648168       0.00458336      -0.00000122
S        4.72134572       1.43427031       5.06802387       0.00324216      -0.00458351      -0.00561583
S        2.92602449       3.97323786       8.17761108      -0.00323877       0.00457978       0.00560874
S        2.92602542       3.97323792       5.06802405      -0.00324193       0.00458613      -0.00561622
S        4.72134641       1.43426995       8.17761078       0.00324152      -0.00458404       0.00561252
