9
Lattice="6.219030941332301 2.5600067213577385e-08 3.590559216687763 2.0730103732280294 5.8633585902100815 3.5905591555210683 3.542261518194292e-08 -4.986600905378178e-08 7.181118372021692" Properties=species:S:1:pos:R:3:forces:R:3 energy=-24.67160987854004 free_energy=-24.67160987854004 stress="-0.00013506054528988898 1.3035834633967625e-09 1.074359889940979e-08 1.3035834633967625e-09 -0.00013505807146430016 -9.581048843188e-09 1.074359889940979e-08 -9.581048843188e-09 -0.00013505166862159967" pbc="T T T"
Pb       2.07301047       1.46583998       3.59055919       0.00000017       0.00000128       0.00000006
Pb       6.21903101       4.39751901      10.77167798       0.00000021       0.00000047       0.00000142
Zn       0.00000011      -0.00000041      -0.00000047      -0.00000090       0.00000254       0.00000205
Br       2.08283240       1.47278483       7.18111826      -0.00432069      -0.00305428       0.00000060
Br       6.20920937       4.39057368       7.18111800       0.00431874       0.00305409       0.00000059
Br       5.17761468       1.47278475       5.39434497       0.00216050      -0.00305624      -0.00374312
Br       3.11442593       4.39057437       8.96789259      -0.00215751       0.00305116       0.00373722
Br       3.11442668       4.39057366       5.39434467      -0.00215988       0.00305519      -0.00374095
Br       5.17761476       1.47278439       8.96789179       0.00215938      -0.00305405       0.00374212
