9
Lattice="6.734398859321467 9.039999451177829e-08 3.8881068879210052 2.244799734718498 6.349252075193554 3.8881068364536513 3.136099651040492e-08 -4.085899063011877e-08 7.776213721523252" Properties=species:S:1:pos:R:3:forces:R:3 energy=-21.130584716796875 free_energy=-21.130584716796875 stress="-7.421828922815621e-05 3.756721322911716e-10 4.531856667711054e-09 3.756721322911716e-10 -7.421861664624885e-05 -7.370994481448179e-09 4.531856667711054e-09 -7.370994481448179e-09 -7.423229544656351e-05" pbc="T T T"
Pb       2.24479943       1.58731279       3.88810702      -0.00000083      -0.00000084       0.00000016
Pb       6.73439883       4.76193900      11.66431999       0.00000014      -0.00000049      -0.00000058
Zn      -0.00000017      -0.00000012       0.00000007       0.00000132       0.00000023       0.00000140
I        2.27044067       1.60544387       7.77621357      -0.00085638      -0.00060584       0.00000028
I        6.70875834       4.74380837       7.77621380       0.00085460       0.00060465       0.00000060
I        5.59917877       1.60544404       5.85436591       0.00042822      -0.00060495      -0.00074071
I        3.38001986       4.74380839       9.69806159      -0.00042728       0.00060469       0.00074092
I        3.38001977       4.74380839       5.85436611      -0.00042802       0.00060639      -0.00074177
I        5.59917896       1.60544378       9.69806174       0.00042823      -0.00060385       0.00073974
