9
Lattice="5.841068190053546 2.8801379296083903e-08 3.3723419512747146 1.947022783988677 5.507011917914945 3.3723419048269907 -5.346174065466514e-08 -9.468976623869854e-08 6.744683995147811" Properties=species:S:1:pos:R:3:forces:R:3 energy=-28.328304290771484 free_energy=-28.328304290771484 stress="5.956154564046301e-05 1.7507668648164554e-09 2.167903723204745e-08 1.7507668648164554e-09 5.955850792815909e-05 6.786508244260858e-09 2.167903723204745e-08 6.786508244260858e-09 5.956881068414077e-05" pbc="T T T"
Pb       1.94702308       1.37675308       3.37234281      -0.00000009       0.00000070       0.00000126
Pb       5.84106772       4.13025891      10.11702569      -0.00000031       0.00000099      -0.00000109
Zn      -0.00000021      -0.00000030       0.00000016       0.00000046       0.00000518      -0.00000344
Cl       1.94191272       1.37313982       6.74468344      -0.00371411      -0.00262530      -0.00000213
Cl       5.84617865       4.13387244       6.74468365       0.00370906       0.00262316      -0.00000071
Cl       4.87011189       1.37313938       5.05408772       0.00185565      -0.00262389      -0.00321558
Cl       2.91797937       4.13387190       8.43528035      -0.00185432       0.00262435       0.00321524
Cl       2.91797884       4.13387229       5.05408747      -0.00185435       0.00262308      -0.00321205
Cl       4.87011158       1.37313993       8.43528011       0.00185807      -0.00262816       0.00321828
