9
Lattice="4.9112012553267155 -6.708258635746333e-09 2.8354833550685337 1.6370670819569544 4.630324930574195 2.8354833495733627 2.348381649781423e-08 9.87538503098679e-09 5.670966669461923" Properties=species:S:1:pos:R:3:forces:R:3 energy=-39.71561813354492 free_energy=-39.71561813354492 stress="0.00024012234644033015 -2.654132202906112e-08 -1.7256583717539797e-08 -2.654132202906112e-08 0.00024002139980439097 -3.4472030563392764e-08 -1.7256583717539797e-08 -3.4472030563392764e-08 0.0002400477824267" pbc="T T T"
Pb       1.63706685       1.15758128       2.83548335       0.00000047      -0.00000037       0.00000118
Pb       4.91120133       3.47274365       8.50645020      -0.00000032       0.00000067       0.00000027
Zn       0.00000007       0.00000004       0.00000079       0.00000007       0.00000072      -0.00001251
F        1.62593672       1.14971084       5.67096648      -0.00085863      -0.00060701      -0.00000015
F        4.92233157       3.48061398       5.67096656       0.00085825       0.00060707      -0.00000134
F        4.09823305       1.14971089       4.24358586       0.00042842      -0.00060540      -0.00074217
F        2.45003578       3.48061371       7.09834717      -0.00043289       0.00061065       0.00074819
F        2.45003538       3.48061402       4.24358587      -0.00042757       0.00060543      -0.00074211
F        4.09823276       1.14971121       7.09834717       0.00043222      -0.00061166       0.00074890
