9
Lattice="6.5134231178757265 -1.4428354354766872e-07 3.760526705814548 2.171140883433334 6.1409143294273125 3.76052674015545 -3.430221389886375e-08 1.7803517403748674e-08 7.52105347104228" Properties=species:S:1:pos:R:3:forces:R:3 energy=-36.88622283935547 free_energy=-36.88622283935547 stress="6.333218334475532e-05 -3.0824207186697095e-08 -2.008458954705361e-09 -3.0824207186697095e-08 6.334744102787226e-05 9.127954392340598e-09 -2.008458954705361e-09 9.127954392340598e-09 6.337287049973384e-05" pbc="T T T"
Pb       2.17114101       1.53522847       3.76052684      -0.00000011      -0.00000025       0.00000026
Pb       6.51342292       4.60568554      11.28158002      -0.00000035       0.00000000       0.00000033
Zr       0.00000010      -0.00000012       0.00000039      -0.00000150       0.00000022      -0.00000060
Te       2.32495149       1.64398897       7.52105343      -0.00197683      -0.00139764      -0.00000022
Te       6.35961220       4.49692510       7.52105326       0.00197887       0.00139926       0.00000097
Te       5.35094702       1.64398961       5.77399474       0.00099075      -0.00140202      -0.00171610
Te       3.33361696       4.49692495       9.26811217      -0.00099039       0.00140045       0.00171530
Te       3.33361715       4.49692489       5.77399452      -0.00099051       0.00140006      -0.00171495
Te       5.35094701       1.64398938       9.26811224       0.00099004      -0.00140007       0.00171512
