9
Lattice="4.874360144646856 -1.5321475614953485e-07 2.8142131370123766 1.6247866267332765 4.595590598970066 2.8142130394923304 -7.532506017740776e-08 -1.7270004207633545e-07 5.628426404491603" Properties=species:S:1:pos:R:3:forces:R:3 energy=-30.64950942993164 free_energy=-30.64950942993164 stress="0.00021411544003058225 -2.8009480956825428e-08 -5.272541514500517e-09 -2.8009480956825428e-08 0.00021413597278296947 1.313652209233851e-08 -5.272541514500517e-09 1.313652209233851e-08 0.00021416110394056886" pbc="T T T"
Pd       1.62478696       1.14889740       2.81421349       0.00000050      -0.00000058       0.00000233
Pd       4.87435968       3.44669251       8.44263945      -0.00000148      -0.00000109      -0.00000135
Au       0.00000005      -0.00000025      -0.00000002      -0.00000162       0.00001047      -0.00000095
F        1.64000307       1.15965734       5.62842628       0.00039803       0.00028094      -0.00000101
F        4.85914348       3.43593309       5.62842645      -0.00039940      -0.00028268      -0.00000025
F        4.05435844       1.15965755       4.23449739      -0.00019757       0.00027916       0.00034188
F        2.44478841       3.43593300       7.02235476       0.00019925      -0.00028193      -0.00034479
F        2.44478841       3.43593292       4.23449776       0.00019931      -0.00028284       0.00034480
F        4.05435828       1.15965757       7.02235478      -0.00019709       0.00027854      -0.00034057
