9
Lattice="6.522785256967557 4.72126955581309e-08 3.765931895241477 2.1742617719133133 6.149741008620799 3.765931938407191 2.2900118553071084e-08 6.90597877003655e-08 7.531863750818883" Properties=species:S:1:pos:R:3:forces:R:3 energy=-18.0051326751709 free_energy=-18.0051326751709 stress="-0.00014302704948931932 1.897636714431883e-09 -1.4141731119465817e-09 1.897636714431883e-09 -0.0001430348347639665 -2.6169899580708034e-09 -1.4141731119465817e-09 -2.6169899580708034e-09 -0.00014303087664302438" pbc="T T T"
Pd       2.17426222       1.53743523       3.76593167       0.00000122      -0.00000011      -0.00000047
Pd       6.52278521       4.61230561      11.29779585      -0.00000009      -0.00000043       0.00000116
Au       0.00000017       0.00000011      -0.00000012      -0.00000091       0.00000034       0.00000055
I        2.30447216       1.62950811       7.53186387      -0.00537531      -0.00380054       0.00000006
I        6.39257461       4.52023308       7.53186373       0.00537571       0.00380117      -0.00000074
I        5.37054890       1.62950820       5.76166348       0.00268729      -0.00380078      -0.00465609
I        3.32649800       4.52023299       9.30206418      -0.00268775       0.00380071       0.00465555
I        3.32649811       4.52023303       5.76166357      -0.00268727       0.00380106      -0.00465553
I        5.37054886       1.62950817       9.30206412       0.00268710      -0.00380138       0.00465554
