9
Lattice="6.086139867880151 1.213605678907355e-08 3.5138344394704797 2.0287132994492088 5.738067700848932 3.5138344416982377 -2.2838188973116954e-08 -1.342063889937396e-08 7.027668918497845" Properties=species:S:1:pos:R:3:forces:R:3 energy=-18.83885955810547 free_energy=-18.83885955810547 stress="2.6741843612398952e-05 -6.573424915501391e-09 -2.1132329219852863e-09 -6.573424915501391e-09 2.6745599825517274e-05 -8.631731773789397e-09 -2.1132329219852863e-09 -8.631731773789397e-09 2.675018367881421e-05" pbc="T T T"
Pd       2.02871349       1.43451700       3.51383439       0.00000013       0.00000071       0.00000008
Pd       6.08613999       4.30355050      10.54150343       0.00000146      -0.00000020      -0.00000069
Ag       0.00000038       0.00000071       0.00000020      -0.00000462      -0.00000824      -0.00000360
Br       2.07987877       1.47069647       7.02766890      -0.00304930      -0.00215487      -0.00000013
Br       6.03497386       4.26737092       7.02766887       0.00305548       0.00215970       0.00000076
Br       5.04620039       1.47069642       5.31506228       0.00152461      -0.00215708      -0.00264165
Br       3.06865269       4.26737105       8.74027526      -0.00152733       0.00215955       0.00264443
Br       3.06865275       4.26737112       5.31506239      -0.00152678       0.00215892      -0.00264309
Br       5.04620026       1.47069662       8.74027550       0.00152634      -0.00215846       0.00264379
