9
Lattice="5.806659628224032 -2.0121941892491833e-08 3.3524766876529872 1.935553231119675 5.474571601562154 3.3524766171882923 2.3289923456338313e-08 -6.983282825163341e-08 6.704953334966648" Properties=species:S:1:pos:R:3:forces:R:3 energy=-21.40070343017578 free_energy=-21.40070343017578 stress="0.0002721706114243716 -1.9006762386197806e-08 7.957283165715978e-10 -1.9006762386197806e-08 0.0002721182827372104 1.1479767358935078e-08 7.957283165715978e-10 1.1479767358935078e-08 0.0002721022174227983" pbc="T T T"
Pd       1.93555336       1.36864216       3.35247641       0.00000039      -0.00000272      -0.00000189
Pd       5.80665988       4.10592815      10.05743079       0.00000034      -0.00000259       0.00000533
Au      -0.00000015      -0.00000010       0.00000016       0.00000102       0.00000046      -0.00000206
Cl       1.98881095       1.40630178       6.70495372      -0.00256068      -0.00181079       0.00000190
Cl       5.75340150       4.06827031       6.70495312       0.00255975       0.00181150      -0.00000224
Cl       4.81225481       1.40630189       5.07483724       0.00128146      -0.00180775      -0.00221834
Cl       2.92995799       4.06827003       8.33506887      -0.00128320       0.00181109       0.00221670
Cl       2.92995883       4.06826970       5.07483738      -0.00127904       0.00181061      -0.00221714
Cl       4.81225435       1.40630212       8.33506882       0.00127974      -0.00180995       0.00221783
