9
Lattice="6.118707575481312 -1.7544031437923996e-08 3.532637540722205 2.0395691913160636 5.768772849201808 3.5326375129580683 -1.3424144185747747e-08 -4.3496272444846644e-08 7.065275104695692" Properties=species:S:1:pos:R:3:forces:R:3 energy=-19.033409118652344 free_energy=-19.033409118652344 stress="7.096165791153908e-05 -5.6630997669060434e-09 5.454748652766739e-09 -5.6630997669060434e-09 7.096597255440429e-05 1.8429010539833257e-09 5.454748652766739e-09 1.8429010539833257e-09 7.096287299646065e-05" pbc="T T T"
Pd       2.03956905       1.44219309       3.53263801      -0.00000111       0.00000037       0.00000190
Pd       6.11870823       4.32657926      10.59791219       0.00000236      -0.00000193      -0.00000272
Au      -0.00000007       0.00000001      -0.00000020      -0.00000018      -0.00000075      -0.00000080
Br       2.11215519       1.49351954       7.06527500      -0.00099158      -0.00069889      -0.00000060
Br       6.04612139       4.27525345       7.06527523       0.00099090       0.00070007       0.00000126
Br       5.06262967       1.49351935       5.36181773       0.00049506      -0.00070076      -0.00085792
Br       3.09564678       4.27525357       8.76873228      -0.00049531       0.00070177       0.00085747
Br       3.09564656       4.27525326       5.36181797      -0.00049695       0.00070010      -0.00085711
Br       5.06263020       1.49351959       8.76873241       0.00049679      -0.00070000       0.00085869
