9
Lattice="4.933635162982099 3.766213843214381e-08 2.8484357343393327 1.644545068367947 4.651476052749295 2.8484357715223556 -9.4982005130404e-08 -2.1622712941771047e-08 5.696871633192302" Properties=species:S:1:pos:R:3:forces:R:3 energy=-29.45479965209961 free_energy=-29.45479965209961 stress="0.00023641619191039354 -3.660468550492624e-08 1.2657542569627367e-08 -3.660468550492624e-08 0.00023649362265132368 2.4513246543733658e-08 1.2657542569627367e-08 2.4513246543733658e-08 0.00023634063836652786" pbc="T T T"
Pd       1.64454372       1.16286837       2.84843591      -0.00000821      -0.00000527       0.00000134
Pd       4.93363616       3.48860792       8.54530692       0.00000639       0.00000648      -0.00000131
Ag      -0.00000008      -0.00000001      -0.00000004      -0.00000196       0.00000241      -0.00000068
F        1.68993004       1.19496064       5.69687140      -0.00198501      -0.00140423      -0.00000038
F        4.88825015       3.45651513       5.69687170       0.00198573       0.00140435       0.00000039
F        4.08867031       1.19496055       4.31195845       0.00099543      -0.00140724      -0.00171781
F        2.48950980       3.45651533       7.08178490      -0.00099409       0.00140566       0.00171655
F        2.48950977       3.45651546       4.31195848      -0.00099349       0.00140503      -0.00171530
F        4.08867053       1.19496077       7.08178487       0.00099531      -0.00140738       0.00171715
