9
Lattice="6.3555606640485705 -2.880444930913866e-08 3.669384550454915 2.1185202086758808 5.992080032192891 3.6693845253687725 -8.571121148633736e-08 -9.133094541089162e-08 7.338769249365938" Properties=species:S:1:pos:R:3:forces:R:3 energy=-19.906476974487305 free_energy=-19.906476974487305 stress="-0.0003138338215649128 6.348649161935782e-09 1.0313074838563807e-09 6.348649161935782e-09 -0.0003138320171274245 1.2041024843867376e-09 1.0313074838563807e-09 1.2041024843867376e-09 -0.0003138339379802346" pbc="T T T"
Pd       2.11852067       1.49802025       3.66938443       0.00000125       0.00000061      -0.00000063
Pd       6.35556080       4.49406013      11.00815363       0.00000069       0.00000034       0.00000045
Be       0.00000004      -0.00000023      -0.00000010      -0.00000012       0.00000039       0.00000102
I        2.08937193       1.47740934       7.33876892       0.00101652       0.00071939      -0.00000028
I        6.38470865       4.51467062       7.33876914      -0.00101741      -0.00071960       0.00000041
I        5.31087462       1.47740900       5.47883396      -0.00050822       0.00071846       0.00088076
I        3.16320573       4.51467071       9.19870485       0.00050818      -0.00072038      -0.00088171
I        3.16320624       4.51467100       5.47883380       0.00050873      -0.00071907       0.00088069
I        5.31087453       1.47740881       9.19870472      -0.00050957       0.00071987      -0.00088068
