9
Lattice="5.923440881435779 2.4372585089856285e-08 3.4199002129143063 1.974480304414296 5.584673899907859 3.4199002343507394 -2.270561705602617e-08 1.0198860684056292e-08 6.839800465155967" Properties=species:S:1:pos:R:3:forces:R:3 energy=-22.05826187133789 free_energy=-22.05826187133789 stress="0.0003913516120519489 1.4899398159684552e-08 -3.3502942642371636e-08 1.4899398159684552e-08 0.00039137815474532545 1.585198639020291e-08 -3.3502942642371636e-08 1.585198639020291e-08 0.0003914669214282185" pbc="T T T"
Pd       1.97447944       1.39616756       3.41990047      -0.00000220      -0.00000297       0.00000098
Pd       5.92344073       4.18850453      10.25970240      -0.00000069      -0.00000419       0.00000671
Be      -0.00000004      -0.00000011      -0.00000002       0.00000069       0.00000090      -0.00000004
Br       1.94269380       1.37369208       6.83980020       0.00526617       0.00372514      -0.00000070
Br       5.95522796       4.21098260       6.83980023      -0.00527148      -0.00372633      -0.00000374
Br       4.95209398       1.37369238       5.10232201      -0.00263091       0.00372894       0.00456107
Br       2.94582697       4.21098248       8.57727848       0.00263330      -0.00372234      -0.00456502
Br       2.94582767       4.21098239       5.10232197       0.00263786      -0.00372407       0.00456460
Br       4.95209407       1.37369178       8.57727800      -0.00263271       0.00372474      -0.00456393
