9
Lattice="4.367869152279931 7.53031191181837e-08 2.521790402851963 1.4559564132231808 4.118066668150762 2.5217904753670437 -6.698032520293989e-08 4.1450230872659424e-08 5.04358092171727" Properties=species:S:1:pos:R:3:forces:R:3 energy=-37.73677062988281 free_energy=-37.73677062988281 stress="1.1769861885113642e-05 -2.5766816236227896e-08 -5.067445130180204e-08 -2.5766816236227896e-08 1.1685918252624106e-05 -2.4702433876200303e-08 -5.067445130180204e-08 -2.4702433876200303e-08 1.1703858035616577e-05" pbc="T T T"
Pd       1.45595701       1.02951733       2.52179066       0.00000568       0.00000355       0.00000279
Pd       4.36786846       3.08854966       7.56537041      -0.00000606      -0.00000273      -0.00000673
Be      -0.00000004       0.00000004       0.00000022      -0.00000047       0.00000007      -0.00000164
F        1.41479933       1.00041403       5.04358106      -0.00003141      -0.00002220      -0.00000116
F        4.40902639       3.11765285       5.04358139       0.00002849       0.00001919      -0.00000045
F        3.66046913       1.00041403       3.74704223       0.00001460      -0.00001836      -0.00002587
F        2.16335622       3.11765231       6.34011954      -0.00001457       0.00002286       0.00002897
F        2.16335590       3.11765237       3.74704223      -0.00001371       0.00001842      -0.00002587
F        3.66046962       1.00041463       6.34011933       0.00001833      -0.00002134       0.00002950
