9
Lattice="5.526546416814909 -5.62424114125744e-08 3.1907528275002117 1.8421820554654718 5.210477647908061 3.19075288023595 -1.8948009316746918e-07 -6.939487730404021e-08 6.38150598318965" Properties=species:S:1:pos:R:3:forces:R:3 energy=-24.42410659790039 free_energy=-24.42410659790039 stress="0.00044753035763278604 -4.840594591826175e-09 3.551324923023458e-08 -4.840594591826175e-09 0.0004474899033084512 2.6875525804825884e-08 3.551324923023458e-08 2.6875525804825884e-08 0.00044752031681127846" pbc="T T T"
Pd       1.84218461       1.30262132       3.19075298       0.00002062       0.00001672      -0.00000141
Pd       5.52654548       3.90786238       9.57226400      -0.00000531       0.00003290       0.00004127
Be       0.00000015       0.00000028       0.00000009       0.00000035       0.00000111       0.00000111
Cl       1.81320730       1.28212834       6.38150561       0.00214249       0.00149457       0.00000014
Cl       5.55552192       3.92834683       6.38150320      -0.00213525      -0.00150998      -0.00001878
Cl       4.61994323       1.28212987       4.76103513      -0.00107341       0.00150742       0.00184461
Cl       2.74878358       3.92834589       8.00197583       0.00105776      -0.00151832      -0.00184968
Cl       2.74878548       3.92834644       4.76103446       0.00107491      -0.00151716       0.00183737
Cl       4.61994130       1.28212870       8.00197556      -0.00108218       0.00149259      -0.00185475
