9
Lattice="6.335651127747095 4.6651902775047136e-11 3.6578897414815272 2.1118836891323545 5.973309092745057 3.6578897764007867 2.245696615880632e-08 5.864670528868391e-08 7.31577944406633" Properties=species:S:1:pos:R:3:forces:R:3 energy=-19.191452026367188 free_energy=-19.191452026367188 stress="-0.0002874635683838278 1.438241525875128e-09 -1.9392010219831946e-10 1.438241525875128e-09 -0.00028747707256115973 2.8994069367627162e-09 -1.9392010219831946e-10 2.8994069367627162e-09 -0.00028746199677698314" pbc="T T T"
Pd       2.11188412       1.49332700       3.65788975       0.00000125       0.00000003      -0.00000043
Pd       6.33565166       4.47998274      10.97366973       0.00000216       0.00000268       0.00000216
Cu      -0.00000002       0.00000000      -0.00000013      -0.00000027      -0.00000026       0.00000080
I        2.15857784       1.52634495       7.31577948      -0.00393756      -0.00278429       0.00000048
I        6.28895683       4.44696400       7.31577928       0.00393699       0.00278421      -0.00000101
I        5.25636213       1.52634489       5.52727297       0.00196825      -0.00278554      -0.00340995
I        3.19117241       4.44696423       9.10428592      -0.00196933       0.00278381       0.00340828
I        3.19117249       4.44696416       5.52727293      -0.00196909       0.00278402      -0.00340956
I        5.25636193       1.52634461       9.10428588       0.00196761      -0.00278468       0.00340921
