9
Lattice="4.256259167771513 1.612712818651961e-07 2.4573525219615524 1.4187531281039358 4.012840045182847 2.457352660296894 8.591029765430201e-08 2.3017322863864102e-07 4.914704895122028" Properties=species:S:1:pos:R:3:forces:R:3 energy=-36.773460388183594 free_energy=-36.773460388183594 stress="-8.822669042274356e-05 -1.1910807273807222e-07 -1.59371865038338e-07 -1.1910807273807222e-07 -8.726193482289091e-05 7.089221298883785e-08 -1.59371865038338e-07 7.089221298883785e-08 -8.707159577170387e-05" pbc="T T T"
Pd       1.41875317       1.00321035       2.45735269       0.00000165      -0.00000103      -0.00000071
Pd       4.25625942       3.00962994       7.37205737      -0.00000265       0.00000210       0.00000239
C       -0.00000027       0.00000005       0.00000006       0.00000804       0.00000204       0.00000711
F        1.27213014       0.89953282       4.91470523      -0.00283830      -0.00202441      -0.00000437
F        4.40288154       3.11330782       4.91470553       0.00284481       0.00202575      -0.00001178
F        3.62019364       0.89953292       3.55905112       0.00141957      -0.00202325      -0.00248457
F        2.05481944       3.11330667       6.27035844      -0.00143513       0.00203635       0.00249109
F        2.05481825       3.11330776       3.55905074      -0.00141806       0.00201875      -0.00248174
F        3.62019407       0.89953346       6.27035918       0.00141998      -0.00203651       0.00248148
