9
Lattice="6.195122733375614 5.4662956284275285e-08 3.576755796406944 2.065040959497769 5.840817824273337 3.5767558018875163 8.294203859579401e-09 1.2577155598226324e-08 7.1535115784479" Properties=species:S:1:pos:R:3:forces:R:3 energy=-17.754568099975586 free_energy=-17.754568099975586 stress="5.1284489018144086e-05 -8.630908432394335e-09 7.916368116589467e-10 -8.630908432394335e-09 5.127508848090656e-05 -3.1550178025696596e-09 7.916368116589467e-10 -3.1550178025696596e-09 5.1298637117724866e-05" pbc="T T T"
Pd       2.06504040       1.46020486       3.57675574      -0.00000181       0.00000195      -0.00000057
Pd       6.19512283       4.38061313      10.73026763       0.00000013      -0.00000094       0.00000069
Cd       0.00000020       0.00000001      -0.00000007      -0.00000171      -0.00000153       0.00000077
Br       2.17326509       1.53673062       7.15351148      -0.00035363      -0.00025126      -0.00000025
Br       6.08689883       4.30408722       7.15351136       0.00035661       0.00025171       0.00000074
Br       5.10849033       1.53673084       5.45885860       0.00017855      -0.00025164      -0.00030755
Br       3.15167316       4.30408732       8.84816489      -0.00017761       0.00025003       0.00030775
Br       3.15167345       4.30408723       5.45885844      -0.00017780       0.00025211      -0.00030880
Br       5.10849050       1.53673033       8.84816463       0.00017720      -0.00025041       0.00030710
