9
Lattice="5.991908000970198 2.2937070978165537e-07 3.459430243209577 1.9973029347282338 5.649225245219119 3.459430154034232 4.5222369970086765e-07 2.1055346458139437e-07 6.918859703144776" Properties=species:S:1:pos:R:3:forces:R:3 energy=-21.919130325317383 free_energy=-21.919130325317383 stress="0.0001264305756194517 2.0384818277818795e-09 -3.8264204249571776e-08 2.0384818277818795e-09 0.00012639607302844524 -5.355822452202119e-08 -3.8264204249571776e-08 -5.355822452202119e-08 0.00012643705122172832" pbc="T T T"
Pd       1.99730291       1.41230582       3.45943088      -0.00000002      -0.00000277       0.00000543
Pd       5.99190684       4.23691979      10.37828936      -0.00000615       0.00000153      -0.00000302
C       -0.00000021      -0.00000029      -0.00000038      -0.00000021       0.00000019       0.00000090
Br       1.89506926       1.34001606       6.91886003       0.00680378       0.00480855      -0.00000200
Br       6.09414278       4.30920979       6.91886055      -0.00680238      -0.00480941      -0.00000014
Br       5.04437399       1.34001631       5.10060749      -0.00339997       0.00480875       0.00589055
Br       2.94483775       4.30920986       8.73711228       0.00340357      -0.00480953      -0.00589015
Br       2.94483764       4.30920928       5.10060754       0.00340192      -0.00480863       0.00588936
Br       5.04437458       1.34001604       8.73711242      -0.00340061       0.00481127      -0.00589076
