9
Lattice="6.312013341671125 1.9742599447032964e-07 3.644242604989755 2.104004582560424 5.951022861135917 3.6442426929749923 2.544566237944307e-07 2.876875443456514e-07 7.28848476924764" Properties=species:S:1:pos:R:3:forces:R:3 energy=-20.075847625732422 free_energy=-20.075847625732422 stress="-7.500802894355729e-05 1.2288737138987926e-08 -8.501175763342417e-09 1.2288737138987926e-08 -7.499163621105254e-05 -7.12335079811055e-09 -8.501175763342417e-09 -7.12335079811055e-09 -7.50097242416814e-05" pbc="T T T"
Pd       2.10400788       1.48775760       3.64424484       0.00000954       0.00000390       0.00000649
Pd       6.31201563       4.46326571      10.93272576       0.00000638      -0.00000325      -0.00000353
C       -0.00000047       0.00000013      -0.00000029       0.00000100      -0.00000036      -0.00000058
I        2.14613300       1.51754595       7.28848414       0.00503266       0.00356233      -0.00000297
I        6.26988416       4.43347768       7.28848572      -0.00503778      -0.00356108       0.00000142
I        5.23894514       1.51754577       5.50284830      -0.00252301       0.00356120       0.00435978
I        3.17707065       4.43347735       9.07412170       0.00251585      -0.00356209      -0.00436097
I        3.17707021       4.43347741       5.50284822       0.00251454      -0.00356293       0.00436026
I        5.23894651       1.51754583       9.07412177      -0.00251904       0.00356218      -0.00436002
