9
Lattice="4.491139930159574 2.236647573525989e-08 2.5929608600185836 1.4970466369519952 4.2342874070099406 2.592960907687811 -1.4247939374173782e-08 4.830784080282693e-08 5.185921744715348" Properties=species:S:1:pos:R:3:forces:R:3 energy=-37.205421447753906 free_energy=-37.205421447753906 stress="0.00032998749520629644 5.2290314300762475e-08 -6.05050161084364e-08 5.2290314300762475e-08 0.00032999852555803955 7.208026175931082e-08 -6.05050161084364e-08 7.208026175931082e-08 0.0003299711097497493" pbc="T T T"
Pd       1.49704654       1.05857168       2.59296101      -0.00000195      -0.00000069       0.00000197
Pd       4.49113993       3.17571572       7.77888238       0.00000068       0.00000052       0.00000008
Co      -0.00000012       0.00000072       0.00000088       0.00000783      -0.00002799      -0.00002862
F        1.47815974       1.04521716       5.18592153      -0.00733790      -0.00519075       0.00000030
F        4.51002642       3.18907000       5.18592181       0.00734781       0.00519622      -0.00000053
F        3.75206014       1.04521695       3.87308480       0.00366201      -0.00518210      -0.00634465
F        2.23612691       3.18907035       6.49875806      -0.00367860       0.00520393       0.00637336
F        2.23612629       3.18907038       3.87308490      -0.00366827       0.00518870      -0.00635558
F        3.75206036       1.04521696       6.49875871       0.00366812      -0.00518779       0.00635368
