9
Lattice="6.05547132761445 -2.334597378475503e-07 3.4961282669848153 2.0184903334758966 5.709152943723141 3.496128074647969 2.5001631174175576e-08 -2.1788471601134304e-07 6.992256490665522" Properties=species:S:1:pos:R:3:forces:R:3 energy=-28.718910217285156 free_energy=-28.718910217285156 stress="0.0002387357671977952 -1.8265991386101632e-08 1.9147874397162923e-08 -1.8265991386101632e-08 0.0002387732092756778 -3.1508861297879776e-08 1.9147874397162923e-08 -3.1508861297879776e-08 0.0002387690037721768" pbc="T T T"
Pd       2.01849022       1.42728780       3.49612732      -0.00000072      -0.00000050      -0.00000312
Pd       6.05547087       4.28186388      10.48838373      -0.00000131      -0.00000275      -0.00000540
Cr       0.00000017       0.00000010       0.00000034      -0.00000018       0.00000236      -0.00000058
Br       1.96693607       1.39083309       6.99225669       0.00096349       0.00068151       0.00000174
Br       6.10702605       4.31831922       6.99225689      -0.00096562      -0.00068130       0.00000246
Br       5.07200383       1.39083396       5.19954504      -0.00047976       0.00068130       0.00083459
Br       3.00195813       4.31831910       8.78496811       0.00048298      -0.00068230      -0.00083493
Br       3.00195820       4.31831890       5.19954504       0.00048017      -0.00067844       0.00083330
Br       5.07200332       1.39083398       8.78496813      -0.00047902       0.00068010      -0.00082825
