9
Lattice="6.010437219436129 3.049927759874417e-07 3.470128096232859 2.0034793834656837 5.666695347070153 3.4701280567934627 5.500575763194873e-08 -9.408259470344601e-09 6.940256097192971" Properties=species:S:1:pos:R:3:forces:R:3 energy=-24.069795608520508 free_energy=-24.069795608520508 stress="-4.9722064431989565e-05 2.966762657763411e-08 -1.2378292835180105e-09 2.966762657763411e-08 -4.972415626980364e-05 1.8576855609353515e-08 -1.2378292835180105e-09 1.8576855609353515e-08 -4.9708756705513224e-05" pbc="T T T"
Pd       2.00348023       1.41667279       3.47012791      -0.00000019      -0.00000416      -0.00000138
Pd       6.01043650       4.25002238      10.41038398      -0.00000056       0.00000239       0.00000247
Co      -0.00000019      -0.00000005      -0.00000006       0.00000037      -0.00000026       0.00000072
Br       1.96705708       1.39091948       6.94025593       0.00133787       0.00094301       0.00000150
Br       6.04685966       4.27577611       6.94025591      -0.00133795      -0.00094183       0.00000091
Br       5.02690881       1.39092013       5.17365005      -0.00066875       0.00094385       0.00115497
Br       2.98700723       4.27577673       8.70686271       0.00067156      -0.00094648      -0.00115913
Br       2.98700784       4.27577587       5.17364991       0.00067034      -0.00094405       0.00115745
Br       5.02690947       1.39091918       8.70686271      -0.00067256       0.00094761      -0.00115749
