9
Lattice="3.4955065707116115 -0.1313695064738572 0.5398229046713958 1.0941852421844223 2.304262124300467 0.9134101522094241 0.5974077758081263 0.964456425622016 2.241363724897751" Properties=species:S:1:pos:R:3:forces:R:3 energy=-26733164544.0 free_energy=-26733164544.0 stress="0.0 672898304.0 -207645280.0 672898304.0 0.0 301406720.0 -207645280.0 301406720.0 0.0" pbc="T T T"
Pd       1.33663541      -0.02259125       1.83447047 -20015294464.00000000 -29382879232.00000000 -6835034112.00000000
Pd       3.81327453       3.04435944       4.32071651 -7517752320.00000000 -671463424.00000000 -24193880064.00000000
C        0.29813300      -0.06169514       1.68415639 13498988544.00000000 7491612672.00000000 12052376576.00000000
O        0.83493912       1.30120050       4.02840301 9775143936.00000000 -15327668224.00000000 5337923584.00000000
O        5.74725663       2.92713270       2.21474100 8047203840.00000000 20646141952.00000000 4683141120.00000000
O        4.88920164      -0.51389174       2.16088620 7200058368.00000000 17788084224.00000000 11957441536.00000000
O        3.98048373       2.81606514       3.95354507 -2097566208.00000000 11136024576.00000000 26976237568.00000000
O        1.92469427       2.40407404       3.27923872 -7009430528.00000000 -11962571776.00000000 -27758809088.00000000
O        3.04156706       1.68736492       3.37937918 -1881340800.00000000 282710528.00000000 -2219384832.00000000
