9
Lattice="5.911646626975748 2.20669795498764e-08 3.413090559010179 1.9705488598829657 5.573553672801141 3.413090622369625 5.604130476687258e-08 1.1722633337103558e-07 6.826181020954036" Properties=species:S:1:pos:R:3:forces:R:3 energy=-24.62066650390625 free_energy=-24.62066650390625 stress="0.00011290195106994361 -2.1365959668173673e-08 -1.8547444469163565e-08 -2.1365959668173673e-08 0.00011306243686703965 -5.373074873915584e-09 -1.8547444469163565e-08 -5.373074873915584e-09 0.00011303806240903214" pbc="T T T"
Pd       1.97055065       1.39338736       3.41308984       0.00000717      -0.00000562      -0.00000426
Pd       5.91164567       4.18016628      10.23927262      -0.00000325       0.00000546       0.00000651
Ca      -0.00000015      -0.00000013      -0.00000014      -0.00000021       0.00000365      -0.00000020
Cl       2.10162766       1.48607457       6.82618116      -0.00043449      -0.00031255       0.00000044
Cl       5.78056822       4.08747939       6.82618075       0.00043145       0.00031148      -0.00000328
Cl       4.86083279       1.48607555       5.23315352       0.00021696      -0.00030743      -0.00038078
Cl       3.02136282       4.08747832       8.41920884      -0.00021996       0.00030670       0.00037988
Cl       3.02136281       4.08747890       5.23315366      -0.00021396       0.00031210      -0.00037725
Cl       4.86083174       1.48607495       8.41920858       0.00021626      -0.00031380       0.00037892
