9
Lattice="6.010648635415921 -7.136954129240829e-08 3.470249556577062 2.0035496009028706 5.666893785882809 3.4702493434446064 9.718886595551869e-08 -1.9230999223982796e-07 6.940498944818091" Properties=species:S:1:pos:R:3:forces:R:3 energy=-24.06979751586914 free_energy=-24.06979751586914 stress="2.838757211520715e-07 -2.789817088455493e-08 2.4679907895119868e-08 -2.789817088455493e-08 2.5390977498318534e-07 9.736378814295676e-09 2.4679907895119868e-08 9.736378814295676e-09 2.4948471377683745e-07" pbc="T T T"
Pd       2.00355004       1.41672230       3.47024976       0.00000050      -0.00000406       0.00000037
Pd       6.01064894       4.25017212      10.41074984       0.00000001       0.00000723       0.00000585
Co      -0.00000016      -0.00000019       0.00000006       0.00000022       0.00000012      -0.00000048
Br       1.96729206       1.39108488       6.94049870      -0.00045705      -0.00032584      -0.00000023
Br       6.04690608       4.27580872       6.94049845       0.00045836       0.00032620      -0.00000130
Br       5.02700272       1.39108501       5.17397398       0.00022892      -0.00032629      -0.00039786
Br       2.98719534       4.27580826       8.70702347      -0.00022998       0.00032499       0.00039567
Br       2.98719565       4.27580847       5.17397398      -0.00023025       0.00032508      -0.00039837
Br       5.02700270       1.39108446       8.70702312       0.00022930      -0.00032738       0.00039649
