9
Lattice="4.491037135766525 7.138582461781215e-08 2.5929016635074795 1.4970123844218954 4.234191034626064 2.5929017699769 -1.6501703486379262e-07 1.3713219928029802e-08 5.185803612832856" Properties=species:S:1:pos:R:3:forces:R:3 energy=-37.20542907714844 free_energy=-37.20542907714844 stress="-5.639568917104043e-05 2.9499828357870683e-08 1.585494935341103e-08 2.9499828357870683e-08 -5.641873212880455e-05 -4.69020822180255e-09 1.585494935341103e-08 -4.69020822180255e-09 -5.6321492593269795e-05" pbc="T T T"
Pd       1.49701098       1.05854765       2.59290258      -0.00000534      -0.00000204       0.00000356
Pd       4.49103751       3.17564253       7.77870407       0.00000193      -0.00000222      -0.00000508
Co       0.00000017       0.00000003       0.00000006      -0.00000516       0.00000784       0.00000683
F        1.47762687       1.04484027       5.18580337       0.00486009       0.00343750      -0.00000221
F        4.51042279       3.18935085       5.18580430      -0.00485987      -0.00343762       0.00000208
F        3.75222403       1.04484029       3.87256435      -0.00242795       0.00343525       0.00420696
F        2.23582562       3.18935150       6.49904251       0.00243380      -0.00344025      -0.00421401
F        2.23582554       3.18935120       3.87256466       0.00243041      -0.00343698       0.00421064
F        3.75222399       1.04484015       6.49904248      -0.00242782       0.00343842      -0.00420900
