9
Lattice="5.784053285737915 5.597975128111889e-08 3.3394247006221476 1.9280178477785783 5.453257584071191 3.339424643312511 -1.1814935673908428e-09 -7.102511292356429e-08 6.6788494032907" Properties=species:S:1:pos:R:3:forces:R:3 energy=-20.207477569580078 free_energy=-20.207477569580078 stress="9.72909401752986e-05 -3.893736888471722e-09 -2.534097909290267e-08 -3.893736888471722e-09 9.725469863042235e-05 -2.5767228351014637e-08 -2.534097909290267e-08 -2.5767228351014637e-08 9.734373452374712e-05" pbc="T T T"
Pd       1.92801718       1.36331471       3.33942557      -0.00000372       0.00000022       0.00000370
Pd       5.78405391       4.08994301      10.01827518       0.00000256       0.00000112       0.00000400
Cd      -0.00000010       0.00000006       0.00000103      -0.00000025       0.00000141      -0.00001091
Cl       2.04080185       1.44306413       6.67884935      -0.00289123      -0.00204558      -0.00000209
Cl       5.67126989       4.01019318       6.67884915       0.00289126       0.00204429      -0.00000322
Cl       4.76365290       1.44306411       5.10680998       0.00144436      -0.00203912      -0.00250201
Cl       2.94841804       4.01019310       8.25088751      -0.00145194       0.00204805       0.00250526
Cl       2.94841779       4.01019342       5.10681013      -0.00144324       0.00204041      -0.00249973
Cl       4.76365301       1.44306455       8.25088721       0.00145227      -0.00205096       0.00250491
