9
Lattice="6.486148433373333 8.392929338155258e-08 3.744779616034083 2.1620495233733656 6.115199487488413 3.7447796741392527 2.0552412305743123e-08 8.569679603951446e-08 7.489559196470436" Properties=species:S:1:pos:R:3:forces:R:3 energy=-26.061397552490234 free_energy=-26.061397552490234 stress="-1.948665385498316e-06 1.5536826936113357e-08 -1.6109573675038291e-09 1.5536826936113357e-08 -1.9551355308067286e-06 3.8172509597700355e-09 -1.6109573675038291e-09 3.8172509597700355e-09 -1.9723038349184208e-06" pbc="T T T"
Pd       2.16204934       1.52880064       3.74477984      -0.00000034       0.00000129       0.00000004
Pd       6.48614846       4.58639927      11.23433897      -0.00000035      -0.00000144       0.00000025
Cr       0.00000038      -0.00000039       0.00000024      -0.00000487       0.00000239      -0.00000400
I        2.14323153       1.51549385       7.48955942      -0.00043934      -0.00031056      -0.00000026
I        6.50496646       4.59970570       7.48955917       0.00044138       0.00031136      -0.00000028
I        5.41453260       1.51549384       5.60087272       0.00021933      -0.00030984      -0.00038061
I        3.23366541       4.59970576       9.37824554      -0.00021919       0.00031047       0.00038046
I        3.23366529       4.59970594       5.60087234      -0.00021810       0.00030854      -0.00037798
I        5.41453244       1.51549400       9.37824569       0.00022146      -0.00031218       0.00038233
