9
Lattice="4.502389928584673 5.968818607988651e-08 2.599455854525943 1.5007966460740885 4.24489380752814 2.5994559464320863 -7.165191209201197e-08 6.1896039604229e-08 5.19891183315661" Properties=species:S:1:pos:R:3:forces:R:3 energy=-44.786136627197266 free_energy=-44.786136627197266 stress="-0.00017387726984452456 1.879720201714008e-08 8.026082021217462e-09 1.879720201714008e-08 -0.00017369957640767097 -3.123372849245243e-08 8.026082021217462e-09 -3.123372849245243e-08 -0.00017376142204739153" pbc="T T T"
Pd       1.50080657       1.06122611       2.59944841       0.00013648       0.00004006      -0.00010398
Pd       4.50240190       3.18366996       7.79836019       0.00015977      -0.00000538      -0.00010359
Cr       0.00000008       0.00000180      -0.00000199       0.00001648       0.00000431      -0.00001425
O        1.50311499       1.06286856       5.19891574       0.00084120       0.00065318       0.00005091
O        4.50006619       3.18202730       5.19891629      -0.00090581      -0.00062516       0.00005128
O        3.75082620       1.06286343       3.90119600      -0.00049579       0.00059718       0.00078905
O        2.25235237       3.18202607       6.49663076       0.00039160      -0.00065926      -0.00074267
O        2.25235196       3.18202792       3.90119786       0.00037116      -0.00062495       0.00080186
O        3.75082558       1.06286465       6.49663130      -0.00051451       0.00062045      -0.00072879
