9
Lattice="4.981423595040381 8.262747635924384e-09 2.8760261454250795 1.6604745124844011 4.696531289109844 2.8760261921660875 -2.9144395070137686e-08 3.663757266957008e-08 5.752052341329733" Properties=species:S:1:pos:R:3:forces:R:3 energy=-34.79444885253906 free_energy=-34.79444885253906 stress="-0.0005472679622471333 2.440609103704361e-10 1.477228117607865e-08 2.440609103704361e-10 -0.0005473608616739511 3.894485178790319e-09 1.477228117607865e-08 3.894485178790319e-09 -0.0005472978809848428" pbc="T T T"
Pd       1.66047549       1.17413216       2.87602624       0.00001031      -0.00000982      -0.00000057
Pd       4.98142398       3.52239913       8.62807952       0.00000635       0.00000409       0.00000898
C        0.00000477      -0.00000426      -0.00000169       0.00014472      -0.00012132      -0.00005573
S        1.61409091       1.14133471       5.75205230       0.00589472       0.00416890       0.00000112
S        5.02780495       3.55519621       5.75205172      -0.00593999      -0.00418553      -0.00000456
S        4.17437634       1.14133655       4.27387228      -0.00299513       0.00422728       0.00518137
S        2.46751908       3.55519796       7.23023588       0.00292012      -0.00413305      -0.00506532
S        2.46751995       3.55519725       4.27386946       0.00293973      -0.00415257       0.00509074
S        4.17437684       1.14133565       7.23023285      -0.00298132       0.00420213      -0.00515592
