9
Lattice="5.117300907620431 4.0278688512615915e-08 2.9544751854779636 1.7057670166471464 4.824637957431052 2.954475169083712 -7.012669701401945e-10 -2.0574658875966296e-08 5.908950372170556" Properties=species:S:1:pos:R:3:forces:R:3 energy=-37.724571228027344 free_energy=-37.724571228027344 stress="-0.00010903654037974775 1.2551881312106161e-08 -3.245150992370327e-08 1.2551881312106161e-08 -0.00010906537499977276 1.1759028417657191e-08 -3.245150992370327e-08 1.1759028417657191e-08 -0.00010904300143010914" pbc="T T T"
Pd       1.70576775       1.20616005       2.95447479       0.00000847       0.00000615      -0.00000462
Pd       5.11730051       3.61847776       8.86342548      -0.00000395      -0.00000445      -0.00000141
Co      -0.00000017       0.00000005      -0.00000004      -0.00000024       0.00000160       0.00000331
S        1.75650935       1.24203994       5.90894991       0.00199205       0.00141026      -0.00000101
S        5.06655874       3.58259829       5.90895044      -0.00199363      -0.00141130       0.00000161
S        4.23904630       1.24204027       4.47565683      -0.00099552       0.00141028       0.00172362
S        2.58402163       3.58259786       7.34224429       0.00099826      -0.00141577      -0.00172427
S        2.58402189       3.58259811       4.47565700       0.00099850      -0.00140946       0.00172624
S        4.23904570       1.24203959       7.34224419      -0.00100380       0.00141270      -0.00172323
