9
Lattice="4.54391103890901 -1.0831451003048294e-08 2.623428281589221 1.5146369971398312 4.284040516202777 2.6234282913195774 -2.0971656132795672e-08 -2.911954318501284e-09 5.246856599502419" Properties=species:S:1:pos:R:3:forces:R:3 energy=-33.697303771972656 free_energy=-33.697303771972656 stress="0.0005249193054623902 -1.522111325868991e-08 2.1021465457238264e-08 -1.522111325868991e-08 0.0005248461966402829 -2.6544273445949784e-09 2.1021465457238264e-08 -2.6544273445949784e-09 0.0005248923553153872" pbc="T T T"
Pd       1.51463713       1.07101037       2.62342842       0.00000014       0.00000081      -0.00000046
Pd       4.54391141       3.21303022       7.87028470       0.00000316      -0.00000028      -0.00000241
Cu       0.00000011      -0.00000018      -0.00000036      -0.00000115       0.00000694       0.00000882
F        1.52652275       1.07941487       5.24685655      -0.00705084      -0.00498351       0.00000007
F        4.53202518       3.20462570       5.24685665       0.00704795       0.00498199       0.00000123
F        3.78064937       1.07941462       3.94543590       0.00352564      -0.00498785      -0.00610758
F        2.27789830       3.20462597       6.54827740      -0.00352311       0.00498128       0.00610101
F        2.27789824       3.20462581       3.94543599      -0.00352600       0.00498442      -0.00610468
F        3.78064954       1.07941463       6.54827743       0.00352426      -0.00498377       0.00610453
