9
Lattice="4.9220837242488775 -7.461779007887812e-08 2.841766414766203 1.6406944746308825 4.640584888103191 2.841766466326646 1.2617718510264875e-08 7.207047512289781e-08 5.6835328076778975" Properties=species:S:1:pos:R:3:forces:R:3 energy=-29.34505844116211 free_energy=-29.34505844116211 stress="-7.012014248175547e-05 7.600851148481524e-08 -3.3296181811692804e-08 7.600851148481524e-08 -7.005254155956209e-05 -5.206504738453077e-08 -3.3296181811692804e-08 -5.206504738453077e-08 -7.001971243880689e-05" pbc="T T T"
Pd       1.64069499       1.16014581       2.84176680       0.00000448      -0.00000246       0.00000163
Pd       4.92208237       3.48043857       8.52530102      -0.00000989      -0.00000160       0.00001175
Cd      -0.00000013       0.00000007       0.00000001      -0.00000510      -0.00000538       0.00000571
F        1.73866141       1.22941908       5.68353253       0.00006703       0.00004548      -0.00000073
F        4.82411694       3.41116552       5.68353211      -0.00005955      -0.00004038      -0.00000514
F        4.05275291       1.22941956       4.34749086      -0.00003290       0.00004771       0.00005123
F        2.51002562       3.41116593       7.01957458       0.00003508      -0.00004685      -0.00005680
F        2.51002593       3.41116582       4.34749107       0.00003539      -0.00004148       0.00004905
F        4.05275278       1.22941913       7.01957419      -0.00003456       0.00004494      -0.00005639
