9
Lattice="5.348642940226213 4.7278257517774374e-08 3.0880404976735534 1.7828810283232055 5.042749136825515 3.0880404913109833 -3.4604570079118654e-08 -3.226163883642758e-08 6.176081055283982" Properties=species:S:1:pos:R:3:forces:R:3 energy=-38.296566009521484 free_energy=-38.296566009521484 stress="-1.2233968845976051e-05 -2.0984588289252315e-08 2.2844471203598005e-08 -2.0984588289252315e-08 -1.2252440683369059e-05 6.932384888358456e-09 2.2844471203598005e-08 6.932384888358456e-09 -1.2278561371203978e-05" pbc="T T T"
Pd       1.78288182       1.26068718       3.08804053       0.00000467      -0.00000214       0.00000092
Pd       5.34864270       3.78206177       9.26412310       0.00000045       0.00000043       0.00000976
Cr       0.00000003       0.00000011      -0.00000008      -0.00000005      -0.00000040      -0.00000242
Se       1.94552853       1.37569644       6.17608107       0.00176311       0.00124710       0.00000021
Se       5.18599524       3.66705293       6.17608037      -0.00176552      -0.00124487      -0.00000291
Se       4.37587853       1.37569672       4.77291739      -0.00088383       0.00124880       0.00152481
Se       2.75564489       3.66705244       7.57924430       0.00087930      -0.00124639      -0.00152753
Se       2.75564573       3.66705283       4.77291719       0.00088381      -0.00124783       0.00152527
Se       4.37587820       1.37569623       7.57924433      -0.00088188       0.00124537      -0.00152811
