9
Lattice="5.771677027470918 -2.312664711842062e-08 3.3322793667283 1.9238922296903123 5.441589447214325 3.33227952433803 -9.650018473008471e-08 1.2479571886134713e-07 6.664558900599807" Properties=species:S:1:pos:R:3:forces:R:3 energy=-31.44434356689453 free_energy=-31.44434356689453 stress="7.524115062551573e-05 -1.2302650453932529e-08 4.47837633643644e-09 -1.2302650453932529e-08 7.525696855736896e-05 -2.099512341757759e-09 4.47837633643644e-09 -2.099512341757759e-09 7.529414142481983e-05" pbc="T T T"
Pd       1.92389186       1.36039887       3.33228006      -0.00000066       0.00000450       0.00000435
Pd       5.77167597       4.08119294       9.99684157      -0.00000286       0.00000285       0.00001223
Cr       0.00000024      -0.00000013      -0.00000014      -0.00000084      -0.00000008      -0.00000328
Cl       1.86560079       1.31917875       6.66455843      -0.00037605      -0.00026822      -0.00000216
Cl       5.82996899       4.12241038       6.66455771       0.00037737       0.00026524      -0.00000623
Cl       4.83887673       1.31917894       4.94793655       0.00018889      -0.00026527      -0.00032976
Cl       2.85669265       4.12240962       8.38118061      -0.00019057       0.00026765       0.00032778
Cl       2.85669272       4.12241041       4.94793623      -0.00018521       0.00026478      -0.00032897
Cl       4.83887665       1.31917840       8.38117985       0.00018972      -0.00027151       0.00032593
