9
Lattice="5.751319701143877 3.4324616567774395e-07 3.3205260265594863 1.9171068219351635 5.422396314463293 3.3205261456005735 2.980807000058326e-07 3.5656983886530733e-07 6.6410515368280105" Properties=species:S:1:pos:R:3:forces:R:3 energy=-24.209531784057617 free_energy=-24.209531784057617 stress="-0.00018276914488524199 -2.1682209805362618e-08 -3.035346626822921e-11 -2.1682209805362618e-08 -0.00018291625019628555 -4.7584677531631314e-08 -3.035346626822921e-11 -4.7584677531631314e-08 -0.000182816045708023" pbc="T T T"
Pd       1.91710757       1.35559877       3.32052530       0.00000669      -0.00000656       0.00000926
Pd       5.75131979       4.06679891       9.96157641       0.00000262      -0.00000091       0.00000596
C       -0.00001834       0.00001895      -0.00004347      -0.00019475       0.00020183      -0.00045885
Cl       1.74989150       1.23735830       6.64105385       0.00185455       0.00129463       0.00002338
Cl       5.91853889       4.18503793       6.64105529      -0.00181036      -0.00129829       0.00002487
Cl       4.87637399       1.23736009       4.83597996      -0.00092515       0.00131323       0.00163981
Cl       2.79205114       4.18503988       8.44613488       0.00090926      -0.00128637      -0.00153310
Cl       2.79205962       4.18502747       4.83598937       0.00099501      -0.00140610       0.00173131
Cl       4.87638267       1.23734789       8.44614360      -0.00083777       0.00118858      -0.00144236
