9
Lattice="6.334906452070541 -7.164217439744473e-09 3.6574600153901815 2.11163544516551 5.972607289666952 3.6574600709951675 -4.3686641284206593e-08 3.721078692368349e-08 7.314920106447843" Properties=species:S:1:pos:R:3:forces:R:3 energy=-21.856685638427734 free_energy=-21.856685638427734 stress="0.00011678224109346047 -2.315627334326109e-08 7.825701864305756e-09 -2.315627334326109e-08 0.00011678517330437899 9.245678889158171e-09 7.825701864305756e-09 9.245678889158171e-09 0.00011679904855554923" pbc="T T T"
Pd       2.11163512       1.49315214       3.65746010       0.00000002       0.00000032       0.00000033
Pd       6.33490644       4.47945512      10.97237921       0.00000054      -0.00000151      -0.00000270
Ca      -0.00000056      -0.00000019       0.00000052       0.00000502       0.00000299      -0.00000311
Br       2.24492474       1.58740177       7.31492000      -0.00049280      -0.00034734       0.00000003
Br       6.20161769       4.38520603       7.31492067       0.00048704       0.00034396       0.00000084
Br       5.21244405       1.58740140       5.60162206       0.00024612      -0.00034597      -0.00042479
Br       3.23409805       4.38520557       9.02821798      -0.00024638       0.00034793       0.00042733
Br       3.23409772       4.38520564       5.60162201      -0.00024572       0.00034686      -0.00042477
Br       5.21244417       1.58740183       9.02821826       0.00024613      -0.00034723       0.00042680
