9
Lattice="6.662716604609476 4.845855005938089e-08 3.846721170538679 2.220905531250204 6.2816695366341415 3.846721255940552 -9.248764404402048e-08 3.9196852228472794e-08 7.693442501270627" Properties=species:S:1:pos:R:3:forces:R:3 energy=-16.419282913208008 free_energy=-16.419282913208008 stress="-3.408506017876789e-05 5.826119142682273e-09 3.849516705400902e-09 5.826119142682273e-09 -3.4107444662367925e-05 -1.3230359030558247e-08 3.849516705400902e-09 -1.3230359030558247e-08 -3.4079563192790374e-05" pbc="T T T"
Pd       2.22090499       1.57041716       3.84672125      -0.00000206      -0.00000010      -0.00000034
Pd       6.66271643       4.71125214      11.54016306       0.00000003      -0.00000040      -0.00000211
Cd       0.00000055       0.00000021      -0.00000073      -0.00000359      -0.00000067       0.00000855
I        2.38245764       1.68465219       7.69344227      -0.00220335      -0.00155796       0.00000081
I        6.50116401       4.59701703       7.69344247       0.00220761       0.00156197       0.00000151
I        5.47148761       1.68465247       5.90999087       0.00110400      -0.00156310      -0.00191209
I        3.41213435       4.59701793       9.47689492      -0.00110027       0.00155652       0.00190578
I        3.41213458       4.59701714       5.90999084      -0.00110430       0.00156128      -0.00191082
I        5.47148801       1.68465223       9.47689481       0.00110194      -0.00155766       0.00190878
