9
Lattice="6.346869033123313 -9.488974604213836e-08 3.6643665205581644 2.115622940097946 5.983885355441153 3.6643664884810128 -4.491989575615417e-08 -7.104951281216975e-08 7.328733118919882" Properties=species:S:1:pos:R:3:forces:R:3 energy=-22.28010368347168 free_energy=-22.28010368347168 stress="6.832904909970239e-05 -1.943349481337009e-09 3.708147566783282e-09 -1.943349481337009e-09 6.835228850832209e-05 4.847017898157446e-09 3.708147566783282e-09 4.847017898157446e-09 6.832576764281839e-05" pbc="T T T"
Pd       2.11562306       1.49597126       3.66436594       0.00000087       0.00000030      -0.00000228
Pd       6.34686865       4.48791350      10.99309904      -0.00000096      -0.00000129      -0.00000079
Co       0.00000016      -0.00000001       0.00000009      -0.00000065       0.00000017      -0.00000237
I        2.10892583       1.49123579       7.32873334       0.00189230       0.00133764       0.00000096
I        6.35356616       4.49264965       7.32873316      -0.00189235      -0.00133833       0.00000088
I        5.29240616       1.49123563       5.49074992      -0.00094621       0.00133864       0.00163934
I        3.17008576       4.49264963       9.16671658       0.00094664      -0.00133881      -0.00163778
I        3.17008587       4.49264963       5.49074990       0.00094632      -0.00133789       0.00163974
I        5.29240605       1.49123564       9.16671652      -0.00094601       0.00133959      -0.00163767
