9
Lattice="6.311041473473091 5.0915214395735644e-09 3.6436814371353687 2.103680518884927 5.950106896456364 3.6436813974248037 3.9871349839054806e-08 -2.0442039421506373e-08 7.28736280521155" Properties=species:S:1:pos:R:3:forces:R:3 energy=-20.075838088989258 free_energy=-20.075838088989258 stress="-0.00013481563655659556 -1.495514290184019e-08 -1.2379961056296906e-08 -1.495514290184019e-08 -0.00013482553185895085 1.4541102544285422e-08 -1.2379961056296906e-08 1.4541102544285422e-08 -0.00013481643691193312" pbc="T T T"
Pd       2.10368057       1.48752598       3.64368182       0.00000102      -0.00000165       0.00000098
Pd       6.31104182       4.46258022      10.93104353       0.00000028      -0.00000058      -0.00000115
C       -0.00000065      -0.00000090       0.00000232      -0.00000022      -0.00000323       0.00000635
I        2.14771942       1.51866690       7.28736307      -0.00470686      -0.00332817       0.00000064
I        6.26700348       4.43144082       7.28736322       0.00470960       0.00333035       0.00000018
I        5.23718204       1.51866598       5.50365984       0.00235391      -0.00333133      -0.00407928
I        3.17754041       4.43144023       9.07106452      -0.00235364       0.00332996       0.00407654
I        3.17753923       4.43144105       5.50365961      -0.00235632       0.00333175      -0.00407946
I        5.23718187       1.51866723       9.07106448       0.00235224      -0.00332713       0.00407529
