9
Lattice="5.962836368683019 2.831272451429552e-08 3.442645224893701 1.9876121391283874 5.621816061004495 3.442645243009952 1.6789633371621652e-08 3.405986611909888e-08 6.885290420706899" Properties=species:S:1:pos:R:3:forces:R:3 energy=-20.95111083984375 free_energy=-20.95111083984375 stress="-8.679524034960195e-05 9.331255768074698e-09 3.423295646953761e-09 9.331255768074698e-09 -8.674762648297474e-05 -1.3562264200572827e-08 3.423295646953761e-09 -1.3562264200572827e-08 -8.677224104758352e-05" pbc="T T T"
Pd       1.98761232       1.40545374       3.44264496      -0.00000108      -0.00000215      -0.00000110
Pd       5.96283622       4.21636235      10.32793614       0.00000122       0.00000130       0.00000181
Cu      -0.00000002       0.00000025       0.00000048       0.00000056      -0.00000393      -0.00000755
Br       1.98576169       1.40414556       6.88529056      -0.00201938      -0.00142828      -0.00000027
Br       5.96468668       4.21767065       6.88529017       0.00202045       0.00142966      -0.00000003
Br       4.96995572       1.40414549       5.16236520       0.00100847      -0.00142685      -0.00174806
Br       2.98049294       4.21767031       8.60821531      -0.00101185       0.00143123       0.00175360
Br       2.98049317       4.21767079       5.16236531      -0.00100888       0.00142871      -0.00174958
Br       4.96995536       1.40414538       8.60821542       0.00101064      -0.00142965       0.00175133
