9
Lattice="5.349851222697809 -8.153555899139786e-09 3.088738020140754 1.783283727919317 5.043888149418348 3.088738029308035 -3.949355314409735e-08 -1.6698569106199897e-08 6.177476108686346" Properties=species:S:1:pos:R:3:forces:R:3 energy=-36.041831970214844 free_energy=-36.041831970214844 stress="-0.0003756920341402292 -1.2197417298409619e-08 -1.23924221995253e-08 -1.2197417298409619e-08 -0.0003756695950869471 3.4672507087663007e-09 -1.23924221995253e-08 3.4672507087663007e-09 -0.0003756590886041522" pbc="T T T"
Pd       1.78328428       1.26097268       3.08873780       0.00000239       0.00000396      -0.00000134
Pd       5.34985147       3.78291574       9.26621433       0.00000230      -0.00000086       0.00000061
Co      -0.00000022       0.00000004      -0.00000003       0.00000143       0.00000024      -0.00000041
Se       1.90783343       1.34904218       6.17747639       0.00095086       0.00067393       0.00000135
Se       5.22530166       3.69484598       6.17747618      -0.00095218      -0.00067478      -0.00000013
Se       4.39593426       1.34904212       4.74097004      -0.00047733       0.00067361       0.00082311
Se       2.73720024       3.69484577       7.61398177       0.00047363      -0.00067361      -0.00082399
Se       2.73720039       3.69484591       4.74097018       0.00047545      -0.00067447       0.00082403
Se       4.39593412       1.34904208       7.61398187      -0.00047648       0.00067206      -0.00082332
