9
Lattice="5.758310732067262 2.3597854378203797e-07 3.324562325603946 1.919437132114805 5.428987921211559 3.324562327434861 5.995320447955577e-08 4.4635742065644346e-08 6.649124547365954" Properties=species:S:1:pos:R:3:forces:R:3 energy=-24.209484100341797 free_energy=-24.209484100341797 stress="-4.866466042585671e-05 6.482791192752302e-09 1.5822767096551615e-08 6.482791192752302e-09 -4.8732101276982576e-05 -2.1719239740036755e-08 1.5822767096551615e-08 -2.1719239740036755e-08 -4.8659498133929446e-05" pbc="T T T"
Pd       1.91943721       1.35724656       3.32456329      -0.00000071      -0.00000082       0.00000171
Pd       5.75831108       4.07174212       9.97368663      -0.00000013       0.00000502      -0.00000151
C        0.00000680      -0.00000558       0.00000035       0.00007361      -0.00006619       0.00000214
Cl       1.74872635       1.23653636       6.64912413       0.00763191       0.00540351       0.00000129
Cl       5.92901987       4.19245147       6.64912432      -0.00765612      -0.00540720       0.00000171
Cl       4.88394597       1.23653809       4.83900572      -0.00383575       0.00542262       0.00663340
Cl       2.79379922       4.19245280       8.45924656       0.00381291      -0.00538966      -0.00660782
Cl       2.79379888       4.19245295       4.83900267       0.00380882      -0.00538986       0.00660405
Cl       4.88394634       1.23653785       8.45924303      -0.00383470       0.00542271      -0.00663459
