9
Lattice="6.052548669070382 -9.306964076942468e-08 3.494440504363106 2.017516107855712 5.706397508776107 3.4944405518574415 -4.447283187709607e-08 2.672139839441036e-08 6.988881085755429" Properties=species:S:1:pos:R:3:forces:R:3 energy=-28.71894645690918 free_energy=-28.71894645690918 stress="1.0462717909831554e-05 -1.1646879904958496e-08 7.756817410609074e-09 -1.1646879904958496e-08 1.0464666047482751e-05 -1.2510147584521292e-08 7.756817410609074e-09 -1.2510147584521292e-08 1.047447403834667e-05" pbc="T T T"
Pd       2.01751609       1.42659958       3.49444071       0.00000049       0.00000090       0.00000138
Pd       6.05254979       4.27979818      10.48332187       0.00000371      -0.00000147       0.00000255
Cr      -0.00000071      -0.00000039      -0.00000101       0.00000589       0.00000412       0.00001641
Br       1.96689654       1.39080617       6.98888101      -0.00220282      -0.00155629       0.00000063
Br       6.10316797       4.31559153       6.98888081       0.00219697       0.00155295      -0.00000001
Br       5.06910008       1.39080644       5.19782317       0.00110260      -0.00156035      -0.00190926
Br       3.00096412       4.31559166       8.77993918      -0.00109813       0.00155094       0.00189942
Br       3.00096476       4.31559090       5.19782332      -0.00110538       0.00156079      -0.00191073
Br       5.06910029       1.39080566       8.77993961       0.00109672      -0.00155153       0.00189948
