9
Lattice="5.742996934592844 4.594783197083645e-08 3.3157206577122795 1.9143323133833787 5.414549303814421 3.315720729536206 5.7367925118221593e-08 1.2853126828261458e-07 6.631441216060401" Properties=species:S:1:pos:R:3:forces:R:3 energy=-26.466983795166016 free_energy=-26.466983795166016 stress="-0.00014901770919095725 1.197474297498502e-08 -1.928951931517986e-08 1.197474297498502e-08 -0.00014895672211423516 -8.950365781856817e-09 -1.928951931517986e-08 -8.950365781856817e-09 -0.00014896091306582093" pbc="T T T"
Pd       1.91433048       1.35363721       3.31572305      -0.00000779      -0.00000031       0.00000969
Pd       5.74299876       4.06091243       9.94716433       0.00000674       0.00000207       0.00001203
Co      -0.00000053      -0.00000006      -0.00000038       0.00000287       0.00000066       0.00000175
Cl       1.81933407       1.28646338       6.63144040      -0.00185677      -0.00131254      -0.00000422
Cl       5.83799548       4.12808638       6.63144016       0.00185350       0.00130937      -0.00000512
Cl       4.83333070       1.28646446       4.89131015       0.00093037      -0.00131227      -0.00160772
Cl       2.82399876       4.12808635       8.37157143      -0.00092964       0.00131308       0.00160047
Cl       2.82399871       4.12808524       4.89130977      -0.00092874       0.00131218      -0.00160828
Cl       4.83333090       1.28646261       8.37157150       0.00092942      -0.00131220       0.00160128
