9
Lattice="4.865028388168661 1.9347872678429955e-08 2.808825502699399 1.6216761577786494 4.586793197939661 2.808825485122984 5.094115642031168e-08 1.4494199531844236e-08 5.617650917166164" Properties=species:S:1:pos:R:3:forces:R:3 energy=-34.65517807006836 free_energy=-34.65517807006836 stress="8.281484042527154e-05 6.856385681430766e-08 -1.773426383522292e-08 6.856385681430766e-08 8.266555960290134e-05 -4.721487556480497e-08 -1.773426383522292e-08 -4.721487556480497e-08 8.285285002784804e-05" pbc="T T T"
Pd       1.62167650       1.14669982       2.80882544       0.00000138       0.00001391       0.00000022
Pd       4.86502790       3.44009351       8.42647739      -0.00000346      -0.00001369       0.00000644
Ca       0.00000001      -0.00000004       0.00000010      -0.00000292      -0.00000324      -0.00000249
F        1.71515281       1.21279692       5.61765088      -0.00239589      -0.00168981      -0.00000014
F        4.77155159       3.37399608       5.61765090       0.00240130       0.00169221      -0.00000269
F        4.00745216       1.21279716       4.29419105       0.00119605      -0.00168576      -0.00207665
F        2.47925271       3.37399630       6.94111071      -0.00119843       0.00168895       0.00207717
F        2.47925287       3.37399658       4.29419115      -0.00119580       0.00168964      -0.00207675
F        4.00745178       1.21279665       6.94111020       0.00119767      -0.00169208       0.00207524
