9
Lattice="4.454494197025448 -7.289517458385658e-08 2.5718034408096044 1.484831362593863 4.199737228435962 2.571803384844252 1.308574317832559e-09 -6.761797327192006e-08 5.14360687935268" Properties=species:S:1:pos:R:3:forces:R:3 energy=-41.75492477416992 free_energy=-41.75492477416992 stress="-0.0005224901833571494 2.228704154561001e-08 -6.777126770884934e-08 2.228704154561001e-08 -0.0005225884960964322 -3.895583589041962e-08 -6.777126770884934e-08 -3.895583589041962e-08 -0.0005225317436270416" pbc="T T T"
Pd       1.48483437       1.04993300       2.57180671       0.00002863      -0.00001476       0.00003456
Pd       4.45449644       3.14980687       7.71540741       0.00002308       0.00004360      -0.00003143
Co      -0.00000016      -0.00000002       0.00000005       0.00000219      -0.00000138      -0.00000007
O        1.47685801       1.04429516       5.14360506       0.00579172       0.00408316      -0.00001540
O        4.46246722       3.15544165       5.14360765      -0.00579852      -0.00408679       0.00001057
O        3.71606291       1.04429384       3.85079989      -0.00292102       0.00407428       0.00501925
O        2.22326038       3.15544185       6.43641395       0.00289539      -0.00408518      -0.00501776
O        2.22325845       3.15544094       3.85080022       0.00288001      -0.00409788       0.00501949
O        3.71606469       1.04429518       6.43641385      -0.00290173       0.00408471      -0.00501901
