9
Lattice="5.987140235088684 1.0617098812081109e-07 3.4566771160571053 1.9957135179021743 5.644730097122726 3.4566771054795424 -2.758397812465771e-08 -3.245967409036366e-08 6.913354279891046" Properties=species:S:1:pos:R:3:forces:R:3 energy=-21.91921615600586 free_energy=-21.91921615600586 stress="-9.887412306852639e-05 3.3280098676868874e-08 -2.506408414149064e-09 3.3280098676868874e-08 -9.881072037387639e-05 -7.619941122527507e-09 -2.506408414149064e-09 -7.619941122527507e-09 -9.881894948193803e-05" pbc="T T T"
Pd       1.99571450       1.41118284       3.45667779       0.00000475       0.00000294       0.00000420
Pd       5.98714174       4.23354837      10.37003377       0.00000598       0.00000033       0.00000864
C        0.00000085      -0.00000016       0.00000163       0.00000213      -0.00000146       0.00000214
Br       1.89594531       1.34063602       6.91335364       0.00019023       0.00013493      -0.00000043
Br       6.08690803       4.30409407       6.91335321      -0.00019652      -0.00013666      -0.00000321
Br       5.03916700       1.34063610       5.09861339      -0.00009792       0.00013769       0.00016430
Br       2.94368528       4.30409372       8.72809387       0.00009601      -0.00013912      -0.00017193
Br       2.94368549       4.30409403       5.09861322       0.00009570      -0.00013551       0.00016573
Br       5.03916677       1.34063577       8.72809355      -0.00010046       0.00013667      -0.00016963
