9
Lattice="5.659356858062825 4.716542263493303e-08 3.2674311652134205 1.8864523679933332 5.335692828122496 3.267431100253856 9.265929650863389e-08 -1.4038810397199274e-08 6.534862169936163" Properties=species:S:1:pos:R:3:forces:R:3 energy=-23.152992248535156 free_energy=-23.152992248535156 stress="6.157326424727216e-05 -2.924758435440822e-09 2.4631330308722e-09 -2.924758435440822e-09 6.156235031085089e-05 5.210679443479194e-09 2.4631330308722e-09 5.210679443479194e-09 6.158377073006704e-05" pbc="T T T"
Pd       1.88645159       1.33392317       3.26743147      -0.00000241       0.00000164       0.00000107
Pd       5.65935748       4.00177011       9.80229367       0.00000275       0.00000260       0.00000240
Cu      -0.00000021      -0.00000075      -0.00000042       0.00000209       0.00001169       0.00000235
Cl       1.87477285       1.32566417       6.53486210      -0.00435114      -0.00307730      -0.00000005
Cl       5.67103746       4.01002864       6.53486209       0.00434214       0.00306937       0.00000001
Cl       4.72197089       1.32566445       4.89103157       0.00217646      -0.00307563      -0.00376770
Cl       2.82383806       4.01002898       8.17869328      -0.00217316       0.00307104       0.00375947
Cl       2.82383804       4.01002875       4.89103127      -0.00217280       0.00307277      -0.00376284
Cl       4.72197114       1.32566388       8.17869272       0.00217593      -0.00307611       0.00376472
