9
Lattice="5.0639849549371485 -1.7365547751969417e-07 2.9236929871245763 1.6879948216128449 4.774370148292972 2.9236929865049297 2.2816202867408085e-08 1.537457752825537e-08 5.847385934730336" Properties=species:S:1:pos:R:3:forces:R:3 energy=-39.972557067871094 free_energy=-39.972557067871094 stress="-6.515891436720267e-05 1.0376759895791565e-08 1.4081408927779648e-08 1.0376759895791565e-08 -6.464328180300072e-05 -8.590943956221508e-09 1.4081408927779648e-08 -8.590943956221508e-09 -6.503605254692957e-05" pbc="T T T"
Pd       1.68799506       1.19359267       2.92369304       0.00000245       0.00000317       0.00000146
Pd       5.06398677       3.58077813       8.77108080       0.00002176       0.00000745       0.00002122
Cr      -0.00000010      -0.00000010      -0.00000035      -0.00000133      -0.00000096       0.00000681
S        1.78079992       1.25921589       5.84738564      -0.00091615      -0.00064433      -0.00000244
S        4.97117967       3.51515396       5.84738522       0.00091335       0.00064397      -0.00000591
S        4.17358495       1.25921582       4.46591164       0.00046222      -0.00065047      -0.00079486
S        2.57839415       3.51515443       7.22885977      -0.00046617       0.00064331       0.00078294
S        2.57839478       3.51515399       4.46591142      -0.00046343       0.00064918      -0.00079617
S        4.17358397       1.25921509       7.22886044       0.00044720      -0.00065121       0.00078690
