9
Lattice="4.635816439045803 4.834125267695106e-08 2.6764897482295975 1.5452722633462463 4.370689082064911 2.6764896245246934 2.3551030791312348e-07 1.5023976064359368e-08 5.352979088543394" Properties=species:S:1:pos:R:3:forces:R:3 energy=-41.72209930419922 free_energy=-41.72209930419922 stress="0.0007071049185469747 4.9093429765889596e-08 1.6812931491472227e-08 4.9093429765889596e-08 0.0007070140563882887 2.558610212588519e-09 1.6812931491472227e-08 2.558610212588519e-09 0.0007070361752994359" pbc="T T T"
Pd       1.54527242       1.09267175       2.67649018       0.00000078      -0.00000436       0.00000433
Pd       4.63581645       3.27801720       8.02946818      -0.00000063       0.00000349      -0.00000407
Cr       0.00000000       0.00000006       0.00000005       0.00000052       0.00000101       0.00000256
F        1.53542662       1.08571034       5.35297926       0.00261158       0.00184712       0.00000031
F        4.64566209       3.28497880       5.35297966      -0.00261240      -0.00184659      -0.00000156
F        3.86810263       1.08571003       4.00620793      -0.00130708       0.00184551       0.00226104
F        2.31298642       3.28497909       6.69975057       0.00130705      -0.00184521      -0.00226230
F        2.31298549       3.28497897       4.00620787       0.00130652      -0.00184705       0.00226255
F        3.86810354       1.08571044       6.69975034      -0.00130643       0.00184613      -0.00226286
