9
Lattice="4.257338488677989 9.170840702317271e-08 2.457975678696612 1.4191129083334515 4.013857402087461 2.4579756920150135 3.718167678249032e-08 4.2603073590195466e-08 4.915951292992681" Properties=species:S:1:pos:R:3:forces:R:3 energy=-36.77344512939453 free_energy=-36.77344512939453 stress="0.0001533508038846776 8.851249333474698e-08 -3.562778161381175e-08 8.851249333474698e-08 0.00015323366096708924 -4.879027848403439e-09 -3.562778161381175e-08 -4.879027848403439e-09 0.00015347154112532735" pbc="T T T"
Pd       1.41911288       1.00346443       2.45797602       0.00000076       0.00000049      -0.00000003
Pd       4.25733878       3.01039307       7.37392695      -0.00000209       0.00000001       0.00000021
C       -0.00000002       0.00000005       0.00000026      -0.00000043       0.00000261      -0.00000553
F        1.27199556       0.89943670       4.91595151       0.00503355       0.00355799       0.00000164
F        4.40445569       3.11442090       4.91595133      -0.00502945      -0.00355931      -0.00000045
F        3.62134064       0.89943691       3.55955648      -0.00251491       0.00355719       0.00435521
F        2.05511067       3.11442109       6.27234620       0.00251640      -0.00356348      -0.00434977
F        2.05511050       3.11442046       3.55955620       0.00251696      -0.00355808       0.00435418
F        3.62134087       0.89943688       6.27234637      -0.00252105       0.00356317      -0.00435480
