9
Lattice="6.346731478184301 7.923232327109034e-08 3.664287156432898 2.1155771807574886 5.983755960197719 3.664287248817441 -3.0476487917349554e-08 9.159735390943886e-08 7.3285743656526" Properties=species:S:1:pos:R:3:forces:R:3 energy=-22.280105590820312 free_energy=-22.280105590820312 stress="7.107387500582263e-05 2.360869499895557e-09 -3.7053551338317448e-09 2.360869499895557e-09 7.107912097126245e-05 2.74612110828798e-09 -3.7053551338317448e-09 2.74612110828798e-09 7.108763384167105e-05" pbc="T T T"
Pd       2.11557704       1.49593921       3.66428712      -0.00000040       0.00000091      -0.00000029
Pd       6.34673102       4.48781658      10.99286129      -0.00000152      -0.00000095      -0.00000014
Co      -0.00000001       0.00000012       0.00000012       0.00000026       0.00000001       0.00000029
I        2.10942883       1.49159127       7.32857441      -0.00131778      -0.00093274       0.00000053
I        6.35288006       4.49216474       7.32857441       0.00131872       0.00093307      -0.00000031
I        5.29201739       1.49159144       5.49110591       0.00066034      -0.00093258      -0.00114132
I        3.17029161       4.49216476       9.16604291      -0.00065913       0.00093212       0.00114139
I        3.17029130       4.49216461       5.49110584      -0.00065984       0.00093203      -0.00114167
I        5.29201727       1.49159175       9.16604305       0.00065937      -0.00093195       0.00114156
