9
Lattice="6.164181027121161 1.934025828026385e-07 3.5588915906540293 2.054727217404987 5.811645685060115 3.558891545581036 5.8751351041973206e-08 -1.3659418633107639e-08 7.117783079547667" Properties=species:S:1:pos:R:3:forces:R:3 energy=-27.66896629333496 free_energy=-27.66896629333496 stress="0.00014143685984890908 4.475170101159165e-08 2.3160531270605134e-08 4.475170101159165e-08 0.00014141233987174928 -6.627688975413548e-08 2.3160531270605134e-08 -6.627688975413548e-08 0.0001413552527083084" pbc="T T T"
Pd       2.05472727       1.45291144       3.55889133       0.00000031      -0.00000028      -0.00000080
Pd       6.16418082       4.35873379      10.67667436      -0.00000043      -0.00000217      -0.00000239
Fe       0.00000012       0.00000015       0.00000006      -0.00000503       0.00001113       0.00000302
Br       1.84162774       1.30222734       7.11778296      -0.00212486      -0.00150220       0.00000083
Br       6.37728072       4.50941844       7.11778318       0.00212318       0.00150216       0.00000083
Br       5.24336762       1.30222722       5.15378754       0.00106023      -0.00149871      -0.00183578
Br       2.97554040       4.50941876       9.08177931      -0.00105499       0.00149302       0.00182766
Br       2.97554105       4.50941862       5.15378751      -0.00106053       0.00149940      -0.00183472
Br       5.24336748       1.30222780       9.08177854       0.00106210      -0.00150204       0.00184155
