9
Lattice="6.41868410126856 1.8035392408120573e-08 3.7058290626500456 2.139561375147672 6.051593243093036 3.7058290781446654 -6.099304897014505e-08 -2.415161497665175e-08 7.411658230943117" Properties=species:S:1:pos:R:3:forces:R:3 energy=-24.731292724609375 free_energy=-24.731292724609375 stress="6.774734356440604e-05 6.936561547377096e-09 1.216468525910841e-08 6.936561547377096e-09 6.7722394305747e-05 5.049175300086972e-09 1.216468525910841e-08 5.049175300086972e-09 6.77472198731266e-05" pbc="T T T"
Pd       2.13956199       1.51289814       3.70582895       0.00000047      -0.00000071      -0.00000057
Pd       6.41868321       4.53869434      11.11748759      -0.00000123      -0.00000108       0.00000084
Fe      -0.00000005       0.00000001      -0.00000038       0.00000070       0.00000250       0.00000536
I        1.96146756       1.38696745       7.41165821      -0.00068615      -0.00048601      -0.00000073
I        6.59677774       4.66462663       7.41165810       0.00068484       0.00048509      -0.00000067
I        5.43795050       1.38696701       5.40450993       0.00034241      -0.00048390      -0.00059609
I        3.12029522       4.66462603       9.41880661      -0.00034133       0.00048333       0.00059261
I        3.12029508       4.66462641       5.40450979      -0.00034226       0.00048497      -0.00059478
I        5.43795049       1.38696691       9.41880653       0.00034266      -0.00048426       0.00059367
