9
Lattice="6.161755092927405 4.683611237781596e-08 3.5574907450718753 2.053918415414223 5.809358307061005 3.5574907330383185 9.572739467723537e-08 5.295145833541194e-08 7.114981324339063" Properties=species:S:1:pos:R:3:forces:R:3 energy=-27.668970108032227 free_energy=-27.668970108032227 stress="3.087967343162745e-05 8.374957616297252e-09 -1.679846661772899e-08 8.374957616297252e-09 3.081991235376336e-05 -3.2994542209507927e-08 -1.679846661772899e-08 -3.2994542209507927e-08 3.079702946706675e-05" pbc="T T T"
Pd       2.05391844       1.45233949       3.55749132       0.00000004      -0.00000077       0.00000120
Pd       6.16175484       4.35701875      10.67247106      -0.00000203       0.00000074      -0.00000353
Fe       0.00000010      -0.00000010       0.00000006      -0.00000639       0.00000621       0.00000447
Br       1.84176771       1.30232587       7.11498096      -0.00356932      -0.00252280       0.00000085
Br       6.37390586       4.50703257       7.11498186       0.00357285       0.00252540       0.00000052
Br       5.24087146       1.30232635       5.15250806       0.00178616      -0.00252450      -0.00309370
Br       2.97480221       4.50703197       9.07745506      -0.00178318       0.00251949       0.00308587
Br       2.97480210       4.50703218       5.15250821      -0.00178392       0.00252157      -0.00308834
Br       5.24087173       1.30232654       9.07745481       0.00178579      -0.00252540       0.00309248
