9
Lattice="5.32489017083713 -5.225726226272894e-09 3.074326787377471 1.7749633696296863 5.02035470027977 3.0743268146095066 -3.8763627479647487e-08 5.942354406623531e-09 6.148653641895557" Properties=species:S:1:pos:R:3:forces:R:3 energy=-37.54157638549805 free_energy=-37.54157638549805 stress="0.0002322427462786436 -2.4102741136289296e-08 -2.591815118080376e-08 -2.4102741136289296e-08 0.00023222299932967871 1.4417221860796303e-09 -2.591815118080376e-08 1.4417221860796303e-09 0.0002322379150427878" pbc="T T T"
Pd       1.77496640       1.25508823       3.07432645       0.00001708      -0.00000211      -0.00000291
Pd       5.32489188       3.76526659       9.22297940       0.00001395       0.00000276      -0.00000588
Fe      -0.00000021       0.00000007      -0.00000016      -0.00000037      -0.00000135       0.00000213
Se       1.87624247       1.32670504       6.14865382      -0.00815746      -0.00576231       0.00000153
Se       5.22361054       3.69365026       6.14865349       0.00815308       0.00576654      -0.00000012
Se       4.38676664       1.32670351       4.69920102       0.00406730      -0.00577107      -0.00706425
Se       2.71308485       3.69365029       7.59810612      -0.00407915       0.00576565       0.00706291
Se       2.71308399       3.69365080       4.69920231      -0.00408356       0.00576869      -0.00705796
Se       4.38676719       1.32670400       7.59810672       0.00406921      -0.00576666       0.00706491
