9
Lattice="5.782315873500077 -3.482086899461241e-07 3.338421455634334 1.9274383152782368 5.451619887096246 3.338421422599783 -2.103463595364844e-08 -5.5332647799765134e-08 6.676842947701781" Properties=species:S:1:pos:R:3:forces:R:3 energy=-28.94286346435547 free_energy=-28.94286346435547 stress="-0.00016744961612857878 -6.149330822324828e-09 2.603149917845826e-09 -6.149330822324828e-09 -0.0001674946688581258 8.878767165931833e-10 2.603149917845826e-09 8.878767165931833e-10 -0.00016741131548769772" pbc="T T T"
Pd       1.92743741       1.36290286       3.33842434      -0.00000539      -0.00000744       0.00001093
Pd       5.78231634       4.08871479      10.01526640       0.00000111      -0.00000037       0.00000623
Fe      -0.00000008      -0.00000011      -0.00000025       0.00000418       0.00000077      -0.00000013
Cl       1.81534085       1.28363954       6.67684179      -0.00239500      -0.00169390      -0.00000467
Cl       5.89441337       4.16798045       6.67684219       0.00239277       0.00169301      -0.00000403
Cl       4.87464539       1.28363983       4.91055177       0.00119992      -0.00169176      -0.00207719
Cl       2.83510843       4.16798065       8.44313231      -0.00120014       0.00169888       0.00207198
Cl       2.83510847       4.16798071       4.91055252      -0.00119774       0.00169599      -0.00207302
Cl       4.87464657       1.28363922       8.44313225       0.00120035      -0.00169533       0.00206959
