9
Lattice="4.556536628492771 -0.6415211444895673 3.4592425810513427 0.8527597221614159 5.024678230270136 3.5617208043488153 0.5193961149591927 0.3738481529045942 6.040428485095695" Properties=species:S:1:pos:R:3:forces:R:3 energy=-41.400447845458984 free_energy=-41.400447845458984 stress="-0.0019488092511892319 -0.00041709860670380294 -0.00010175336501561105 -0.00041709860670380294 -0.0005726393428631127 0.0004279458662495017 -0.00010175336501561105 0.0004279458662495017 -0.00083024991909042" pbc="T T T"
Pd      -0.05648217       2.01407313       3.01671267      -0.00842861      -0.03235159       0.02291995
Pd       6.01235038       2.73888987       9.98966719      -0.02988292       0.02705898       0.04012108
Fe      -0.00101296       0.00485287      -0.00240655      -0.04260091       0.00127955      -0.00353791
F        2.23284863       1.30519344       6.40377628       0.01284827      -0.01664804      -0.01467347
F        3.69196209       3.44548568       6.67981437       0.02583991       0.02421159      -0.02712707
F        4.13794281      -0.55472300       5.41053452       0.02157198      -0.02074389      -0.03541522
F        1.78406845       5.30687867       7.65740001      -0.01609418       0.04034647       0.02834369
F        1.57113561       3.23724893       3.83332451       0.01914805       0.01876695      -0.03022389
F        4.34181930       1.53090242       9.25751703       0.01759850      -0.04192002       0.01959287
