9
Lattice="5.786021801105019 -6.99850784598893e-08 3.340561259759124 1.9286739367731895 5.455113102553092 3.3405611401539437 1.3089343092625136e-07 -5.393012258453539e-08 6.6811222928041385" Properties=species:S:1:pos:R:3:forces:R:3 energy=-28.94289779663086 free_energy=-28.94289779663086 stress="8.268599049188197e-05 -1.3200461834728117e-09 -8.17539458353167e-09 -1.3200461834728117e-09 8.262607298092917e-05 -1.0777498893332904e-08 -8.17539458353167e-09 -1.0777498893332904e-08 8.263380732387304e-05" pbc="T T T"
Pd       1.92867594       1.36377886       3.34056033       0.00000776       0.00000167      -0.00000231
Pd       5.78602309       4.09133422      10.02168405       0.00000385      -0.00000053       0.00000067
Fe      -0.00000025      -0.00000004       0.00000001       0.00000365       0.00000111      -0.00000418
Cl       1.81513462       1.28349408       6.68112228      -0.00086489      -0.00060901       0.00000080
Cl       5.89956068       4.17161919       6.68112232       0.00086084       0.00060990      -0.00000100
Cl       4.87845392       1.28349379       4.91251367       0.00042793      -0.00060758      -0.00074625
Cl       2.83624090       4.17161842       8.44973112      -0.00043511       0.00060865       0.00074872
Cl       2.83624093       4.17161914       4.91251381      -0.00043225       0.00060612      -0.00074503
Cl       4.87845366       1.28349410       8.44973115       0.00042810      -0.00061038       0.00074914
