9
Lattice="6.417668577946405 2.0149937314983156e-08 3.7052427616211676 2.1392228654180885 6.0506359863084365 3.7052427839559265 1.0203490321961345e-07 9.950402635459768e-08 7.410485346512491" Properties=species:S:1:pos:R:3:forces:R:3 energy=-24.731294631958008 free_energy=-24.731294631958008 stress="-6.611212302232161e-05 -1.8516988831152048e-08 1.7706549115814596e-08 -1.8516988831152048e-08 -6.611464777961373e-05 -1.2389127057588212e-08 1.7706549115814596e-08 -1.2389127057588212e-08 -6.61025260342285e-05" pbc="T T T"
Pd       2.13922267       1.51265866       3.70524302      -0.00000042      -0.00000087       0.00000007
Pd       6.41766909       4.53797694      11.11572773       0.00000108      -0.00000105      -0.00000098
Fe      -0.00000014      -0.00000060      -0.00000020       0.00000030       0.00001077       0.00000360
I        1.96113305       1.38673050       7.41048548       0.00332164       0.00234941      -0.00000018
I        6.59575822       4.66390564       7.41048521      -0.00332481      -0.00235149       0.00000098
I        5.43710201       1.38673097       5.40363419      -0.00165920       0.00234502       0.00287439
I        3.11978951       4.66390565       9.41733714       0.00166245      -0.00235146      -0.00288003
I        3.11978973       4.66390553       5.40363394       0.00165883      -0.00234821       0.00287725
I        5.43710206       1.38673108       9.41733703      -0.00166010       0.00234799      -0.00287496
