9
Lattice="5.089098194064487 3.5487540585582903e-07 2.9381928160113064 1.6963664447845144 4.798048622595325 2.93819273717428 6.983380948088775e-08 -4.717531712516258e-08 5.876385511066916" Properties=species:S:1:pos:R:3:forces:R:3 energy=-38.93504333496094 free_energy=-38.93504333496094 stress="-5.559533747145906e-05 -6.429063148516434e-08 -1.628628254479736e-08 -6.429063148516434e-08 -5.5614622397115454e-05 7.472517049578187e-10 -1.628628254479736e-08 7.472517049578187e-10 -5.561206489801407e-05" pbc="T T T"
Pd       1.69636707       1.19951465       2.93819366       0.00000699       0.00002442       0.00000918
Pd       5.08909888       3.59853774       8.81457930       0.00000619       0.00001615       0.00000894
Fe       0.00000016      -0.00000032       0.00000004      -0.00000047       0.00000252      -0.00000378
S        1.76344213       1.24694140       5.87638561      -0.00207782      -0.00147468      -0.00000108
S        5.02202317       3.55110616       5.87638523       0.00207788       0.00146067      -0.00000332
S        4.20737652       1.24694176       4.46537810       0.00103289      -0.00147602      -0.00180614
S        2.57808682       3.55110664       7.28739242      -0.00104338       0.00146335       0.00179988
S        2.57808734       3.55110618       4.46537784      -0.00104058       0.00146016      -0.00180501
S        4.20737697       1.24694149       7.28739222       0.00103810      -0.00147665       0.00180089
