9
Lattice="4.609240945896452 -2.1296866536026602e-08 2.6611464516085857 1.5364136197441647 4.345634061572591 2.6611464668664073 -3.932816608280152e-08 -9.122246612274884e-09 5.322292971335565" Properties=species:S:1:pos:R:3:forces:R:3 energy=-38.762508392333984 free_energy=-38.762508392333984 stress="0.000329332600813359 1.6420633741631718e-08 -1.2255735093447129e-08 1.6420633741631718e-08 0.00032929115695878863 -9.927089372752107e-09 -1.2255735093447129e-08 -9.927089372752107e-09 0.0003293281188234687" pbc="T T T"
Pd       1.53641359       1.08640874       2.66114655       0.00000008       0.00000183       0.00000163
Pd       4.60924097       3.25922532       7.98343934      -0.00000103      -0.00000080       0.00000059
Fe      -0.00000004       0.00000013       0.00000001      -0.00000309      -0.00000486      -0.00000106
F        1.54894396       1.09526886       5.32229298      -0.00172639      -0.00122100       0.00000026
F        4.59671033       3.25036492       5.32229294       0.00173348       0.00122495      -0.00000028
F        3.83476896       1.09526888       4.00257121       0.00086330      -0.00122142      -0.00149480
F        2.31088564       3.25036521       6.64201458      -0.00086559       0.00122155       0.00149551
F        2.31088573       3.25036497       4.00257129      -0.00086516       0.00122169      -0.00149816
F        3.83476900       1.09526908       6.64201467       0.00086451      -0.00122197       0.00149602
