9
Lattice="4.751603704188987 -1.923081841772399e-08 2.7433396623221045 1.5838679044818484 4.479855232597239 2.7433396255740066 5.2754839753292754e-08 -7.703755599249104e-09 5.4866792332701175" Properties=species:S:1:pos:R:3:forces:R:3 energy=-38.804908752441406 free_energy=-38.804908752441406 stress="-0.00035070336889475584 -7.628769616019326e-09 7.84056020108892e-09 -7.628769616019326e-09 -0.0003507366927806288 -1.8076300456471017e-09 7.84056020108892e-09 -1.8076300456471017e-09 -0.0003507387009449303" pbc="T T T"
Pd       1.58386775       1.11996377       2.74333987      -0.00000023       0.00000059       0.00000136
Pd       4.75160391       3.35989168       8.23001894       0.00000088       0.00000117       0.00000026
Ge       0.00000003      -0.00000009      -0.00000001       0.00000036       0.00000134       0.00000060
F        1.50692556       1.06555706       5.48667906       0.00526607       0.00372344      -0.00000043
F        4.82854619       3.41429791       5.48667918      -0.00526565      -0.00372398       0.00000044
F        3.99814076       1.06555736       4.04837524      -0.00263318       0.00372255       0.00456059
F        2.33733057       3.41429796       6.92498290       0.00263304      -0.00372446      -0.00456226
F        2.33733086       3.41429786       4.04837531       0.00263137      -0.00372386       0.00456053
F        3.99814110       1.06555721       6.92498305      -0.00263286       0.00372332      -0.00456125
