9
Lattice="6.101073311722713 2.665534093361865e-08 3.5224562407742623 2.0336910840462274 5.752146998145352 3.522456318703094 -1.631652332120028e-08 8.39054068772488e-08 7.044912509809533" Properties=species:S:1:pos:R:3:forces:R:3 energy=-22.930927276611328 free_energy=-22.930927276611328 stress="-2.8207858122186735e-05 1.6863442198200573e-08 8.937842466139045e-09 1.6863442198200573e-08 -2.8197506253491156e-05 4.330952929620935e-09 8.937842466139045e-09 4.330952929620935e-09 -2.821946873154957e-05" pbc="T T T"
Pd       2.03369108       1.43803707       3.52245501       0.00000022       0.00000089      -0.00000464
Pd       6.10107303       4.31411019      10.56736800      -0.00000204      -0.00000077      -0.00000339
Ge      -0.00000002      -0.00000011       0.00000030       0.00000035      -0.00000123       0.00000211
Br       1.97528266       1.39673591       7.04491292      -0.00285487      -0.00201939       0.00000182
Br       6.15948190       4.35541113       7.04491234       0.00285594       0.00201941       0.00000209
Br       5.11343172       1.39673539       5.23310141       0.00142657      -0.00201915      -0.00247018
Br       3.02133234       4.35541111       8.85672430      -0.00142490       0.00201728       0.00247176
Br       3.02133276       4.35541163       5.23310139      -0.00142741       0.00201920      -0.00247127
Br       5.11343210       1.39673606       8.85672463       0.00142610      -0.00201631       0.00247172
