9
Lattice="4.7559560335714135 -4.9648869079828036e-08 2.7458524931508483 1.585318618078236 4.48395831000307 2.7458525156146805 -3.214782501609781e-08 4.780517896139084e-09 5.491705041983358" Properties=species:S:1:pos:R:3:forces:R:3 energy=-38.80485534667969 free_energy=-38.80485534667969 stress="0.0007104374235495925 -2.2626972295825e-08 1.8067204621274868e-08 -2.2626972295825e-08 0.0007104297401383519 -6.2284213342422845e-09 1.8067204621274868e-08 -6.2284213342422845e-09 0.0007104273536242545" pbc="T T T"
Pd       1.58531899       1.12098998       2.74585249       0.00000291       0.00000121      -0.00000026
Pd       4.75595595       3.36296835       8.23755746       0.00000023      -0.00000121       0.00000027
Ge      -0.00000012      -0.00000028       0.00000017      -0.00000076       0.00000375      -0.00000121
F        1.50779798       1.06617396       5.49170524      -0.00706869      -0.00499660      -0.00000055
F        4.83347670       3.41778432       5.49170512       0.00706744       0.00499570      -0.00000014
F        4.00205682       1.06617428       4.05164359       0.00353354      -0.00499701      -0.00611985
F        2.33921746       3.41778393       6.93176624      -0.00353476       0.00499678       0.00612068
F        2.33921771       3.41778402       4.05164371      -0.00353625       0.00499636      -0.00612098
F        4.00205695       1.06617449       6.93176613       0.00353587      -0.00499910       0.00612235
