9
Lattice="6.578991212417574 4.004201141288954e-08 3.798382395015571 2.1929971120942553 6.202732388306454 3.7983823888903068 1.3594673420349106e-09 -6.540608342687731e-09 7.596764787676538" Properties=species:S:1:pos:R:3:forces:R:3 energy=-20.012975692749023 free_energy=-20.012975692749023 stress="-4.4115509808762e-05 -3.1299732250467116e-10 -1.8520367461860587e-09 -3.1299732250467116e-10 -4.412249109009281e-05 4.764365790776992e-09 -1.8520367461860587e-09 4.764365790776992e-09 -4.4124284613644704e-05" pbc="T T T"
Pd       2.19299662       1.55068316       3.79838293      -0.00000064       0.00000061       0.00000096
Pd       6.57899147       4.65204921      11.39514795       0.00000019      -0.00000051       0.00000276
Ge      -0.00000003      -0.00000004       0.00000027      -0.00000060       0.00000017      -0.00000014
I        2.29869681       1.62542445       7.59676440       0.00528355       0.00373721      -0.00000042
I        6.47329144       4.57730782       7.59676455      -0.00528286      -0.00373672      -0.00000080
I        5.42964287       1.62542412       5.78911195      -0.00264138       0.00373603       0.00457500
I        3.34234547       4.57730864       9.40441725       0.00264134      -0.00373575      -0.00457641
I        3.34234569       4.57730839       5.78911194       0.00264223      -0.00373626       0.00457531
I        5.42964291       1.62542391       9.40441713      -0.00264183       0.00373521      -0.00457628
