9
Lattice="6.580834538703817 -1.1076303223772167e-07 3.7994468151129714 2.19361146386332 6.204470167708443 3.799446719173963 9.022013790907755e-08 -5.370558855466943e-08 7.5988934739601" Properties=species:S:1:pos:R:3:forces:R:3 energy=-20.01300621032715 free_energy=-20.01300621032715 stress="5.280202822177671e-05 -1.1814630163087259e-08 8.042298382804347e-09 -1.1814630163087259e-08 5.2801558922510594e-05 1.5675428732819796e-09 8.042298382804347e-09 1.5675428732819796e-09 5.281889752950519e-05" pbc="T T T"
Pd       2.19361154       1.55111763       3.79944675      -0.00000053      -0.00000008       0.00000089
Pd       6.58083446       4.65335288      11.39833904       0.00000020       0.00000025      -0.00000311
Ge       0.00000025      -0.00000010       0.00000018      -0.00000107      -0.00000035      -0.00000017
I        2.30138185       1.62732252       7.59889339      -0.00166699      -0.00117888       0.00000043
I        6.47306406       4.57714762       7.59889389       0.00166784       0.00117920       0.00000093
I        5.43014351       1.62732246       5.79250223       0.00083410      -0.00117962      -0.00144406
I        3.34430246       4.57714727       9.40528528      -0.00083308       0.00117847       0.00144476
I        3.34430241       4.57714717       5.79250226      -0.00083434       0.00117956      -0.00144450
I        5.43014384       1.62732256       9.40528503       0.00083393      -0.00117861       0.00144482
