9
Lattice="5.539467240456049 -6.243627541039991e-08 3.1982130282116534 1.8464890613727813 5.2226598426317805 3.198212958780271 5.066681923433569e-08 -4.920885085385834e-08 6.396425968665802" Properties=species:S:1:pos:R:3:forces:R:3 energy=-32.75448226928711 free_energy=-32.75448226928711 stress="6.982046761550009e-05 -1.2570490204311113e-09 -4.657356722503891e-10 -1.2570490204311113e-09 6.981211481615901e-05 -1.1257432319666805e-08 -4.657356722503891e-10 -1.1257432319666805e-08 6.980656326049939e-05" pbc="T T T"
Pd       1.84648880       1.30566542       3.19821320      -0.00000064       0.00000290       0.00000025
Pd       5.53946755       3.91699471       9.59464015       0.00000118      -0.00000043       0.00000392
Ge       0.00000012      -0.00000011       0.00000034       0.00000046      -0.00000152      -0.00000278
Se       2.12531756       1.50282669       6.39642603       0.00562036       0.00397590       0.00000095
Se       5.26063858       3.71983349       6.39642533      -0.00562184      -0.00397523      -0.00000187
Se       4.47680850       1.50282660       5.03879199      -0.00280991       0.00397548       0.00486799
Se       2.90914760       3.71983276       7.75405962       0.00280891      -0.00397551      -0.00486761
Se       2.90914795       3.71983300       5.03879208       0.00281037      -0.00397539       0.00486758
Se       4.47680867       1.50282638       7.75405920      -0.00280887       0.00397384      -0.00486840
