9
Lattice="5.338309819963077 2.962631250507893e-08 3.082074618341131 1.7794366648787159 5.03300671915141 3.08207456587313 2.1511191671912308e-08 -4.904918857830203e-08 6.16414919942378" Properties=species:S:1:pos:R:3:forces:R:3 energy=-31.942506790161133 free_energy=-31.942506790161133 stress="0.0002584984467830509 5.549301462792755e-08 5.34149946496143e-10 5.549301462792755e-08 0.0002584867470432073 7.316498518150638e-09 5.34149946496143e-10 7.316498518150638e-09 0.00025845045456662774" pbc="T T T"
Pd       1.77943785       1.25825210       3.08207468       0.00001675       0.00000714      -0.00000018
Pd       5.33831015       3.77475460       9.24622089       0.00000280      -0.00001035      -0.00004155
Ge      -0.00000012      -0.00000015      -0.00000025      -0.00000041       0.00000334       0.00000453
S        1.87549507       1.32617506       6.16414922       0.00499320       0.00353166      -0.00000143
S        5.24225206       3.70683051       6.16415118      -0.00498933      -0.00353822       0.00002637
S        4.40056121       1.32617523       4.70630004      -0.00251046       0.00352752       0.00431794
S        2.71718463       3.70683181       7.62199774       0.00250483      -0.00353366      -0.00432473
S        2.71718324       3.70683146       4.70630127       0.00248569      -0.00353470       0.00433058
S        4.40056187       1.32617608       7.62199872      -0.00250298       0.00354734      -0.00431192
