9
Lattice="5.819193475776687 -1.9415346241504777e-07 3.3597130240023114 1.9397310143102706 5.486387012651394 3.3597129568547444 1.1387884320873077e-07 -1.7141772044618415e-09 6.719425850760675" Properties=species:S:1:pos:R:3:forces:R:3 energy=-26.349807739257812 free_energy=-26.349807739257812 stress="-5.2016971494595055e-06 -3.6540892978109696e-08 -2.7809205604967246e-08 -3.6540892978109696e-08 -5.1100550990668125e-06 -1.620432144022743e-08 -2.7809205604967246e-08 -1.620432144022743e-08 -5.233985120867146e-06" pbc="T T T"
Pd       1.93973139       1.37159772       3.35971325       0.00000080       0.00000586       0.00000085
Pd       5.81919444       4.11479012      10.07913855       0.00000317      -0.00000093      -0.00000094
Ge      -0.00000021       0.00000004       0.00000021       0.00000171      -0.00000398       0.00000090
Cl       1.85135212       1.30910388       6.71942586      -0.00013754      -0.00009651       0.00000024
Cl       5.90757211       4.17728289       6.71942601       0.00013721       0.00009410      -0.00000070
Cl       4.89351667       1.30910368       4.96303102       0.00006881      -0.00009565      -0.00011817
Cl       2.86540756       4.17728255       8.47582072      -0.00007172       0.00009780       0.00012231
Cl       2.86540680       4.17728288       4.96303144      -0.00007042       0.00009628      -0.00011903
Cl       4.89351759       1.30910341       8.47582030       0.00006798      -0.00009675       0.00011462
