9
Lattice="5.822254213107269 3.8313725510785236e-07 3.3614803002726905 1.9407516952590065 5.489274398761377 3.3614804220970456 6.53017912887775e-08 1.9537909243509076e-07 6.722960487439443" Properties=species:S:1:pos:R:3:forces:R:3 energy=-26.349777221679688 free_energy=-26.349777221679688 stress="0.0002837984939105809 -1.7647261429942773e-08 -8.129524786681941e-08 -1.7647261429942773e-08 0.0002837579231709242 4.656338425945705e-09 -8.129524786681941e-08 4.656338425945705e-09 0.0002836995117831975" pbc="T T T"
Pd       1.94075155       1.37231773       3.36148148       0.00000064      -0.00000202       0.00000387
Pd       5.82225315       4.11695474      10.08444035      -0.00000399      -0.00000464      -0.00000324
Ge       0.00000028       0.00000041      -0.00000013      -0.00000704      -0.00000538       0.00000626
Cl       1.85150424       1.30921194       6.72295978      -0.00306499      -0.00216638      -0.00000085
Cl       5.91150108       4.18006376       6.72296082       0.00307336       0.00217551       0.00000093
Cl       4.89650217       1.30921196       4.96493042       0.00153592      -0.00217299      -0.00266162
Cl       2.86650469       4.18006362       8.48099110      -0.00153296       0.00216983       0.00265658
Cl       2.86650380       4.18006317       4.96492995      -0.00153352       0.00216886      -0.00265631
Cl       4.89650309       1.30921244       8.48099135       0.00153267      -0.00216289       0.00265452
