9
Lattice="6.10415867408143 7.796515813968688e-08 3.524237637633148 2.0347197150839564 5.755055757387825 3.524237492919398 3.804143937988227e-07 9.175622249162555e-08 7.048474616369271" Properties=species:S:1:pos:R:3:forces:R:3 energy=-22.93091583251953 free_energy=-22.93091583251953 stress="0.000210339087061584 8.186868072357356e-09 1.1819114575928324e-08 8.186868072357356e-09 0.0002103202132275328 -2.6259346697088404e-08 1.1819114575928324e-08 -2.6259346697088404e-08 0.00021034882229287177" pbc="T T T"
Pd       2.03471804       1.43876370       3.52423646      -0.00000537      -0.00000088      -0.00000344
Pd       6.10415930       4.31629350      10.57270963       0.00000027       0.00000593      -0.00000912
Ge       0.00000056      -0.00000057       0.00000051      -0.00000925       0.00000726      -0.00000348
Br       1.97530923       1.39675383       7.04847519      -0.00240462      -0.00170057       0.00000085
Br       6.16356970       4.35830143       7.04847604       0.00240716       0.00170305       0.00000164
Br       5.11650507       1.39675308       5.23490592       0.00120375      -0.00170239      -0.00208214
Br       3.02237465       4.35830224       8.86204581      -0.00119986       0.00169830       0.00207908
Br       3.02237379       4.35830206       5.23490509      -0.00120016       0.00169772      -0.00207490
Br       5.11650477       1.39675439       8.86204435       0.00120820      -0.00170841       0.00209141
