9
Lattice="6.657569433647886 9.481952784937344e-09 3.8437494085383825 2.2191897914258165 6.276816576363218 3.8437494582998535 -3.6356473506199357e-08 3.523719436827106e-08 7.687498880047947" Properties=species:S:1:pos:R:3:forces:R:3 energy=-14.968406677246094 free_energy=-14.968406677246094 stress="-0.000168450569617562 -3.936919235059122e-09 1.301961560784548e-08 -3.936919235059122e-09 -0.0001684535964159295 -1.5676748787996075e-08 1.301961560784548e-08 -1.5676748787996075e-08 -0.00016844685887917876" pbc="T T T"
Pd       2.21918989       1.56920401       3.84374935       0.00000025      -0.00000091      -0.00000013
Pd       6.65756946       4.70761248      11.53124798       0.00000013       0.00000047      -0.00000103
Hg       0.00000011       0.00000000       0.00000002      -0.00000083       0.00000046      -0.00000016
I        2.39786826       1.69554881       7.68749890      -0.00137159      -0.00096984      -0.00000009
I        6.47889100       4.58126770       7.68749908       0.00137144       0.00097056      -0.00000030
I        5.45863526       1.69554861       5.92036431       0.00068560      -0.00096954      -0.00118747
I        3.41812388       4.58126793       9.45463375      -0.00068578       0.00097010       0.00118732
I        3.41812354       4.58126802       5.92036399      -0.00068547       0.00096907      -0.00118715
I        5.45863525       1.69554887       9.45463359       0.00068632      -0.00097038       0.00118905
