9
Lattice="6.230940748532321 2.0489371942199023e-08 3.5974353678939615 2.0769802422212815 5.874587338772188 3.597435413978711 -1.5365969820878525e-08 4.557668176032238e-08 7.194870762402609" Properties=species:S:1:pos:R:3:forces:R:3 energy=-16.24669075012207 free_energy=-16.24669075012207 stress="6.128352833911777e-05 1.5887838600292525e-08 -7.873631524546454e-09 1.5887838600292525e-08 6.124266656115651e-05 7.796527867753866e-09 -7.873631524546454e-09 7.796527867753866e-09 6.12242947681807e-05" pbc="T T T"
Pd       2.07698002       1.46864669       3.59743509      -0.00000037      -0.00000037      -0.00000143
Pd       6.23094087       4.40594109      10.79230595      -0.00000012       0.00000157      -0.00000095
Hg      -0.00000013       0.00000015      -0.00000003      -0.00000038      -0.00000072       0.00000212
Br       2.19766218       1.55398163       7.19487078      -0.00036576      -0.00026053       0.00000040
Br       6.11025873       4.32060542       7.19487069       0.00036919       0.00026089      -0.00000003
Br       5.13210959       1.55398176       5.50066702       0.00018339      -0.00026217      -0.00031716
Br       3.17581140       4.32060571       8.88907495      -0.00018308       0.00025991       0.00031865
Br       3.17581156       4.32060546       5.50066689      -0.00018461       0.00026080      -0.00031903
Br       5.13210966       1.55398167       8.88907493       0.00018179      -0.00025934       0.00031751
