9
Lattice="4.849427436600419 -4.4866878142006875e-08 2.79981815124237 1.6164757870083055 4.572083748746814 2.7998181216085736 -5.872699848039394e-08 -7.782006477295093e-08 5.599636404202852" Properties=species:S:1:pos:R:3:forces:R:3 energy=-26.85472869873047 free_energy=-26.85472869873047 stress="0.0004949726862832904 3.5963487743373435e-09 8.745106327978647e-08 3.5963487743373435e-09 0.000494971580337733 4.485313453983508e-08 8.745106327978647e-08 4.485313453983508e-08 0.0004949747235514224" pbc="T T T"
Pd       1.61647585       1.14302088       2.79981826      -0.00000072       0.00000123       0.00000256
Pd       4.84942744       3.42906271       8.39945337      -0.00000124      -0.00000129      -0.00001026
Hg      -0.00000023      -0.00000001      -0.00000016       0.00000236      -0.00000316       0.00000620
F        1.71398639       1.21197109       5.59963629      -0.00555527      -0.00392932      -0.00000115
F        4.75191684       3.36011255       5.59963689       0.00555605       0.00392836       0.00000522
F        3.99243422       1.21197105       4.28417412       0.00277737      -0.00392830      -0.00480908
F        2.47346909       3.36011261       6.91509894      -0.00277442       0.00392526       0.00481009
F        2.47346870       3.36011231       4.28417392      -0.00278008       0.00392908      -0.00481272
F        3.99243439       1.21197141       6.91509901       0.00277612      -0.00392231       0.00480908
