9
Lattice="5.868901196082007 1.359347176658119e-08 3.388411661766365 1.9563003724226284 5.533253077991086 3.3884117294678 -3.148310371177609e-08 6.06550209293334e-08 6.776823378063118" Properties=species:S:1:pos:R:3:forces:R:3 energy=-18.369773864746094 free_energy=-18.369773864746094 stress="0.00013639256940223277 -1.228846180367782e-08 7.896828080333762e-09 -1.228846180367782e-08 0.00013639661483466625 -5.768449273801934e-09 7.896828080333762e-09 -5.768449273801934e-09 0.0001363793562632054" pbc="T T T"
Pd       1.95629957       1.38331268       3.38841159      -0.00000298      -0.00000288      -0.00000067
Pd       5.86890117       4.14993998      10.16523560      -0.00000012       0.00000042       0.00000210
Hg      -0.00000010       0.00000044      -0.00000041       0.00000148      -0.00000506       0.00000257
Cl       2.09692618       1.48275040       6.77682334      -0.00176093      -0.00124601       0.00000042
Cl       5.72827552       4.05050212       6.77682323       0.00176564       0.00124750      -0.00000060
Cl       4.82043815       1.48275128       5.20440351       0.00088398      -0.00124809      -0.00152579
Cl       3.00476358       4.05050292       8.34924301      -0.00088245       0.00124833       0.00152689
Cl       3.00476376       4.05050209       5.20440323      -0.00088447       0.00125036      -0.00152943
Cl       4.82043832       1.48275066       8.34924397       0.00087991      -0.00124457       0.00152409
