9
Lattice="5.8623586805041725 9.34252116616494e-10 3.3846344612793224 1.9541195356502166 5.527084943734951 3.3846345052711473 -9.330054849535593e-08 -1.2094695756588401e-08 6.769269084159922" Properties=species:S:1:pos:R:3:forces:R:3 energy=-24.015886306762695 free_energy=-24.015886306762695 stress="0.00011669565719785169 -3.908154155851662e-08 -2.813612631769047e-08 -3.908154155851662e-08 0.0001167528607766144 -1.1433198388033361e-08 -2.813612631769047e-08 -1.1433198388033361e-08 0.00011687364894896746" pbc="T T T"
Pd       1.95411921       1.38177060       3.38463434      -0.00000067      -0.00000145      -0.00000105
Pd       5.86235815       4.14531356      10.15390373      -0.00000026      -0.00000124       0.00000174
In      -0.00000014       0.00000019       0.00000053       0.00000199      -0.00000324      -0.00000716
Cl       2.03757157       1.44078090       6.76926896      -0.00109494      -0.00077569       0.00000001
Cl       5.77890645       4.08630440       6.76926857       0.00109565       0.00077507      -0.00000175
Cl       4.84357315       1.44078126       5.14922374       0.00054878      -0.00077379      -0.00094837
Cl       2.97290555       4.08630392       8.38931391      -0.00055104       0.00078210       0.00095579
Cl       2.97290596       4.08630364       5.14922389      -0.00054693       0.00077590      -0.00095171
Cl       4.84357268       1.44078131       8.38931458       0.00054742      -0.00077766       0.00095212
