9
Lattice="6.241547652610869 1.1704815426007528e-08 3.6035592467651525 2.080515881757691 5.8845877035873615 3.6035592701154346 -4.572015727082737e-08 -3.730818637507075e-09 7.207118572719968" Properties=species:S:1:pos:R:3:forces:R:3 energy=-21.22480010986328 free_energy=-21.22480010986328 stress="6.246088742045686e-05 3.8707929223003035e-11 -4.587624058416395e-09 3.8707929223003035e-11 6.248288991628215e-05 -5.420858206761636e-10 -4.587624058416395e-09 -5.420858206761636e-10 6.246746488614008e-05" pbc="T T T"
Pd       2.08051596       1.47114668       3.60355925       0.00000083      -0.00000191       0.00000016
Pd       6.24154754       4.41344010      10.81067791      -0.00000060      -0.00000213      -0.00000163
In       0.00000020       0.00000033      -0.00000001      -0.00000244      -0.00000198       0.00000045
Br       2.17187469       1.53574768       7.20711860       0.00080508       0.00056982      -0.00000008
Br       6.15018786       4.34883979       7.20711829      -0.00079805      -0.00056422       0.00000129
Br       5.15561013       1.53574772       5.48445791      -0.00040239       0.00056720       0.00069505
Br       3.16645364       4.34884044       8.92977886       0.00040056      -0.00056818      -0.00069407
Br       3.16645362       4.34884025       5.48445831       0.00039929      -0.00056678       0.00069377
Br       5.15561032       1.53574785       8.92977922      -0.00040220       0.00056815      -0.00069514
