9
Lattice="4.914372444423436 -2.672221663563568e-07 2.8373141190024374 1.6381240839024884 4.633314125644272 2.837313793895121 1.9621714120819135e-07 -2.594271310410062e-07 5.674627898146865" Properties=species:S:1:pos:R:3:forces:R:3 energy=-38.06871795654297 free_energy=-38.06871795654297 stress="1.8573357465356821e-06 6.984720357650076e-08 -1.666157345425745e-08 6.984720357650076e-08 1.7969920236282633e-06 -1.5228780014808763e-08 -1.666157345425745e-08 -1.5228780014808763e-08 1.7313433318122406e-06" pbc="T T T"
Pd       1.63812488       1.15832873       2.83731572       0.00000279       0.00000202       0.00000651
Pd       4.91437189       3.47498609       8.51193983      -0.00000232       0.00000287      -0.00000656
Ir       0.00000015      -0.00000030       0.00000016      -0.00000240       0.00000474      -0.00000157
F        1.60322158       1.13364768       5.67462820       0.00657965       0.00464955      -0.00000073
F        4.94927522       3.49966571       5.67462765      -0.00657977      -0.00465235       0.00000070
F        4.11276101       1.13364758       4.22574320      -0.00329388       0.00465346       0.00570139
F        2.43973530       3.49966555       7.12351271       0.00329486      -0.00465636      -0.00570258
F        2.43973330       3.49966467       4.22574348       0.00329037      -0.00465840       0.00570375
F        4.11276330       1.13364797       7.12351189      -0.00328936       0.00465445      -0.00570100
