9
Lattice="6.694977430937961 1.4867929755593671e-08 3.865346966322767 2.2316591614094663 6.312085273977771 3.865346959834792 -8.043305744504755e-09 -1.3633590648741436e-08 7.73069394657694" Properties=species:S:1:pos:R:3:forces:R:3 energy=-19.004653930664062 free_energy=-19.004653930664062 stress="1.7357269825879484e-06 -1.928750936741608e-09 6.146446462906852e-09 -1.928750936741608e-09 1.7416281252735644e-06 -3.050004471205625e-09 6.146446462906852e-09 -3.050004471205625e-09 1.7654033399594482e-06" pbc="T T T"
Pd       2.23165925       1.57802149       3.86534676      -0.00000054       0.00000038      -0.00000052
Pd       6.69497740       4.73406373      11.59604083       0.00000005      -0.00000046      -0.00000020
In       0.00000019       0.00000002      -0.00000046      -0.00000091       0.00000006       0.00000390
I        2.35450227       1.66488455       7.73069393      -0.00298868      -0.00211345       0.00000007
I        6.57213405       4.64720062       7.73069394       0.00298966       0.00211392       0.00000034
I        5.51772620       1.66488486       5.90440588       0.00149554      -0.00211494      -0.00259003
I        3.40891014       4.64720071       9.55698239      -0.00149353       0.00211214       0.00258811
I        3.40891039       4.64720065       5.90440597      -0.00149556       0.00211489      -0.00259042
I        5.51772641       1.66488445       9.55698225       0.00149393      -0.00211258       0.00258881
