9
Lattice="6.450924532908576 1.0875575490978281e-08 3.7244430816629555 2.150308207975322 6.081990026620304 3.724443046873758 1.522902178159779e-08 -3.183935174379726e-08 7.448886136948463" Properties=species:S:1:pos:R:3:forces:R:3 energy=-24.593074798583984 free_energy=-24.593074798583984 stress="0.000140450953040272 -1.3807307519542178e-09 1.1353508355682607e-08 -1.3807307519542178e-09 0.0001404358772560954 -2.7315971706798337e-08 1.1353508355682607e-08 -2.7315971706798337e-08 0.00014045000716578215" pbc="T T T"
Pd       2.15030830       1.52049747       3.72444325      -0.00000018      -0.00000003       0.00000004
Pd       6.45092456       4.56149245      11.17332943      -0.00000043      -0.00000070       0.00000072
Ir      -0.00000011      -0.00000010      -0.00000023      -0.00000061      -0.00000040       0.00000209
I        2.16994056       1.53437967       7.44888617       0.00146750       0.00103730       0.00000003
I        6.43129221       4.54761036       7.44888610      -0.00146632      -0.00103672      -0.00000039
I        5.36595422       1.53437986       5.60366667      -0.00073388       0.00103807       0.00127023
I        3.23527848       4.54761020       9.29410558       0.00073419      -0.00103818      -0.00127169
I        3.23527849       4.54761027       5.60366675       0.00073237      -0.00103617       0.00126860
I        5.36595431       1.53437979       9.29410535      -0.00073267       0.00103682      -0.00126959
