9
Lattice="6.157391029929027 -2.7768924546951707e-08 3.5549714443095577 2.052463652013464 5.805243900825683 3.5549714416227483 8.895866234476679e-08 5.961265814908327e-08 7.109942734538166" Properties=species:S:1:pos:R:3:forces:R:3 energy=-28.715957641601562 free_energy=-28.715957641601562 stress="0.0002410843881079927 -3.000474890768601e-08 -2.1042751541244797e-08 -3.000474890768601e-08 0.00024106756609398872 -1.89583229115442e-08 -2.1042751541244797e-08 -1.89583229115442e-08 0.000241092435317114" pbc="T T T"
Pd       2.05246487       1.45130965       3.55497137       0.00000214      -0.00000339       0.00000057
Pd       6.15738923       4.35393257      10.66491169      -0.00000426      -0.00000184      -0.00000712
Mn       0.00000020       0.00000000       0.00000022       0.00000118      -0.00000006       0.00000057
Br       1.89411063       1.33933948       7.10994305      -0.00284638      -0.00201147       0.00000064
Br       6.31574370       4.46590560       7.10994355       0.00284448       0.00201220       0.00000184
Br       5.21033488       1.33933861       5.19532035       0.00142381      -0.00201340      -0.00246695
Br       2.99952043       4.46590540       9.02456608      -0.00142214       0.00201558       0.00246946
Br       2.99951947       4.46590529       5.19532003      -0.00142246       0.00201478      -0.00246693
Br       5.21033573       1.33933910       9.02456615       0.00142360      -0.00201240       0.00246787
