9
Lattice="3.839405388998302 -1.4427704021202956e-05 2.216670627209961 1.279788441389359 3.6198018984853664 2.2166701982965042 4.361804229417194e-06 2.5590005368244877e-06 4.433333699495175" Properties=species:S:1:pos:R:3:forces:R:3 energy=-38.80199432373047 free_energy=-38.80199432373047 stress="8.490242180414498e-05 1.0709836715250276e-05 -2.448405894028838e-06 1.0709836715250276e-05 0.00011598812125157565 -1.1842094238545542e-07 -2.448405894028838e-06 -1.1842094238545542e-07 0.00013058262993581593" pbc="T T T"
Pd       1.27980973       0.90496023       2.21667239      -0.00024690      -0.00064097      -0.00040727
Pd       3.83940094       2.71484969       6.65001859      -0.00024956      -0.00052292      -0.00045603
Mn       0.00001175       0.00001344       0.00000661      -0.00162958      -0.00177283      -0.00040470
F        1.34991482       0.95451653       4.43332595       0.00051260       0.00139594       0.00169946
F        3.76928857       2.66526481       4.43334199      -0.00158215      -0.00068545      -0.00015909
F        3.16444096       0.95450372       3.38572288       0.00128841       0.00122356       0.00049233
F        1.95474059       2.66528173       5.48096084       0.00128484      -0.00148582      -0.00182319
F        1.95474313       2.66526381       3.38570664       0.00128555       0.00068235       0.00187635
F        3.16444889       0.95450657       5.48096364      -0.00066948       0.00179887      -0.00081873
