9
Lattice="4.573560474014486 -2.1912989794356368e-08 2.6405463799604947 1.5245201289032393 4.311994225983992 2.6405463945821324 1.5523568897663473e-08 2.888459626942022e-08 5.281092733033375" Properties=species:S:1:pos:R:3:forces:R:3 energy=-41.22450256347656 free_energy=-41.22450256347656 stress="0.00037330531631596386 5.0220143599233324e-09 -6.171190136683435e-08 5.0220143599233324e-09 0.00037322347634471953 8.311383936643324e-08 -6.171190136683435e-08 8.311383936643324e-08 0.00037324748700484633" pbc="T T T"
Pd       1.52452028       1.07799894       2.64054631       0.00000048       0.00000086       0.00000004
Pd       4.57356026       3.23399549       7.92163924      -0.00000154      -0.00000007       0.00000050
Mn       0.00000002      -0.00000011      -0.00000003      -0.00000451       0.00000295       0.00000526
F        1.50215139       1.06218109       5.28109274      -0.00343927      -0.00243146       0.00000030
F        4.59592924       3.24981271       5.28109272       0.00344277       0.00243352      -0.00000082
F        3.82248451       1.06218160       3.94144773       0.00172227      -0.00243523      -0.00298397
F        2.27559615       3.24981288       6.62073807      -0.00171981       0.00243076       0.00297846
F        2.27559601       3.24981299       3.94144745      -0.00171834       0.00242843      -0.00297620
F        3.82248462       1.06218138       6.62073781       0.00171791      -0.00242985       0.00297655
