9
Lattice="6.613691093628507 -4.345892912930989e-08 3.8184163533438595 2.2045636752373237 6.235447705621362 3.818416321587326 1.322127685479454e-08 -2.954481691801192e-08 7.63683268378781" Properties=species:S:1:pos:R:3:forces:R:3 energy=-18.533466339111328 free_energy=-18.533466339111328 stress="6.709073932142928e-05 -2.1869937805174544e-10 -2.6865030200440287e-09 -2.1869937805174544e-10 6.710260640829802e-05 1.1693018997505078e-08 -2.6865030200440287e-09 1.1693018997505078e-08 6.71015732223168e-05" pbc="T T T"
Pd       2.20456354       1.55886153       3.81841644      -0.00000087      -0.00000199       0.00000042
Pd       6.61369112       4.67658553      11.45524866       0.00000056      -0.00000056      -0.00000053
Mg       0.00000000       0.00000011       0.00000053      -0.00000050      -0.00000044      -0.00000229
I        2.31979467       1.64034248       7.63683257      -0.00598346      -0.00423090      -0.00000017
I        6.49845985       4.59510516       7.63683257       0.00598411       0.00423191      -0.00000022
I        5.45379388       1.64034252       5.82741766       0.00299187      -0.00423044      -0.00518088
I        3.36446110       4.59510552       9.44624757      -0.00299270       0.00423322       0.00518243
I        3.36446092       4.59510498       5.82741752      -0.00299157       0.00423048      -0.00518143
I        5.45379403       1.64034271       9.44624793       0.00299259      -0.00423121       0.00518277
