9
Lattice="5.843493859628132 -3.6421940147606894e-08 3.373743134378554 1.9478312963527469 5.509299192094401 3.373743057910295 2.1965785053267732e-08 -7.812197020834704e-08 6.7474862307112335" Properties=species:S:1:pos:R:3:forces:R:3 energy=-31.179351806640625 free_energy=-31.179351806640625 stress="-2.936526834673714e-05 -3.354362831942126e-08 1.6254416479455358e-08 -3.354362831942126e-08 -2.9342760171857662e-05 -4.9215458375329035e-09 1.6254416479455358e-08 -4.9215458375329035e-09 -2.932772804342676e-05" pbc="T T T"
Pd       1.94783238       1.37732467       3.37374224       0.00000402       0.00000103      -0.00000306
Pd       5.84349413       4.13197497      10.12122868       0.00000004       0.00000161      -0.00000266
Mn       0.00000037      -0.00000044       0.00000049      -0.00000968       0.00000881      -0.00000741
Cl       1.82599072       1.29117074       6.74748690       0.00133969       0.00094677       0.00000129
Cl       5.96533373       4.21812871       6.74748686      -0.00133887      -0.00094675       0.00000024
Cl       4.93049710       1.29117105       4.95509801      -0.00066733       0.00094102       0.00115471
Cl       2.86082740       4.21812795       8.53987498       0.00066926      -0.00094502      -0.00115648
Cl       2.86082708       4.21812784       4.95509746       0.00066856      -0.00094625       0.00116326
Cl       4.93049772       1.29117086       8.53987399      -0.00066575       0.00093874      -0.00114988
