9
Lattice="5.223769023932771 1.2713302014032443e-07 3.0159445883804894 1.7412565147615433 4.925016696020777 3.015944495562516 7.15814236095838e-08 -6.306261773491751e-08 6.031889052778349" Properties=species:S:1:pos:R:3:forces:R:3 energy=-39.573795318603516 free_energy=-39.573795318603516 stress="0.00010891637793974951 -1.7285920250742492e-08 -2.8417456832130483e-08 -1.7285920250742492e-08 0.00010889455734286457 2.3054342435102626e-08 -2.8417456832130483e-08 2.3054342435102626e-08 0.00010889716213569045" pbc="T T T"
Pd       1.74125653       1.23125352       3.01594502       0.00000241      -0.00000474       0.00000288
Pd       5.22377068       3.69376237       9.04783654       0.00001603      -0.00000223       0.00003402
Mn      -0.00000007      -0.00000018      -0.00000020      -0.00000054       0.00000190       0.00000034
S        1.80474748       1.27614991       6.03188930      -0.00090629      -0.00063148       0.00000043
S        5.16027775       3.64886750       6.03188859       0.00089818       0.00063804      -0.00001080
S        4.32139563       1.27615018       4.57890158       0.00045249      -0.00063074      -0.00078768
S        2.64362927       3.64886770       7.48487499      -0.00046086       0.00063941       0.00076866
S        2.64363043       3.64886759       4.57890143      -0.00044659       0.00063744      -0.00078100
S        4.32139464       1.27614836       7.48487533       0.00044471      -0.00064749       0.00077271
