9
Lattice="5.727198658679396 2.471154166133449e-07 3.3065996195488356 1.9090665026799736 5.399654213264169 3.306599532708095 1.1467097462313691e-07 -2.5273110734258868e-08 6.613199040481689" Properties=species:S:1:pos:R:3:forces:R:3 energy=-23.432146072387695 free_energy=-23.432146072387695 stress="6.739422678947449e-05 -7.897067000328661e-09 -9.762779029642843e-09 -7.897067000328661e-09 6.743783160345629e-05 2.0712278558931985e-09 -9.762779029642843e-09 2.0712278558931985e-09 6.743887206539512e-05" pbc="T T T"
Pd       1.90906496       1.34991181       3.30659971      -0.00000797      -0.00001158       0.00000080
Pd       5.72719859       4.04974041       9.91980052      -0.00000015      -0.00000285       0.00001273
Mg       0.00000016      -0.00000007      -0.00000035       0.00000048      -0.00000061      -0.00000037
Cl       1.95626135       1.38328652       6.61319938      -0.00072469      -0.00051232       0.00000050
Cl       5.68000383       4.01636868       6.61319841       0.00072359       0.00051241      -0.00000609
Cl       4.74906849       1.38328630       5.00077174       0.00036441      -0.00050878      -0.00062722
Cl       2.88719757       4.01636924       8.22562542      -0.00036312       0.00051834       0.00062316
Cl       2.88719809       4.01636930       5.00077183      -0.00035688       0.00051812      -0.00062838
Cl       4.74906806       1.38328553       8.22562610       0.00036432      -0.00051277       0.00062481
