9
Lattice="4.521569336751783 3.749159498023977e-09 2.6105292446659285 1.5071898026722383 4.262976394593902 2.6105292096434343 -1.4565499415832313e-08 -5.319297309899124e-08 5.221058514560024" Properties=species:S:1:pos:R:3:forces:R:3 energy=-35.683250427246094 free_energy=-35.683250427246094 stress="0.00012651913857553154 1.6328566943002443e-08 8.24263466370212e-08 1.6328566943002443e-08 0.00012643300578929484 -5.863954211093869e-09 8.24263466370212e-08 -5.863954211093869e-09 0.00012641977809835225" pbc="T T T"
Pd       1.50718933       1.06574476       2.61052947      -0.00000332       0.00000187       0.00000280
Pd       4.52157026       3.19723237       7.83158647       0.00000662       0.00000225      -0.00000991
Mg       0.00000000      -0.00000017      -0.00000006      -0.00000008       0.00000537       0.00000514
F        1.53087467       1.08249180       5.22105848      -0.00146175      -0.00103154       0.00000175
F        4.49788447       3.18048442       5.22105876       0.00145829       0.00102831       0.00000461
F        3.75613189       1.08249145       3.93630587       0.00073075      -0.00103437      -0.00126090
F        2.27262709       3.18048494       6.50581164      -0.00072603       0.00102614       0.00125786
F        2.27262652       3.18048424       3.93630567      -0.00073451       0.00102952      -0.00126070
F        3.75613232       1.08249150       6.50581153       0.00072978      -0.00102748       0.00125908
