9
Lattice="6.601427021073696 -1.6937167155097854e-09 3.8113356735467985 2.2004756657103592 6.2238852006057 3.8113356846041997 -3.3937435737772815e-08 -1.045490198411989e-08 7.622671405874947" Properties=species:S:1:pos:R:3:forces:R:3 energy=-26.55490493774414 free_energy=-26.55490493774414 stress="0.00019483515643514693 -1.141285199679487e-08 -2.228889961486402e-09 -1.141285199679487e-08 0.00019484004587866366 1.6912725664397499e-09 -2.228889961486402e-09 1.6912725664397499e-09 0.00019483918731566519" pbc="T T T"
Pd       2.20047572       1.55597123       3.81133568       0.00000042      -0.00000037      -0.00000003
Pd       6.60142664       4.66791378      11.43400720      -0.00000116       0.00000021       0.00000045
Mo      -0.00000011      -0.00000012      -0.00000029       0.00000104       0.00000265       0.00000161
I        2.23182220       1.57813625       7.62267139       0.00381954       0.00270046       0.00000001
I        6.57008093       4.64574919       7.62267148      -0.00382188      -0.00270256      -0.00000018
I        5.48551601       1.57813657       5.74415010      -0.00190856       0.00270054       0.00330752
I        3.31638653       4.64574871       9.50119278       0.00190993      -0.00270124      -0.00330888
I        3.31638661       4.64574866       5.74414999       0.00190999      -0.00270085       0.00330780
I        5.48551607       1.57813651       9.50119273      -0.00190938       0.00270115      -0.00330833
