9
Lattice="6.155456369400151 -2.463132456577135e-07 3.553854093675454 2.0518185792302273 5.8034191886122 3.553854056165261 6.832489470598629e-08 2.37259850096652e-09 7.107708069008705" Properties=species:S:1:pos:R:3:forces:R:3 energy=-28.71598243713379 free_energy=-28.71598243713379 stress="2.8352988010738045e-05 -4.590496871514915e-08 -2.6186667057004342e-08 -4.590496871514915e-08 2.8331731300568208e-05 -4.837258593681781e-09 -2.6186667057004342e-08 -4.837258593681781e-09 2.832435529853683e-05" pbc="T T T"
Pd       2.05181848       1.45085432       3.55385407      -0.00000076      -0.00000071      -0.00000071
Pd       6.15545588       4.35256484      10.66156158      -0.00000116       0.00000125      -0.00000070
Mn       0.00000011       0.00000004       0.00000038      -0.00000171       0.00000239       0.00000171
Br       1.89388423       1.33917722       7.10770796       0.00080720       0.00057241       0.00000161
Br       6.31339156       4.46424153       7.10770813      -0.00080972      -0.00057305       0.00000109
Br       5.20851390       1.33917811       5.19400589      -0.00039877       0.00056652       0.00069491
Br       2.99876082       4.46424115       9.02141066       0.00040365      -0.00057025      -0.00069989
Br       2.99876080       4.46424062       5.19400570       0.00040208      -0.00056844       0.00069887
Br       5.20851430       1.33917792       9.02141053      -0.00040082       0.00056976      -0.00069695
