9
Lattice="6.128096286634861 -2.6332849059045022e-08 3.538058111598315 2.042698731186616 5.77762456255823 3.538058122333852 -7.077656711281719e-10 1.2647803326970034e-08 7.076116224422536" Properties=species:S:1:pos:R:3:forces:R:3 energy=-20.63768196105957 free_energy=-20.63768196105957 stress="5.200158921070397e-05 -4.829788236015986e-10 3.9097933779430605e-09 -4.829788236015986e-10 5.2019342547282577e-05 2.399542786690745e-09 3.9097933779430605e-09 2.399542786690745e-09 5.2007624617544934e-05" pbc="T T T"
Pd       2.04269859       1.44440609       3.53805809      -0.00000092       0.00000031      -0.00000029
Pd       6.12809641       4.33321832      10.61417402       0.00000024      -0.00000138      -0.00000160
Mg      -0.00000010      -0.00000019       0.00000006       0.00000048       0.00000028      -0.00000009
Br       2.09548211       1.48172963       7.07611617      -0.00013085      -0.00009106       0.00000017
Br       6.07531294       4.29589498       7.07611654       0.00012880       0.00009041       0.00000066
Br       5.08035511       1.48172988       5.35279891       0.00006645      -0.00009160      -0.00011288
Br       3.09043996       4.29589484       8.79943357      -0.00006479       0.00009132       0.00011305
Br       3.09043984       4.29589494       5.35279905      -0.00006477       0.00009271      -0.00011133
Br       5.08035520       1.48172970       8.79943344       0.00006540      -0.00009098       0.00011230
