9
Lattice="6.441521543786659 1.8724298477473728e-08 3.719014106075225 2.147173845135779 6.073124936047518 3.719014141489678 -8.439923043990147e-08 -1.630559909736989e-08 7.4380283583341855" Properties=species:S:1:pos:R:3:forces:R:3 energy=-25.485889434814453 free_energy=-25.485889434814453 stress="-0.00014741488848812878 1.2719413078343678e-08 7.78807329737674e-09 1.2719413078343678e-08 -0.00014741630002390593 -1.1930528787118533e-09 7.78807329737674e-09 -1.1930528787118533e-09 -0.00014741718769073486" pbc="T T T"
Pd       2.14717315       1.51828085       3.71901326      -0.00000136       0.00000014      -0.00000188
Pd       6.44152177       4.55484307      11.15704328       0.00000039      -0.00000213       0.00000156
Mn       0.00000002       0.00000019      -0.00000024      -0.00000267      -0.00000133       0.00000494
I        2.07863008       1.46981363       7.43802833       0.00154519       0.00109224       0.00000148
I        6.51006525       4.60331163       7.43802795      -0.00154319      -0.00109057      -0.00000037
I        5.40220711       1.46981377       5.51916094      -0.00077030       0.00109139       0.00133654
I        3.18648847       4.60331157       9.35689603       0.00077322      -0.00109342      -0.00133960
I        3.18648864       4.60331128       5.51916064       0.00077114      -0.00108984       0.00133586
I        5.40220675       1.46981375       9.35689626      -0.00077255       0.00109349      -0.00133842
