9
Lattice="4.531653597141073 -5.139555962453717e-08 2.616351616072712 1.5105511655511357 4.272484192639061 2.6163515901606917 -9.459490942796261e-08 -9.862430541005646e-08 5.232703395988624" Properties=species:S:1:pos:R:3:forces:R:3 energy=-45.333404541015625 free_energy=-45.333404541015625 stress="0.00017236568965017796 4.740467574038121e-08 7.848846905744722e-09 4.740467574038121e-08 0.00017239268345292658 -3.176472418431331e-08 7.848846905744722e-09 -3.176472418431331e-08 0.00017247673531528562" pbc="T T T"
Pd       1.51055503       1.06812030       2.61634907       0.00003886      -0.00000568      -0.00002767
Pd       4.53165782       3.20436360       7.84905088       0.00004425       0.00000467      -0.00003951
Mn      -0.00000042      -0.00000001       0.00000035      -0.00000689      -0.00000226       0.00000638
O        1.48226088       1.04811769       5.23270416      -0.00460815      -0.00325013       0.00001166
O        4.55994188       3.22436785       5.23270465       0.00459278       0.00326334       0.00001457
O        3.79052194       1.04811569       3.90002941       0.00229020      -0.00326358      -0.00397734
O        2.25168033       3.22436642       6.56537864      -0.00231491       0.00325193       0.00398821
O        2.25168005       3.22436655       3.90002906      -0.00231931       0.00325296      -0.00397496
O        3.79052122       1.04811790       6.56538016       0.00228319      -0.00325105       0.00399919
