9
Lattice="6.44251663958229 1.0704433153068706e-07 3.7195886578784108 2.147505638480426 6.07406280460785 3.719588673413671 -2.046426112665885e-08 4.556438051050466e-09 7.439177351202022" Properties=species:S:1:pos:R:3:forces:R:3 energy=-25.485904693603516 free_energy=-25.485904693603516 stress="-1.7493521227152087e-05 4.99284658062038e-09 -1.0318988996615985e-09 4.99284658062038e-09 -1.7511427358840592e-05 3.475611576320148e-09 -1.0318988996615985e-09 3.475611576320148e-09 -1.750890260154847e-05" pbc="T T T"
Pd       2.14750600       1.51851543       3.71958852       0.00000102      -0.00000066       0.00000002
Pd       6.44251685       4.55554733      11.15876622       0.00000037       0.00000047      -0.00000022
Mn       0.00000022       0.00000019       0.00000004      -0.00000076      -0.00000084       0.00000101
I        2.07912756       1.47016501       7.43917739      -0.00157061      -0.00111097       0.00000053
I        6.51089422       4.60389781       7.43917710       0.00157154       0.00111201       0.00000065
I        5.40295297       1.47016517       5.52016573       0.00078547      -0.00111116      -0.00136067
I        3.18706901       4.60389797       9.35818882      -0.00078504       0.00111005       0.00136009
I        3.18706918       4.60389774       5.52016586      -0.00078708       0.00111097      -0.00136149
I        5.40295302       1.47016503       9.35818904       0.00078514      -0.00110979       0.00136009
