9
Lattice="5.381061464578473 1.8061739959320187e-08 3.1067573067217844 1.7936871469183568 5.073313543802775 3.106757349970914 -3.832492394951103e-08 2.5869335454088234e-08 6.2135146798243" Properties=species:S:1:pos:R:3:forces:R:3 energy=-38.03551483154297 free_energy=-38.03551483154297 stress="9.357440285384655e-05 -3.381871849228446e-08 -1.4766967204593584e-08 -3.381871849228446e-08 9.356802183901891e-05 3.436894147057501e-08 -1.4766967204593584e-08 3.436894147057501e-08 9.355484507977962e-05" pbc="T T T"
Pd       1.79368748       1.26832936       3.10675742       0.00000297       0.00000579      -0.00000029
Pd       5.38106174       3.80498456       9.32027220       0.00000110      -0.00000402       0.00000271
Mn      -0.00000012      -0.00000001       0.00000023       0.00000125      -0.00000027      -0.00000159
Se       1.92790277       1.36323343       6.21351476      -0.00309068      -0.00218274      -0.00000058
Se       5.24684594       3.71008010       6.21351443       0.00308982       0.00218223      -0.00000209
Se       4.41711003       1.36323354       4.77636989       0.00154510      -0.00218317      -0.00267738
Se       2.75763860       3.71008001       7.65065898      -0.00154652       0.00218533       0.00267813
Se       2.75763822       3.71008014       4.77637006      -0.00154626       0.00218198      -0.00267616
Se       4.41710965       1.36323326       7.65065937       0.00154318      -0.00218502       0.00267735
