9
Lattice="4.909421238022219 2.1987497659154554e-07 2.8344552096621616 1.6364737969028837 4.628647470682227 2.834455480562945 1.0302748050582975e-07 4.046357349648931e-07 5.668910240875508" Properties=species:S:1:pos:R:3:forces:R:3 energy=-41.05396270751953 free_energy=-41.05396270751953 stress="-3.654704414657317e-05 6.371748129119226e-10 1.4004014836643819e-08 6.371748129119226e-10 -3.653223757282831e-05 -1.7983107225560957e-09 1.4004014836643819e-08 -1.7983107225560957e-09 -3.650965300039388e-05" pbc="T T T"
Pd       1.63647492       1.15716313       2.83445546       0.00000458       0.00000413       0.00000162
Pd       4.90942117       3.47148507       8.50336531      -0.00000144      -0.00000406       0.00000016
Mo      -0.00000005      -0.00000013       0.00000045      -0.00000753       0.00000350      -0.00000512
F        1.61155620       1.13954291       5.66891024       0.00231502       0.00163656       0.00000024
F        4.93433809       3.48910497       5.66891051      -0.00231021      -0.00163363       0.00000072
F        4.10364284       1.13954364       4.23010370      -0.00115674       0.00163426       0.00200150
F        2.44225161       3.48910533       7.10771708       0.00115649      -0.00163740      -0.00200273
F        2.44225198       3.48910399       4.23010376       0.00115547      -0.00163748       0.00200304
F        4.10364325       1.13954358       7.10771718      -0.00115558       0.00163415      -0.00199952
