9
Lattice="5.893150946807031 2.493593426254719e-08 3.4024123512363755 1.964383642817836 5.556116140284753 3.402412402552966 6.662610520424916e-08 1.0996154621050398e-07 6.8048245870729644" Properties=species:S:1:pos:R:3:forces:R:3 energy=-33.03246307373047 free_energy=-33.03246307373047 stress="-2.587105700513348e-05 5.743659436951987e-10 3.032857875950867e-08 5.743659436951987e-10 -2.5866571377264336e-05 -2.0824824531473496e-08 3.032857875950867e-08 -2.0824824531473496e-08 -2.588926872704178e-05" pbc="T T T"
Pd       1.96438406       1.38902973       3.40241184       0.00000040       0.00000156      -0.00000109
Pd       5.89315079       4.16708724      10.20723559       0.00000073       0.00000061      -0.00000468
Mo       0.00000001      -0.00000015       0.00000027       0.00000102      -0.00000174      -0.00000275
Cl       1.91513116       1.35420226       6.80482495       0.00200559       0.00141771       0.00000060
Cl       5.94240350       4.20191390       6.80482532      -0.00200580      -0.00141799       0.00000073
Cl       4.93558545       1.35420206       5.06096478      -0.00100558       0.00141944       0.00174107
Cl       2.92194952       4.20191373       8.54868484       0.00100245      -0.00141871      -0.00173494
Cl       2.92194903       4.20191380       5.06096502       0.00100337      -0.00141928       0.00173725
Cl       4.93558516       1.35420258       8.54868469      -0.00100207       0.00141834      -0.00173607
