9
Lattice="6.200406141959801 -1.8239445391880257e-07 3.579805946724785 2.0668019102278024 5.845798404448656 3.5798058863264255 4.2811806415522485e-08 -4.3700071464854335e-08 7.159611819297387" Properties=species:S:1:pos:R:3:forces:R:3 energy=-29.62264633178711 free_energy=-29.62264633178711 stress="-2.967323234770447e-05 -2.4357934336194376e-08 -1.964535201182116e-08 -2.4357934336194376e-08 -2.9668592105736025e-05 2.4173116841552655e-08 -1.964535201182116e-08 2.4173116841552655e-08 -2.9656712285941467e-05" pbc="T T T"
Pd       2.06680354       1.46145010       3.57980805       0.00000398       0.00000064       0.00000587
Pd       6.20040684       4.38434851      10.73942088       0.00000264      -0.00000060       0.00000857
Mo      -0.00000023      -0.00000020      -0.00000035      -0.00000166      -0.00000165      -0.00000624
Br       2.03432054       1.43848234       7.15961064       0.00174998       0.00123857      -0.00000279
Br       6.23288700       4.40731609       7.15961055      -0.00174992      -0.00123742      -0.00000293
Br       5.18324500       1.43848200       5.34157888      -0.00087618       0.00123759       0.00151316
Br       3.08396222       4.40731621       8.97764335       0.00087126      -0.00123403      -0.00151316
Br       3.08396260       4.40731603       5.34157889       0.00087523      -0.00123917       0.00151387
Br       5.18324491       1.43848163       8.97764367      -0.00087534       0.00123606      -0.00151632
