9
Lattice="4.505563079403851 4.9610924302591154e-08 2.601288537243622 1.5018542237392591 4.247886894473179 2.601288853924255 -2.2244045116554425e-07 2.3056386410828057e-07 5.202577459765376" Properties=species:S:1:pos:R:3:forces:R:3 energy=-34.06788635253906 free_energy=-34.06788635253906 stress="-4.6963792556198314e-05 -5.415206505432479e-09 -1.0104016290313211e-08 -5.415206505432479e-09 -4.6897443098714575e-05 1.0013827100863182e-08 -1.0104016290313211e-08 1.0013827100863182e-08 -4.6787412429694086e-05" pbc="T T T"
Pd       1.50185620       1.06197294       2.60128970       0.00001329       0.00000614       0.00000457
Pd       4.50556214       3.18591401       7.80386862      -0.00000358      -0.00000869       0.00001405
Ni      -0.00000005       0.00000017      -0.00000007      -0.00000881       0.00000237      -0.00000827
F        1.49466683       1.05689128       5.20257737       0.00194849       0.00138202      -0.00000191
F        4.51274981       3.19099638       5.20257645      -0.00194694      -0.00137947      -0.00000616
F        3.75822769       1.05689117       3.89570736      -0.00098041       0.00138299       0.00168027
F        2.24918896       3.19099646       6.50944677       0.00097536      -0.00137942      -0.00168368
F        2.24918804       3.19099728       3.89570948       0.00097603      -0.00137743       0.00168644
F        3.75822861       1.05688943       6.50944480      -0.00097336       0.00137137      -0.00168550
