9
Lattice="5.976722153722198 -7.310593006737116e-08 3.450662072784612 1.9922406522181144 5.63490733235768 3.450662067180309 -1.333555693060574e-08 -1.629350770660589e-08 6.901324168667087" Properties=species:S:1:pos:R:3:forces:R:3 energy=-23.31838607788086 free_energy=-23.31838607788086 stress="0.0001433669967809692 1.331393395531677e-08 2.2774306884798534e-08 1.331393395531677e-08 0.00014334692968986928 4.729069580378109e-09 2.2774306884798534e-08 4.729069580378109e-09 0.00014336715685203671" pbc="T T T"
Pd       1.99224155       1.40872742       3.45066154       0.00000311       0.00000231      -0.00000278
Pd       5.97672188       4.22618048      10.35198772      -0.00000050      -0.00000086       0.00000661
Ni      -0.00000011       0.00000011      -0.00000015       0.00000071       0.00000076       0.00000094
Br       1.93471431       1.36804958       6.90132455       0.00063819       0.00045195       0.00000097
Br       6.03424870       4.26685731       6.90132347      -0.00064000      -0.00045350      -0.00000072
Br       5.00936479       1.36804979       5.12617346      -0.00032023       0.00045127       0.00055271
Br       2.95959746       4.26685734       8.67647459       0.00032014      -0.00045258      -0.00055569
Br       2.95959803       4.26685759       5.12617343       0.00032061      -0.00045267       0.00055271
Br       5.00936457       1.36804939       8.67647454      -0.00032184       0.00045317      -0.00055456
