9
Lattice="5.698383568260679 -7.567924101172161e-08 3.2899633003800077 1.899461180841597 5.37248702404245 3.289963191654924 7.296330887892879e-08 -8.156762029071562e-08 6.579926474383834" Properties=species:S:1:pos:R:3:forces:R:3 energy=-25.084056854248047 free_energy=-25.084056854248047 stress="0.00032982148695737123 1.4229899036877214e-08 -2.5859252517079767e-09 1.4229899036877214e-08 0.0003298886585980654 -1.1744922367995514e-08 -2.5859252517079767e-09 -1.1744922367995514e-08 0.00032978301169350743" pbc="T T T"
Pd       1.89946083       1.34312193       3.28996633      -0.00000349       0.00000145       0.00001621
Pd       5.69838373       4.02936513       9.86989471       0.00000202      -0.00000087       0.00002646
Ni      -0.00000006       0.00000017       0.00000013       0.00000068      -0.00000281      -0.00000670
Cl       1.84598503       1.30530784       6.57992528       0.00248119       0.00175363      -0.00000645
Cl       5.75185965       4.06717894       6.57992478      -0.00248063      -0.00175324      -0.00001353
Cl       4.77539167       1.30530900       4.88863170      -0.00124110       0.00176260       0.00214618
Cl       2.82245297       4.06717873       8.27121848       0.00123203      -0.00174798      -0.00215098
Cl       2.82245393       4.06717800       4.88863183       0.00124460      -0.00176038       0.00214222
Cl       4.77539162       1.30530772       8.27121866      -0.00123544       0.00174762      -0.00215307
