9
Lattice="6.337059884892746 5.7705361496888744e-09 3.658703129497849 2.1123533010555513 5.974637155960689 3.658703128370613 -2.8930909611890345e-08 -2.183779432288882e-08 7.317406309105459" Properties=species:S:1:pos:R:3:forces:R:3 energy=-21.248998641967773 free_energy=-21.248998641967773 stress="0.00013545178808271885 1.9425903108327702e-09 -4.4967749524005285e-09 1.9425903108327702e-09 0.0001354432461084798 6.1632698944436015e-09 -4.4967749524005285e-09 6.1632698944436015e-09 0.00013544480316340923" pbc="T T T"
Pd       2.11235273       1.49365926       3.65870248      -0.00000108      -0.00000077      -0.00000256
Pd       6.33705999       4.48097810      10.97610924      -0.00000006       0.00000031       0.00000000
Ni       0.00000002       0.00000009       0.00000015       0.00000014      -0.00000035       0.00000026
I        2.14036302       1.51346520       7.31740646       0.00298545       0.00211114       0.00000123
I        6.30905027       4.46117190       7.31740640      -0.00298487      -0.00211114       0.00000006
I        5.26687853       1.51346498       5.51231192      -0.00149183       0.00211051       0.00258692
I        3.18253485       4.46117190       9.12250081       0.00149234      -0.00211026      -0.00258499
I        3.18253487       4.46117216       5.51231187       0.00149292      -0.00211091       0.00258520
I        5.26687836       1.51346498       9.12250093      -0.00149303       0.00211145      -0.00258617
