9
Lattice="6.336684396409616 -5.1479685923840205e-08 3.6584863579514995 2.1122280775131914 5.9742833662658485 3.6584863684959172 6.573050989860666e-10 1.337897968052599e-08 7.31697271476456" Properties=species:S:1:pos:R:3:forces:R:3 energy=-21.24900245666504 free_energy=-21.24900245666504 stress="0.00013946747640147805 4.207231896202757e-09 3.316501295813623e-09 4.207231896202757e-09 0.00013946463877800852 -6.07723382728409e-09 3.316501295813623e-09 -6.07723382728409e-09 0.00013946402759756893" pbc="T T T"
Pd       2.11222844       1.49357054       3.65848659       0.00000111      -0.00000073       0.00000056
Pd       6.33668439       4.48071289      10.97545967       0.00000006       0.00000132       0.00000270
Ni       0.00000008      -0.00000000      -0.00000008       0.00000032       0.00000011       0.00000027
I        2.14103315       1.51393882       7.31697253      -0.00369659      -0.00261432       0.00000001
I        6.30787925       4.46034451       7.31697243       0.00369658       0.00261389      -0.00000153
I        5.26616774       1.51393878       5.51267520       0.00184775      -0.00261396      -0.00320157
I        3.18274449       4.46034463       9.12127012      -0.00184844       0.00261419       0.00320050
I        3.18274455       4.46034439       5.51267518      -0.00184801       0.00261380      -0.00320157
I        5.26616781       1.51393882       9.12127009       0.00184730      -0.00261426       0.00320077
