9
Lattice="4.454471711802798 1.9856250719731263e-08 2.5717905763846463 1.4848239661202938 4.199716313372192 2.571790501100352 5.6792126986748375e-08 -5.2045919714762425e-08 5.143581054402398" Properties=species:S:1:pos:R:3:forces:R:3 energy=-37.71870803833008 free_energy=-37.71870803833008 stress="-0.00018733354227151722 2.951491140379403e-08 -7.17556902785077e-09 2.951491140379403e-08 -0.00018719088984653354 -9.487704488719828e-08 -7.17556902785077e-09 -9.487704488719828e-08 -0.00018741430540103465" pbc="T T T"
Pd       1.48481175       1.04993732       2.57179312      -0.00013851       0.00009460       0.00002981
Pd       4.45446732       3.14977959       7.71536105      -0.00005083      -0.00008852      -0.00012206
Ni       0.00000078      -0.00000007       0.00000040       0.00000775      -0.00000147       0.00000176
O        1.48328815       1.04884614       5.14358041      -0.00166842      -0.00116061      -0.00000804
O        4.45601088       3.15086761       5.14358611       0.00171372       0.00113194       0.00004759
O        3.71283071       1.04884389       3.85635803       0.00087100      -0.00117032      -0.00142154
O        2.22647180       3.15087230       6.43080761      -0.00079673       0.00117373       0.00146616
O        2.22646788       3.15086988       3.85635557      -0.00083748       0.00115541      -0.00144593
O        3.71283379       1.04884833       6.43080654       0.00090006      -0.00113474       0.00145236
