9
Lattice="5.695280204981169 6.484406707452075e-08 3.2881714928713017 1.8984267859717627 5.369561642042354 3.2881715104646343 3.442738078859912e-08 4.589117553970342e-08 6.576342926112691" Properties=species:S:1:pos:R:3:forces:R:3 energy=-25.084129333496094 free_energy=-25.084129333496094 stress="2.7782312827184796e-05 4.566168776420909e-09 6.159555643314718e-10 4.566168776420909e-09 2.7850068363477476e-05 -1.3830963929706286e-08 6.159555643314718e-10 -1.3830963929706286e-08 2.7853237043018453e-05" pbc="T T T"
Pd       1.89842778       1.34238939       3.28817072       0.00000349      -0.00000469      -0.00000441
Pd       5.69528023       4.02717021       9.86451521      -0.00000016      -0.00000750       0.00000453
Ni       0.00000014      -0.00000008      -0.00000005      -0.00000278       0.00000076       0.00000025
Cl       1.84599399       1.30531543       6.57634346       0.00059742       0.00042419       0.00000295
Cl       5.74771212       4.06424716       6.57634269      -0.00059792      -0.00041676      -0.00000311
Cl       4.77228354       1.30531567       4.88684908      -0.00029764       0.00042494       0.00051424
Cl       2.82142334       4.06424673       8.26583637       0.00029761      -0.00042379      -0.00051826
Cl       2.82142421       4.06424672       4.88684937       0.00029926      -0.00042064       0.00051841
Cl       4.77228294       1.30531575       8.26583671      -0.00029945       0.00042358      -0.00051424
