9
Lattice="6.25302634920889 2.5924731831769892e-08 3.610186426376991 2.0843421352386184 5.89540977355076 3.61018643608768 -1.3349087615184322e-08 2.453873798111959e-09 7.220372875875208" Properties=species:S:1:pos:R:3:forces:R:3 energy=-30.895105361938477 free_energy=-30.895105361938477 stress="7.677484973100945e-05 2.0284769419731674e-08 3.233821876946763e-09 2.0284769419731674e-08 7.675799133721739e-05 -2.2337678928785465e-10 3.233821876946763e-09 -2.2337678928785465e-10 7.675280357943848e-05" pbc="T T T"
Pd       2.08434188       1.47385242       3.61018652      -0.00000085      -0.00000035      -0.00000014
Pd       6.25302690       4.42155739      10.83055949       0.00000163       0.00000059       0.00000147
Nb      -0.00000011      -0.00000005      -0.00000036      -0.00000118       0.00000299       0.00000435
Br       2.06320663       1.45890761       7.22037294      -0.00044474      -0.00031481      -0.00000048
Br       6.27416206       4.43650236       7.22037291       0.00044202       0.00031251      -0.00000077
Br       5.22142315       1.45890714       5.39697553       0.00022169      -0.00031346      -0.00038352
Br       3.11594499       4.43650267       9.04377021      -0.00021951       0.00031146       0.00038035
Br       3.11594517       4.43650259       5.39697566      -0.00022053       0.00031274      -0.00038259
Br       5.22142321       1.45890708       9.04377006       0.00022148      -0.00031174       0.00038133
