9
Lattice="4.50579909396736 -6.923066158274736e-10 2.6014242673200365 1.501933020462244 4.248108163725801 2.601424284999932 -1.2061364660952213e-08 1.3124675967073868e-08 5.202848555530981" Properties=species:S:1:pos:R:3:forces:R:3 energy=-34.06788635253906 free_energy=-34.06788635253906 stress="0.0001648179313633591 4.648883589197794e-08 -1.1181273684712778e-08 4.648883589197794e-08 0.0001647054305067286 5.376875833462691e-09 -1.1181273684712778e-08 5.376875833462691e-09 0.00016472850984428078" pbc="T T T"
Pd       1.50193360       1.06202746       2.60142423       0.00000511       0.00000447       0.00000007
Pd       4.50579933       3.18608140       7.80427283       0.00000053       0.00000034      -0.00000058
Ni      -0.00000001       0.00000005       0.00000002      -0.00000802      -0.00000648       0.00000319
F        1.49486602       1.05702995       5.20284855      -0.00129394      -0.00091484       0.00000017
F        4.51286569       3.19107803       5.20284852       0.00130323       0.00092134      -0.00000010
F        3.75836572       1.05702999       3.89601632       0.00064749      -0.00091982      -0.00112440
F        2.24936599       3.19107794       6.50968086      -0.00064998       0.00091562       0.00112262
F        2.24936614       3.19107786       3.89601621      -0.00065026       0.00091575      -0.00112292
F        3.75836588       1.05703007       6.50968087       0.00064597      -0.00091641       0.00112180
