9
Lattice="6.699818569164813 1.1333041238624996e-08 3.8681420892792233 2.2332728516542253 6.316649735511795 3.868142115985579 1.635699720486607e-08 4.4274581474277345e-08 7.736284150227199" Properties=species:S:1:pos:R:3:forces:R:3 energy=-27.295656204223633 free_energy=-27.295656204223633 stress="0.00016984208195935935 -1.0121058657830417e-08 -1.9227071046401534e-09 -1.0121058657830417e-08 0.00016984275134745985 6.607661973134782e-09 -1.9227071046401534e-09 6.607661973134782e-09 0.00016985263209789991" pbc="T T T"
Pd       2.23327271       1.57916236       3.86814187      -0.00000111       0.00000022      -0.00000030
Pd       6.69981840       4.73748741      11.60442636       0.00000047       0.00000012       0.00000037
Nb       0.00000009       0.00000001       0.00000044       0.00000028       0.00000079      -0.00000355
I        2.24435192       1.58699650       7.73628434      -0.00648203      -0.00458333       0.00000007
I        6.68873956       4.72965297       7.73628408       0.00648223       0.00458316       0.00000001
I        5.57764275       1.58699662       5.81180790       0.00324137      -0.00458383      -0.00561431
I        3.35544898       4.72965327       9.66076039      -0.00324243       0.00458531       0.00561533
I        3.35544891       4.72965346       5.81180768      -0.00324085       0.00458283      -0.00561322
I        5.57764243       1.58699657       9.66076034       0.00324209      -0.00458530       0.00561569
