9
Lattice="5.932264640239418 1.2962257521935005e-07 3.4249945015474244 1.9774216139200858 5.592992730106198 3.4249945968722275 -1.5472052585000354e-07 7.34457176148807e-09 6.849989271078727" Properties=species:S:1:pos:R:3:forces:R:3 energy=-34.62360382080078 free_energy=-34.62360382080078 stress="0.00018035656830761582 5.582463935560611e-10 2.9344363383643213e-08 5.582463935560611e-10 0.00018033277592621744 1.4078583632226582e-08 2.9344363383643213e-08 1.4078583632226582e-08 0.0001802971091819927" pbc="T T T"
Pd       1.97742057       1.39824682       3.42499436      -0.00000133      -0.00000298       0.00000034
Pd       5.93226432       4.19474368      10.27498548      -0.00000160      -0.00000275       0.00000337
Nb       0.00000026       0.00000024      -0.00000052      -0.00000261      -0.00000106       0.00000167
Cl       1.94550398       1.37567917       6.84998932      -0.00207452      -0.00146625       0.00000159
Cl       5.96418238       4.21731427       6.84998898       0.00207654       0.00147029      -0.00000168
Cl       4.95951287       1.37567957       5.10984954       0.00103796      -0.00146504      -0.00179724
Cl       2.95017338       4.21731429       8.59012825      -0.00103774       0.00146734       0.00179307
Cl       2.95017365       4.21731445       5.10984980      -0.00103463       0.00146703      -0.00179576
Cl       4.95951309       1.37567908       8.59012823       0.00103812      -0.00146636       0.00179468
