9
Lattice="5.856962827553274 7.456599004177282e-08 3.3815191690083184 1.9523210445187351 5.521997800490133 3.381519114103182 7.694846586748497e-08 -1.2834015123146227e-08 6.763038204737974" Properties=species:S:1:pos:R:3:forces:R:3 energy=-31.166854858398438 free_energy=-31.166854858398438 stress="0.0003023351891897619 3.07250296316397e-08 4.733517755539651e-08 3.07250296316397e-08 0.000302341504720971 1.1032413205214198e-08 4.733517755539651e-08 1.1032413205214198e-08 0.0003023374010808766" pbc="T T T"
Pd       1.95232125       1.38049929       3.38151888       0.00000069      -0.00000087       0.00000031
Pd       5.85696298       4.14149822      10.14455756       0.00000071       0.00000018       0.00000162
Os      -0.00000020      -0.00000005       0.00000028       0.00000242      -0.00000238      -0.00000061
Cl       1.89398053       1.33924651       6.76303828      -0.00157833      -0.00111598       0.00000063
Cl       5.91530314       4.18275124       6.76303829       0.00157863       0.00111693      -0.00000069
Cl       4.90997254       1.33924700       5.02175449       0.00078839      -0.00111473      -0.00136581
Cl       2.89931149       4.18275122       8.50432168      -0.00079024       0.00111562       0.00136682
Cl       2.89931146       4.18275127       5.02175457      -0.00079006       0.00111720      -0.00136781
Cl       4.90997252       1.33924667       8.50432181       0.00078765      -0.00111580       0.00136596
