9
Lattice="6.188569331723525 8.725853343050532e-08 3.5729721849550806 2.0628564682991093 5.834639657417231 3.572972285200707 1.6577126848698423e-08 1.344971309745904e-07 7.145944341197751" Properties=species:S:1:pos:R:3:forces:R:3 energy=-28.000364303588867 free_energy=-28.000364303588867 stress="-1.8209585732620326e-06 1.5468263114826186e-08 1.370507352049799e-08 1.5468263114826186e-08 -1.8648013337951852e-06 -3.87052034866997e-09 1.370507352049799e-08 -3.87052034866997e-09 -1.8659131910681026e-06" pbc="T T T"
Pd       2.06285668       1.45865926       3.57297042       0.00000048      -0.00000206      -0.00000544
Pd       6.18856926       4.37598031      10.71891560      -0.00000093       0.00000162      -0.00000199
Os      -0.00000013      -0.00000003       0.00000038       0.00000050       0.00000208       0.00000227
Br       2.01607639       1.42558133       7.14594464      -0.00012890      -0.00009149       0.00000210
Br       6.23534928       4.40905877       7.14594459       0.00012803       0.00009161       0.00000114
Br       5.18053154       1.42558115       5.31894638       0.00006393      -0.00009029      -0.00010955
Br       3.07089473       4.40905829       8.97294388      -0.00006256       0.00008823       0.00010842
Br       3.07089460       4.40905868       5.31894594      -0.00006330       0.00009067      -0.00010805
Br       5.18053091       1.42558172       8.97294359       0.00006267      -0.00009045       0.00011110
