9
Lattice="4.88335525887167 -4.4389883083142985e-07 2.819405258052875 1.6277848291974457 4.604069683766035 2.8194049784674147 -1.892734794259159e-08 -3.558045520854961e-07 5.638810548888932" Properties=species:S:1:pos:R:3:forces:R:3 energy=-41.19438171386719 free_energy=-41.19438171386719 stress="-0.00012238977069500834 1.3450907054846084e-08 -1.4674912840462184e-08 1.3450907054846084e-08 -0.0001223641011165455 2.6579609624377554e-08 -1.4674912840462184e-08 2.6579609624377554e-08 -0.0001223642029799521" pbc="T T T"
Pd       1.62778678       1.15101520       2.81940449       0.00000631      -0.00000857      -0.00000143
Pd       4.88335478       3.45305491       8.45821503      -0.00000114       0.00001291      -0.00000334
Os      -0.00000027       0.00000002       0.00000001       0.00000223       0.00000052       0.00000516
F        1.59554775       1.12821928       5.63881078       0.00442363       0.00312310       0.00000070
F        4.91559210       3.47584926       5.63881107      -0.00442731      -0.00312487       0.00000075
F        4.08558095       1.12822070       4.20118935      -0.00221172       0.00312366       0.00382956
F        2.42555792       3.47584834       7.07643154       0.00221175      -0.00312760      -0.00383041
F        2.42555785       3.47584811       4.20118918       0.00221106      -0.00312681       0.00383086
F        4.08558120       1.12822033       7.07643216      -0.00221483       0.00312767      -0.00383177
