9
Lattice="6.4961024278119535 4.660523070851444e-08 3.7505264781728695 2.1653675149076155 6.1245841683912285 3.750526486780336 6.889825046705212e-08 5.926036130111997e-08 7.50105283701049" Properties=species:S:1:pos:R:3:forces:R:3 energy=-25.622203826904297 free_energy=-25.622203826904297 stress="0.00025612625177018344 1.5106692785593623e-08 4.41532055361904e-09 1.5106692785593623e-08 0.00025606874260120094 -1.324435894289877e-09 4.41532055361904e-09 -1.324435894289877e-09 0.00025605622795410454" pbc="T T T"
Pd       2.16536762       1.53114649       3.75052658       0.00000012       0.00000101       0.00000026
Pd       6.49610266       4.59343807      11.25158000       0.00000068       0.00000011       0.00000166
Os      -0.00000001      -0.00000010       0.00000001      -0.00000267      -0.00000037       0.00000255
I        2.18357780       1.54402283       7.50105278       0.00171223       0.00120933       0.00000005
I        6.47789220       4.58056127       7.50105271      -0.00171073      -0.00120881      -0.00000015
I        5.40431358       1.54402291       5.64156045      -0.00085469       0.00120899       0.00148022
I        3.25715624       4.58056141       9.36054526       0.00085586      -0.00121153      -0.00148280
I        3.25715658       4.58056136       5.64156038       0.00085549      -0.00120857       0.00148018
I        5.40431342       1.54402283       9.36054513      -0.00085631       0.00120979      -0.00148194
