9
Lattice="5.4319406331744 4.4460300954908806e-08 3.1361323046121132 1.8106468940274167 5.121282665785602 3.1361323489784887 -2.0778201867591834e-08 3.964510759017858e-08 6.272264645213128" Properties=species:S:1:pos:R:3:forces:R:3 energy=-33.91691207885742 free_energy=-33.91691207885742 stress="0.00025037332670763135 3.481466137600364e-08 -4.733507807941351e-09 3.481466137600364e-08 0.0002503284194972366 1.591332576822424e-08 -4.733507807941351e-09 1.591332576822424e-08 0.0002503112773410976" pbc="T T T"
Pd       1.81064755       1.28032055       3.13613216       0.00000378      -0.00000079      -0.00000069
Pd       5.43194057       3.84096175       9.40839765      -0.00000086      -0.00000111       0.00000399
P        0.00000022       0.00000006      -0.00000007      -0.00000413      -0.00000510       0.00000386
Se       1.87536761       1.32608524       6.27226451      -0.00224105      -0.00158384      -0.00000051
Se       5.36721942       3.79519756       6.27226436       0.00224471       0.00158872      -0.00000156
Se       4.49425663       1.32608548       4.76024828       0.00112033      -0.00158420      -0.00194354
Se       2.74833042       3.79519753       7.78428091      -0.00112174       0.00158426       0.00193980
Se       2.74833102       3.79519770       4.76024821      -0.00111876       0.00158581      -0.00194198
Se       4.49425654       1.32608507       7.78428117       0.00111778      -0.00158401       0.00194065
