9
Lattice="6.071077621402469 2.8128535770994166e-07 3.505138352434567 2.0236928203594116 5.723866815775418 3.5051383269846466 -1.7524583571297418e-08 -4.356141091385541e-08 7.010276735222636" Properties=species:S:1:pos:R:3:forces:R:3 energy=-22.607532501220703 free_energy=-22.607532501220703 stress="3.081481918343343e-05 -1.7180758149493158e-08 -5.53607737430184e-09 -1.7180758149493158e-08 3.078436930081807e-05 -4.7377288758809755e-09 -5.53607737430184e-09 -4.7377288758809755e-09 3.0810144380666316e-05" pbc="T T T"
Pd       2.02369347       1.43096709       3.50513835       0.00000256       0.00000105       0.00000052
Pd       6.07107664       4.29290164      10.51541563      -0.00000430       0.00000392       0.00000015
P        0.00000069       0.00000048       0.00000065      -0.00000011      -0.00000200      -0.00000170
Br       1.95940805       1.38550993       7.01027647      -0.00043061      -0.00030577      -0.00000029
Br       6.13536197       4.33835601       7.01027684       0.00043187       0.00030571       0.00000020
Br       5.09137405       1.38551051       5.20203502       0.00021525      -0.00030531      -0.00037444
Br       3.00339672       4.33835637       8.81851817      -0.00021459       0.00030364       0.00037399
Br       3.00339670       4.33835606       5.20203494      -0.00021513       0.00030462      -0.00037411
Br       5.09137335       1.38551020       8.81851768       0.00021510      -0.00030605       0.00037551
