9
Lattice="5.855094380449996 2.8759475556201635e-07 3.3804406605149775 1.9516983920238982 5.520236597703975 3.3804406708028334 1.0213377786396095e-07 8.481948544875584e-08 6.760881144129045" Properties=species:S:1:pos:R:3:forces:R:3 energy=-26.39682388305664 free_energy=-26.39682388305664 stress="7.66992088756524e-05 -4.8968678001415356e-09 -1.2819792338802927e-08 -4.8968678001415356e-09 7.673643995076418e-05 1.2175685348836396e-08 -1.2819792338802927e-08 1.2175685348836396e-08 7.673365325899795e-05" pbc="T T T"
Pd       1.95169771       1.38005981       3.38044025      -0.00000203       0.00000060      -0.00000148
Pd       5.85509472       4.14017816      10.14132170       0.00000164       0.00000130       0.00000012
Pt       0.00000007       0.00000001       0.00000003       0.00000223      -0.00000170      -0.00000041
Cl       1.89855570       1.34248213       6.76088155       0.00666806       0.00471486       0.00000025
Cl       5.90823722       4.17775475       6.76088135      -0.00666955      -0.00471681      -0.00000064
Cl       4.90581655       1.34248177       5.02463876      -0.00333415       0.00471519       0.00577629
Cl       2.90097672       4.17775451       8.49712390       0.00333402      -0.00471316      -0.00577167
Cl       2.90097619       4.17775467       5.02463844       0.00333448      -0.00471635       0.00577423
Cl       4.90581667       1.34248186       8.49712386      -0.00333472       0.00471599      -0.00577646
