9
Lattice="6.112116765993687 2.5717609264684575e-08 3.5288323197898337 2.037372274008373 5.762559000170631 3.5288323294367663 8.405557832522497e-08 7.125134380879832e-08 7.057664493991104" Properties=species:S:1:pos:R:3:forces:R:3 energy=-24.05744171142578 free_energy=-24.05744171142578 stress="2.5340528736705892e-05 1.560336748696045e-08 5.727700536084512e-09 1.560336748696045e-08 2.5344525056425482e-05 -8.01592836552345e-09 5.727700536084512e-09 -8.01592836552345e-09 2.5315543098258786e-05" pbc="T T T"
Pd       2.03737207       1.44064062       3.52883283      -0.00000001       0.00000224       0.00000143
Pd       6.11211672       4.32191838      10.58649650      -0.00000035      -0.00000284      -0.00000158
Pt       0.00000015      -0.00000012       0.00000015      -0.00000363       0.00000235       0.00000075
Br       2.01552895       1.42519465       7.05766446       0.00181863       0.00128659      -0.00000123
Br       6.13396004       4.33736460       7.05766469      -0.00181733      -0.00128679       0.00000094
Br       5.10435248       1.42519447       5.27433177      -0.00091006       0.00128725       0.00157615
Br       3.04513692       4.33736453       8.84099725       0.00091127      -0.00128764      -0.00157719
Br       3.04513696       4.33736472       5.27433165       0.00091015      -0.00128807       0.00157614
Br       5.10435223       1.42519447       8.84099731      -0.00090869       0.00128694      -0.00157548
