9
Lattice="6.46892466154634 -1.959953730656501e-08 3.7348353884364505 2.15630823021101 6.098960588930939 3.73483533963732 -2.6492760518268988e-08 -7.84996757683012e-08 7.469670822759729" Properties=species:S:1:pos:R:3:forces:R:3 energy=-22.157373428344727 free_energy=-22.157373428344727 stress="-9.105193748837337e-05 1.3606022974954612e-09 3.344943655392285e-09 1.3606022974954612e-09 -9.104676428250968e-05 4.5544950033615805e-09 3.344943655392285e-09 4.5544950033615805e-09 -9.105470235226676e-05" pbc="T T T"
Pd       2.15630844       1.52474025       3.73483559       0.00000062       0.00000047       0.00000045
Pd       6.46892468       4.57422029      11.20450573      -0.00000047      -0.00000039      -0.00000080
Pt       0.00000019       0.00000033      -0.00000027      -0.00000120      -0.00000233       0.00000300
I        2.18454694       1.54470802       7.46967074       0.00283040       0.00200099       0.00000046
I        6.44068560       4.55425236       7.46967094      -0.00282799      -0.00199966       0.00000022
I        5.37665103       1.54470800       5.62670852      -0.00141445       0.00199942       0.00244980
I        3.24858172       4.55425254       9.31263312       0.00141531      -0.00200092      -0.00245076
I        3.24858161       4.55425217       5.62670870       0.00141321      -0.00199904       0.00244889
I        5.37665130       1.54470799       9.31263313      -0.00141535       0.00200152      -0.00245127
