9
Lattice="5.855371273373756 2.192716238690942e-08 3.380600282403864 1.9517904295479331 5.520497487606121 3.3806003093946937 1.0470686619118443e-07 1.0709566942187744e-07 6.761200383450222" Properties=species:S:1:pos:R:3:forces:R:3 energy=-26.396820068359375 free_energy=-26.396820068359375 stress="0.00037962730857543647 1.763376644703385e-08 -2.3392399128852048e-08 1.763376644703385e-08 0.000379628618247807 1.434959484569731e-09 -2.3392399128852048e-08 1.434959484569731e-09 0.00037958440952934325" pbc="T T T"
Pd       1.95179075       1.38012401       3.38059994      -0.00000043      -0.00000049       0.00000071
Pd       5.85537202       4.14037359      10.14180015       0.00000165       0.00000091      -0.00000283
Pt       0.00000011       0.00000001       0.00000022      -0.00000967       0.00000244       0.00000251
Cl       1.89946160       1.34312263       6.76120088      -0.00612238      -0.00433001       0.00000171
Cl       5.90769909       4.17737507       6.76120077       0.00612924       0.00433519       0.00000017
Cl       4.90564017       1.34312229       5.02558261       0.00306320      -0.00433451      -0.00530598
Cl       2.90152135       4.17737510       8.49681850      -0.00306173       0.00432922       0.00530198
Cl       2.90152130       4.17737482       5.02558234      -0.00306214       0.00432864      -0.00530225
Cl       4.90564085       1.34312295       8.49681843       0.00306186      -0.00433137       0.00530407
