9
Lattice="5.769482319263168 -1.3858845940406542e-09 3.331012132451308 1.923160771232859 5.439520881957375 3.33101213340086 -1.3213239911978547e-08 -8.180199185469386e-09 6.662024287788581" Properties=species:S:1:pos:R:3:forces:R:3 energy=-26.55105209350586 free_energy=-26.55105209350586 stress="-5.26702860952355e-05 9.430207725813489e-09 -4.337309178481519e-09 9.430207725813489e-09 -5.271987902233377e-05 4.371305095673961e-08 -4.337309178481519e-09 4.371305095673961e-08 -5.271138797979802e-05" pbc="T T T"
Pd       1.92316090       1.35988018       3.33101189       0.00000170      -0.00000171      -0.00000169
Pd       5.76948264       4.07964065       9.99303640       0.00000149       0.00000106      -0.00000010
P       -0.00000020      -0.00000008       0.00000010       0.00000326       0.00000062      -0.00000136
Cl       1.79443502       1.26885721       6.66202405      -0.00000507      -0.00000447      -0.00000086
Cl       5.89820798       4.17066364       6.66202456       0.00000232       0.00000194       0.00000124
Cl       4.87226502       1.26885737       4.88503849       0.00000186      -0.00000232      -0.00000119
Cl       2.82037816       4.17066328       8.43900995      -0.00000437       0.00000545       0.00000465
Cl       2.82037832       4.17066384       4.88503850      -0.00000064       0.00000119      -0.00000212
Cl       4.87226449       1.26885735       8.43901021      -0.00000067      -0.00000173       0.00000182
