9
Lattice="5.292910143699747 -9.721973495595709e-08 3.0558628129805525 1.7643033031666826 4.990203348737063 3.0558627894366275 -5.958840359851284e-08 -7.097066451540242e-08 6.1117257291712495" Properties=species:S:1:pos:R:3:forces:R:3 energy=-34.48460006713867 free_energy=-34.48460006713867 stress="-0.00018727152200881392 -7.892347042570691e-08 -2.5262648861712478e-08 -7.892347042570691e-08 -0.00018732149328570813 -4.561780286849171e-08 -2.5262648861712478e-08 -4.561780286849171e-08 -0.00018721488595474511" pbc="T T T"
Pd       1.76430498       1.24755028       3.05586266       0.00002379      -0.00000580      -0.00000012
Pd       5.29290943       3.74265327       9.16758509      -0.00000566       0.00001144      -0.00004283
P        0.00000019       0.00000012       0.00000002      -0.00000181      -0.00000048      -0.00000154
S        1.76444986       1.24765320       6.11172547       0.00170791       0.00119573      -0.00000551
S        5.29276368       3.74254976       6.11172633      -0.00170946      -0.00119525       0.00001400
S        4.41068417       1.24765291       4.58392124      -0.00086677       0.00118893       0.00147629
S        2.64652895       3.74254891       7.63953138       0.00086379      -0.00120276      -0.00146282
S        2.64652708       3.74254889       4.58392142       0.00084132      -0.00120348       0.00148082
S        4.41068529       1.24765514       7.63953140      -0.00085312       0.00121170      -0.00145912
