9
Lattice="3.929656002545977 1.5561278724147157e-07 2.2687879812183946 1.3098855488026555 3.704914726615643 2.2687878635991616 2.1600862976427305e-07 8.687573928769953e-09 4.537575588298944" Properties=species:S:1:pos:R:3:forces:R:3 energy=-45.45697784423828 free_energy=-45.45697784423828 stress="0.0001701074215816334 -5.007932202261145e-08 6.117734869803826e-07 -5.007932202261145e-08 0.0001685162278590724 -1.1494873319861654e-07 6.117734869803826e-07 -1.1494873319861654e-07 0.00016948662232607603" pbc="T T T"
Pd       1.30988596       0.92622920       2.26878642      -0.00002473       0.00000626       0.00004794
Pd       3.92965348       2.77868750       6.80636358      -0.00001879       0.00000471       0.00004189
P       -0.00000456       0.00000130       0.00000859       0.00091904      -0.00025730      -0.00160733
O        1.37277668       0.97069970       4.53757679       0.00106180       0.00066680      -0.00013312
O        3.86676911       2.73421794       4.53757662      -0.00163972      -0.00123756      -0.00014401
O        3.24327136       0.97069432       3.45764228      -0.00108505       0.00163493       0.00188890
O        1.99627570       2.73421294       5.61750218       0.00025498      -0.00026195      -0.00044546
O        1.99627164       2.73421793       3.45764502       0.00094144      -0.00122296       0.00134020
O        3.24326817       0.97069943       5.61750499      -0.00041002       0.00066821      -0.00098941
