9
Lattice="4.849644466314792 -1.7735984083429566e-07 2.7999436060317944 1.6165480385797522 4.572288542551138 2.799943518809232 -2.617844746021186e-08 -1.2533632359939552e-07 5.59988725740592" Properties=species:S:1:pos:R:3:forces:R:3 energy=-34.81846618652344 free_energy=-34.81846618652344 stress="0.0003086757205892354 -9.22311116369201e-08 5.356782750709499e-08 -9.22311116369201e-08 0.0003087396908085793 -5.77690926206742e-08 5.356782750709499e-08 -5.77690926206742e-08 0.000308810529531911" pbc="T T T"
Pd       1.61654872       1.14307232       2.79994339       0.00000360       0.00000166      -0.00000108
Pd       4.84964405       3.42921628       8.39983067      -0.00000132       0.00000088       0.00000013
Pt       0.00000013      -0.00000011      -0.00000002      -0.00000850       0.00000646       0.00000108
F        1.61013447       1.13853671       5.59988741      -0.00349035      -0.00246874      -0.00000028
F        4.85605790       3.43375158       5.59988724       0.00349072       0.00246845       0.00000023
F        4.04457719       1.13853720       4.19436106       0.00174848      -0.00247261      -0.00302879
F        2.42161507       3.43375105       7.00541344      -0.00174534       0.00246748       0.00302447
F        2.42161533       3.43375115       4.19436103      -0.00174690       0.00247139      -0.00302795
F        4.04457685       1.13853683       7.00541329       0.00174967      -0.00247493       0.00303230
