9
Lattice="6.471669740668382 5.042096260305392e-08 3.736420311546748 2.157223317452567 6.101548696769257 3.7364202716649584 3.559954664885332e-08 -2.3672344213645313e-08 7.472840561433264" Properties=species:S:1:pos:R:3:forces:R:3 energy=-22.157339096069336 free_energy=-22.157339096069336 stress="0.0001933874882524833 1.0095812186250441e-08 9.958227131789954e-09 1.0095812186250441e-08 0.00019337287812959403 -3.628557676549349e-09 9.958227131789954e-09 -3.628557676549349e-09 0.0001933591702254489" pbc="T T T"
Pd       2.15722334       1.52538727       3.73642031      -0.00000055      -0.00000001       0.00000087
Pd       6.47166988       4.57616136      11.20926055      -0.00000045      -0.00000110      -0.00000054
Pt       0.00000008      -0.00000002       0.00000017      -0.00000166      -0.00000029      -0.00000044
I        2.18492066       1.54497244       7.47284042       0.00322974       0.00228392      -0.00000016
I        6.44397234       4.55657634       7.47284086      -0.00322771      -0.00228245       0.00000023
I        5.37920959       1.54497213       5.62861703      -0.00161493       0.00228463       0.00279726
I        3.24968358       4.55657653       9.31706403       0.00161524      -0.00228418      -0.00279759
I        3.24968352       4.55657652       5.62861704       0.00161539      -0.00228392       0.00279748
I        5.37920939       1.54497235       9.31706415      -0.00161507       0.00228337      -0.00279713
