9
Lattice="4.8500379908486275 -7.963606851461485e-07 2.8001757786743955 1.6166792181909508 4.57264955017199 2.8001746723729783 1.3179839578170095e-06 -4.229824330488057e-07 5.600349274533501" Properties=species:S:1:pos:R:3:forces:R:3 energy=-34.81846237182617 free_energy=-34.81846237182617 stress="0.00037474167766049504 -4.2329912020022675e-08 -1.2416466077525001e-08 -4.2329912020022675e-08 0.0003747535520233214 3.205186871468868e-08 -1.2416466077525001e-08 3.205186871468868e-08 0.00037479231832548976" pbc="T T T"
Pd       1.61667241       1.14315133       2.80017968      -0.00004703      -0.00009594       0.00002194
Pd       4.85003945       3.42949715       8.40053551       0.00001533       0.00009688       0.00006061
Pt       0.00000032       0.00000029      -0.00000173       0.00000629      -0.00000922       0.00000500
F        1.61018347       1.13855921       5.60034837      -0.00397625      -0.00283046      -0.00001146
F        4.85653571       3.43408900       5.60034593       0.00398476       0.00282625      -0.00002274
F        4.04495078       1.13855619       4.19463676       0.00200237      -0.00282956      -0.00344885
F        2.42176762       3.43409398       7.00605779      -0.00199547       0.00283914       0.00342865
F        2.42177204       3.43409179       4.19463256      -0.00198188       0.00283377      -0.00345881
F        4.04495060       1.13855431       7.00606088       0.00199189      -0.00283072       0.00342574
