9
Lattice="4.945967157712393 -4.081478015888695e-08 2.855554970976743 1.648655768491933 4.663100807401356 2.8555548190153015 1.5021361559269019e-07 -7.989696400698948e-08 5.711109681775841" Properties=species:S:1:pos:R:3:forces:R:3 energy=-39.58192443847656 free_energy=-39.58192443847656 stress="0.00013007900270167738 1.6857242712831066e-08 -2.1161346452913676e-08 1.6857242712831066e-08 0.00013005512300878763 2.4150024202640452e-09 -2.1161346452913676e-08 2.4150024202640452e-09 0.00013002757623326033" pbc="T T T"
Pd       1.64865753       1.16577421       2.85555620       0.00000833      -0.00000342       0.00000632
Pd       4.94596358       3.49732726       8.56666176      -0.00001400       0.00000580      -0.00000976
Ru       0.00000012      -0.00000010      -0.00000001       0.00000476      -0.00000086       0.00000534
F        1.58887215       1.12350065       5.71110912       0.00378885       0.00267338      -0.00000109
F        5.00575146       3.53960022       5.71111064      -0.00379056      -0.00267885       0.00000407
F        4.15153030       1.12350101       4.23155728      -0.00189603       0.00267600       0.00328050
F        2.44309288       3.53959996       7.19066253       0.00190080      -0.00267894      -0.00327883
F        2.44309241       3.53959849       4.23155722       0.00189495      -0.00267752       0.00327743
F        4.15153189       1.12350104       7.19066264      -0.00189711       0.00268439      -0.00328397
