9
Lattice="6.084525690172875 1.9407449181350264e-08 3.512902561020685 2.0281752943663456 5.736545485702997 3.5129024813269836 1.8668248146588774e-07 3.439992444570685e-08 7.025804798697875" Properties=species:S:1:pos:R:3:forces:R:3 energy=-25.43740463256836 free_energy=-25.43740463256836 stress="-1.3697042504645651e-06 1.466651466941471e-09 -4.059323543970095e-09 1.466651466941471e-09 -1.3724761629418936e-06 -4.493983851716621e-09 -4.059323543970095e-09 -4.493983851716621e-09 -1.3656404007633682e-06" pbc="T T T"
Pd       2.02817535       1.43413627       3.51290356       0.00000112       0.00000051       0.00000315
Pd       6.08452634       4.30240919      10.53870658       0.00000194      -0.00000033      -0.00000238
Rh      -0.00000012      -0.00000008       0.00000000      -0.00000019      -0.00000175      -0.00000018
Br       2.01140186       1.42227591       7.02580443      -0.00020669      -0.00014529      -0.00000040
Br       6.10129933       4.31426958       7.02580507       0.00020636       0.00014572       0.00000075
Br       5.07882421       1.42227594       5.25482751       0.00010249      -0.00014668      -0.00017862
Br       3.03387664       4.31426971       8.79678230      -0.00010342       0.00014632       0.00017884
Br       3.03387604       4.31426968       5.25482793      -0.00010503       0.00014712      -0.00017866
Br       5.07882510       1.42227596       8.79678209       0.00010338      -0.00014568       0.00017752
