9
Lattice="5.82924624249272 -1.1233881853199858e-08 3.3655169962555704 1.9430821081962886 5.495866167534193 3.3655169305124524 2.2598837791877643e-08 -6.453871577548436e-08 6.731033953368798" Properties=species:S:1:pos:R:3:forces:R:3 energy=-29.473587036132812 free_energy=-29.473587036132812 stress="0.0002734370355028659 -1.2570359197994208e-09 3.1591205207348594e-09 -1.2570359197994208e-09 0.0002734029549174011 -1.1329666094184176e-09 3.1591205207348594e-09 -1.1329666094184176e-09 0.00027343095280230045" pbc="T T T"
Pd       1.94308210       1.37396675       3.36551619       0.00000111       0.00000220      -0.00000420
Pd       5.82924581       4.12189981      10.09655271      -0.00000011       0.00000029       0.00000786
Ru       0.00000022      -0.00000011      -0.00000006       0.00000138       0.00000034      -0.00000008
Cl       1.90159959       1.34463405       6.73103415       0.00031656       0.00022513       0.00000088
Cl       5.87072893       4.15123191       6.73103305      -0.00031805      -0.00022691      -0.00000458
Cl       4.87844666       1.34463412       5.01235038      -0.00015827       0.00022483       0.00027639
Cl       2.89388180       4.15123189       8.44971730       0.00015755      -0.00022474      -0.00027531
Cl       2.89388238       4.15123232       5.01235062       0.00016043      -0.00022405       0.00027499
Cl       4.87844600       1.34463370       8.44971714      -0.00016060       0.00022319      -0.00027585
