9
Lattice="6.559903684463467 -2.2789689353718044e-09 3.7873622137514014 2.1866345632072135 6.184736363381446 3.7873622070518005 6.471943998199275e-08 3.7558247243069015e-08 7.574724315405473" Properties=species:S:1:pos:R:3:forces:R:3 energy=-27.318395614624023 free_energy=-27.318395614624023 stress="0.0001951717713382095 4.8821684472954985e-09 4.155458199761597e-09 4.8821684472954985e-09 0.00019514674204401672 -1.043814279455546e-08 4.155458199761597e-09 -1.043814279455546e-08 0.00019515460007824004" pbc="T T T"
Pd       2.18663464       1.54618376       3.78736245      -0.00000026      -0.00000075       0.00000012
Pd       6.55990391       4.63855231      11.36208649       0.00000081      -0.00000046      -0.00000031
Re       0.00000011      -0.00000006      -0.00000023       0.00000170       0.00000324       0.00000325
I        2.18825744       1.54733157       7.57472437       0.00154514       0.00109351      -0.00000007
I        6.55828094       4.63740494       7.57472435      -0.00154721      -0.00109363       0.00000036
I        5.46577487       1.54733173       5.68244883      -0.00077384       0.00109286       0.00133791
I        3.28076320       4.63740492       9.46700004       0.00077412      -0.00109462      -0.00134059
I        3.28076324       4.63740475       5.68244876       0.00077325      -0.00109341       0.00133869
I        5.46577491       1.54733168       9.46699995      -0.00077377       0.00109335      -0.00133931
