9
Lattice="6.444218440316508 -1.166022023980107e-08 3.720571256400349 2.148072797493762 6.075667515235512 3.7205712649769596 -2.458633657839029e-08 -6.880977404357979e-09 7.441142555385474" Properties=species:S:1:pos:R:3:forces:R:3 energy=-23.71942901611328 free_energy=-23.71942901611328 stress="0.0002096999087370932 2.252602326890951e-09 5.388411938866966e-09 2.252602326890951e-09 0.00020968719036318362 -3.243489254955989e-09 5.388411938866966e-09 -3.243489254955989e-09 0.00020969496108591557" pbc="T T T"
Pd       2.14807281       1.51891715       3.72057102       0.00000044       0.00000043      -0.00000080
Pd       6.44421833       4.55675030      11.16171314      -0.00000082      -0.00000050      -0.00000091
Rh       0.00000005      -0.00000001       0.00000012       0.00000123       0.00000127       0.00000214
I        2.16334862       1.52971850       7.44114257       0.00129203       0.00091411       0.00000030
I        6.42894255       4.54594898       7.44114278      -0.00129391      -0.00091537       0.00000042
I        5.36254429       1.52971838       5.59408631      -0.00064572       0.00091401       0.00111939
I        3.22974708       4.54594894       9.28819906       0.00064741      -0.00091514      -0.00112050
I        3.22974714       4.54594911       5.59408637       0.00064606      -0.00091412       0.00111957
I        5.36254397       1.52971868       9.28819898      -0.00064670       0.00091528      -0.00111968
