9
Lattice="5.827206953780351 7.316897515349378e-09 3.3643396979786666 1.9424023621964153 5.493943873769307 3.364339633249866 4.181806628042058e-08 -4.970644959816624e-08 6.7286793235263405" Properties=species:S:1:pos:R:3:forces:R:3 energy=-33.360260009765625 free_energy=-33.360260009765625 stress="0.00022644166892860085 -9.327088434929465e-09 1.5401562691863546e-08 -9.327088434929465e-09 0.00022644073760602623 1.585950570870409e-08 1.5401562691863546e-08 1.585950570870409e-08 0.00022646535944659263" pbc="T T T"
Pd       1.94240292       1.37348515       3.36433926       0.00000196      -0.00000189      -0.00000099
Pd       5.82720647       4.12045821      10.09302139      -0.00000130       0.00000094       0.00000808
Re       0.00000007       0.00000016      -0.00000042      -0.00000222      -0.00000040       0.00000656
Cl       1.90410132       1.34640222       6.72867907      -0.00054461      -0.00038633      -0.00000021
Cl       5.86550804       4.14754120       6.72867855       0.00054637       0.00038841      -0.00000208
Cl       4.87515688       1.34640363       5.01333950       0.00027478      -0.00038701      -0.00047675
Cl       2.89445234       4.14754110       8.44401886      -0.00027190       0.00038305       0.00046852
Cl       2.89445333       4.14754119       5.01333934      -0.00027375       0.00038901      -0.00047445
Cl       4.87515613       1.34640241       8.44401925       0.00027056      -0.00038564       0.00047132
