9
Lattice="5.45073217535804 3.5232460758739947e-09 3.146981679873102 1.8169107405314877 5.1389995388327945 3.146981658931936 3.860969199786164e-08 1.6535855181608592e-09 6.293963292872229" Properties=species:S:1:pos:R:3:forces:R:3 energy=-36.47527313232422 free_energy=-36.47527313232422 stress="-0.00027515669353306293 5.8449591833209524e-09 -4.694237887292729e-09 5.8449591833209524e-09 -0.00027515541296452284 8.059582445874014e-10 -4.694237887292729e-09 8.059582445874014e-10 -0.00027516044792719185" pbc="T T T"
Pd       1.81691082       1.28474996       3.14698158      -0.00000019       0.00000024      -0.00000057
Pd       5.45073224       3.85425011       9.44094456       0.00000025       0.00000333      -0.00000229
Rh       0.00000015       0.00000002       0.00000001      -0.00000064       0.00000024       0.00000048
Se       2.02336661       1.43073606       6.29396339      -0.00416154      -0.00294386       0.00000014
Se       5.24427641       3.70826309       6.29396354       0.00416052       0.00294137      -0.00000054
Se       4.43904884       1.43073574       4.89926859       0.00207984      -0.00294270      -0.00360274
Se       2.82859431       3.70826335       7.68865822      -0.00207981       0.00294296       0.00360349
Se       2.82859380       3.70826351       4.89926849      -0.00208014       0.00294112      -0.00360203
Se       4.43904866       1.43073630       7.68865818       0.00208157      -0.00294271       0.00360394
