9
Lattice="5.783971603824188 8.150507442013265e-08 3.339377487014717 1.9279905646868487 5.4531810005415755 3.3393775680139077 -1.3829989664660365e-08 8.942407558117289e-08 6.678754997983659" Properties=species:S:1:pos:R:3:forces:R:3 energy=-27.752206802368164 free_energy=-27.752206802368164 stress="0.00041237613186240196 -3.609929422054847e-08 -3.602899667498605e-08 -3.609929422054847e-08 0.0004124091938138008 4.1048209276084435e-09 -3.602899667498605e-08 4.1048209276084435e-09 0.00041240479913540184" pbc="T T T"
Pd       1.92799025       1.36329470       3.33937591      -0.00000067      -0.00000284      -0.00000450
Pd       5.78397129       4.08988576      10.01813377      -0.00000071       0.00000100       0.00000455
Rh      -0.00000003       0.00000009      -0.00000017      -0.00000048       0.00000248       0.00000217
Cl       1.89601748       1.34068711       6.67875550       0.00604057       0.00427151       0.00000278
Cl       5.81594496       4.11249401       6.67875474      -0.00604326      -0.00427254      -0.00000253
Cl       4.83596294       1.34068679       4.98137703      -0.00301716       0.00427182       0.00522968
Cl       2.87599920       4.11249451       8.37613328       0.00302094      -0.00427243      -0.00523210
Cl       2.87599988       4.11249472       4.98137691       0.00302269      -0.00427020       0.00523141
Cl       4.83596256       1.34068695       8.37613332      -0.00302188       0.00427103      -0.00523156
