9
Lattice="5.231196053715114 1.098836134538572e-08 3.0202324710093422 1.7437320429754322 4.932018993928343 3.0202324455300684 2.1258869519907238e-08 -1.617333213412024e-08 6.040464905197228" Properties=species:S:1:pos:R:3:forces:R:3 energy=-37.618675231933594 free_energy=-37.618675231933594 stress="0.00016571050218772143 -1.2640609448055784e-08 1.84220017018788e-08 -1.2640609448055784e-08 0.00016576374764554203 -6.039167388394162e-09 1.84220017018788e-08 -6.039167388394162e-09 0.00016575846530031413" pbc="T T T"
Pd       1.74373237       1.23300549       3.02023266       0.00000379       0.00000620       0.00000194
Pd       5.23119576       3.69901362       9.06069809      -0.00000037      -0.00000462       0.00001000
Rh      -0.00000003      -0.00000008       0.00000014       0.00000022       0.00000233       0.00000030
S        1.84521081       1.30476126       6.04046469      -0.00088835      -0.00062561      -0.00000113
S        5.12971742       3.62725748       6.04046435       0.00088698       0.00062543      -0.00000521
S        4.30859059       1.30476153       4.61823170       0.00044236      -0.00062561      -0.00077212
S        2.66633761       3.62725747       7.46269794      -0.00044447       0.00062472       0.00076675
S        2.66633752       3.62725757       4.61823187      -0.00044298       0.00062507      -0.00076991
S        4.30859044       1.30476151       7.46269784       0.00044265      -0.00062793       0.00076926
