9
Lattice="6.470968132197445 -2.4436147590095947e-08 3.7360152163550966 2.156989328010758 6.100887264392073 3.7360152619941767 -1.8883953989852662e-08 4.254329048144134e-08 7.472030465418159" Properties=species:S:1:pos:R:3:forces:R:3 energy=-24.527084350585938 free_energy=-24.527084350585938 stress="-6.131717327662045e-06 -1.3969835288563104e-09 -4.1251693727595296e-10 -1.3969835288563104e-09 -6.126731932454277e-06 -6.842552302543936e-09 -4.1251693727595296e-10 -6.842552302543936e-09 -6.11341647527297e-06" pbc="T T T"
Pd       2.15698938       1.52522163       3.73601508      -0.00000030      -0.00000049       0.00000007
Pd       6.47096805       4.57566519      11.20804577       0.00000074      -0.00000108      -0.00000002
Ru       0.00000014       0.00000015      -0.00000022       0.00000023       0.00000011      -0.00000028
I        2.17413069       1.53734257       7.47203033       0.00011814       0.00008396      -0.00000060
I        6.45382670       4.56354472       7.47203063      -0.00011885      -0.00008379       0.00000015
I        5.38390283       1.53734263       5.61886788      -0.00005851       0.00008383       0.00010213
I        3.24405461       4.56354479       9.32519321       0.00005844      -0.00008284      -0.00010247
I        3.24405466       4.56354484       5.61886777       0.00005889      -0.00008256       0.00010217
I        5.38390268       1.53734262       9.32519330      -0.00005873       0.00008283      -0.00010117
