9
Lattice="4.7705526909904705 -1.9666432509532001e-07 2.7542797384490245 1.5901842179708106 4.497718865778282 2.754279438704535 2.126453837378304e-07 -2.1674752934194973e-07 5.508559108585447" Properties=species:S:1:pos:R:3:forces:R:3 energy=-44.53225326538086 free_energy=-44.53225326538086 stress="-6.211790605448186e-05 6.255964990486973e-08 -3.930574976607204e-09 6.255964990486973e-08 -6.216325709829107e-05 6.077375491742032e-09 -3.930574976607204e-09 6.077375491742032e-09 -6.217753980308771e-05" pbc="T T T"
Pd       1.59018443       1.12442879       2.75428017       0.00000069      -0.00000357       0.00000217
Pd       4.77055295       3.37328996       8.26283856       0.00000119       0.00000404      -0.00000105
Re      -0.00000020      -0.00000006      -0.00000069       0.00000046      -0.00000131       0.00000663
F        1.58388160       1.11997221       5.50855906       0.00236740       0.00167358       0.00000046
F        4.77685562       3.37774608       5.50855936      -0.00236826      -0.00167385       0.00000037
F        3.97861186       1.11997220       4.12596107      -0.00118421       0.00167392       0.00205078
F        2.38212536       3.37774618       6.89115720       0.00118619      -0.00167715      -0.00205499
F        2.38212478       3.37774604       4.12596093       0.00118277      -0.00167288       0.00204982
F        3.97861220       1.11997256       6.89115751      -0.00118623       0.00167717      -0.00205405
