9
Lattice="4.784356410130317 1.5176944383141195e-07 2.7622498314039015 1.594785571616349 4.51073489160016 2.762249903312943 3.0354107880564215e-08 1.0953385503206541e-07 5.524499610232936" Properties=species:S:1:pos:R:3:forces:R:3 energy=-37.19397735595703 free_energy=-37.19397735595703 stress="0.0004453157598618418 2.936060106151217e-08 -8.2319225214178e-08 2.936060106151217e-08 0.0004452384600881487 2.9336677087599128e-08 -8.2319225214178e-08 2.9336677087599128e-08 0.0004451965796761215" pbc="T T T"
Pd       1.59478533       1.12768444       2.76224995      -0.00000128       0.00000512      -0.00000044
Pd       4.78435702       3.38305070       8.28675195       0.00000285      -0.00000296       0.00001220
Rh      -0.00000031       0.00000021      -0.00000028       0.00000992      -0.00000376       0.00002132
F        1.59788679       1.12987652       5.52449955       0.00534072       0.00377893      -0.00000056
F        4.78125567       3.38085837       5.52449900      -0.00534696      -0.00378129      -0.00000459
F        3.98541352       1.12987744       4.14605979      -0.00266956       0.00378053       0.00462429
F        2.39372796       3.38085845       6.90293890       0.00267097      -0.00378521      -0.00463576
F        2.39372857       3.38085818       4.14605982       0.00267186      -0.00377831       0.00462487
F        3.98541343       1.12987608       6.90293870      -0.00267863       0.00378688      -0.00464132
