9
Lattice="1.2617667867966276 -0.0461681085578304 1.4627230730645213 0.3947933202279932 2.714742233247137 2.3190784828027877 -0.8558891998387257 0.7549599941688973 3.798197381089931" Properties=species:S:1:pos:R:3:forces:R:3 energy=-43270733824.0 free_energy=-43270733824.0 stress="-4097179136.0 0.0 0.0 0.0 0.0 0.0 0.0 0.0 -3006627584.0" pbc="T T T"
Pd      -1.44981654       0.21423156       3.79974366 46873321472.00000000 -46356574208.00000000 -17034829824.00000000
Pd       0.12443159       2.55808903       5.51736251 39365750784.00000000 51396296704.00000000 -25268350976.00000000
Se       1.34878735      -0.40446361      -0.17960014 -50211860480.00000000 26862235648.00000000 -3201352192.00000000
F       -0.47007938       1.14381207       3.27711683 -78101331968.00000000 -880840146944.00000000 259578740736.00000000
F       -0.14770670       3.82061712       5.59001546 -80102309888.00000000 377106399232.00000000 -884185104384.00000000
F        2.07779248      -0.03611723       1.28426254 -35450699776.00000000 200242659328.00000000 13392162816.00000000
F        0.00037954       3.80136066       5.56930188 258069741568.00000000 168145108992.00000000 460733513728.00000000
F       -0.29574099       3.77029478       5.47757183 -216273649664.00000000 94419992576.00000000 44001230848.00000000
F        0.58059239       0.79728323       5.15728629 115831062528.00000000 9023913984.00000000 151983226880.00000000
