9
Lattice="5.758680661571812 -6.409355955576536e-08 3.3247758202518742 1.9195602777024263 5.429335764063106 3.3247756165514413 2.0461560314571299e-07 -1.0479594681052748e-07 6.649551286099147" Properties=species:S:1:pos:R:3:forces:R:3 energy=-23.06507110595703 free_energy=-23.06507110595703 stress="0.00011701675248332322 4.030348055295008e-09 -1.8885542019120294e-08 4.030348055295008e-09 0.00011696083674905822 1.4510759704933207e-08 -1.8885542019120294e-08 1.4510759704933207e-08 0.00011699533934006467" pbc="T T T"
Pd       1.91955976       1.35733428       3.32477579      -0.00000104      -0.00000206       0.00000038
Pd       5.75868029       4.07200122       9.97432636      -0.00000114      -0.00000004      -0.00000130
S        0.00000017       0.00000012       0.00000020       0.00000136      -0.00000095       0.00000122
Cl       1.88543111       1.33320079       6.64955167       0.00137441       0.00097263      -0.00000041
Cl       5.79281042       4.09613448       6.64955169      -0.00137460      -0.00097480       0.00000092
Cl       4.81596519       1.33320064       4.95760654      -0.00068835       0.00097417       0.00119291
Cl       2.86227595       4.09613514       8.34149589       0.00068849      -0.00097226      -0.00119051
Cl       2.86227615       4.09613483       4.95760668       0.00068795      -0.00097208       0.00118966
Cl       4.81596557       1.33320080       8.34149621      -0.00068713       0.00097542      -0.00119295
