9
Lattice="4.587064593838753 -2.559096305779516e-07 2.6483437330915596 1.5290213822914684 4.3247261817835785 2.6483435732478515 5.466448530593223e-08 -1.5711411551295154e-07 5.296687371501373" Properties=species:S:1:pos:R:3:forces:R:3 energy=-33.6784553527832 free_energy=-33.6784553527832 stress="-6.508729711640626e-05 5.362060662150725e-08 -1.7983273536970046e-08 5.362060662150725e-08 -6.511160609079525e-05 -2.5036721140736518e-08 -1.7983273536970046e-08 -2.5036721140736518e-08 -6.506606587208807e-05" pbc="T T T"
Pd       1.52902083       1.08118167       2.64834255      -0.00000332      -0.00000031      -0.00000232
Pd       4.58706512       3.24354523       7.94503089       0.00000369       0.00000344      -0.00000157
S        0.00000002      -0.00000007       0.00000011      -0.00000146      -0.00000352       0.00000012
F        1.52138501       1.07578090       5.29668725      -0.00068545      -0.00048584       0.00000005
F        4.59470144       3.24894466       5.29668869       0.00068769       0.00048602       0.00000016
F        3.82637332       1.07578047       3.96590188       0.00034454      -0.00048494      -0.00059214
F        2.28971273       3.24894494       6.62747247      -0.00034516       0.00048465       0.00059491
F        2.28971328       3.24894505       3.96590155      -0.00034329       0.00048605      -0.00059447
F        3.82637256       1.07578056       6.62747305       0.00034276      -0.00048521       0.00059494
