9
Lattice="5.787680780080882 8.708213199782277e-08 3.341519003972751 1.9292270620811618 5.456677736207493 3.3415189116791955 1.2504955559248954e-07 -2.4612632982708417e-08 6.683037791353271" Properties=species:S:1:pos:R:3:forces:R:3 energy=-23.27057647705078 free_energy=-23.27057647705078 stress="0.0001588564773555845 -2.2613059869058816e-08 3.334302078883411e-08 -2.2613059869058816e-08 0.00015884860476944596 9.916118592911971e-09 3.334302078883411e-08 9.916118592911971e-09 0.00015885448374319822" pbc="T T T"
Pd       1.92922633       1.36417029       3.34151805      -0.00000378       0.00000413      -0.00000453
Pd       5.78768033       4.09250909      10.02455570      -0.00000247       0.00000304      -0.00000162
Se       0.00000037      -0.00000023       0.00000019      -0.00000141      -0.00000171       0.00000095
Cl       1.93806486       1.37041818       6.68303803       0.00064084       0.00045030       0.00000023
Cl       5.77884373       4.08625909       6.68303836      -0.00063606      -0.00045176       0.00000041
Cl       4.81864931       1.37041805       5.01993243      -0.00031837       0.00044890       0.00055462
Cl       2.89825903       4.08625929       8.34614404       0.00031913      -0.00045118      -0.00055155
Cl       2.89825949       4.08625863       5.01993182       0.00031976      -0.00045131       0.00055157
Cl       4.81864854       1.37041880       8.34614429      -0.00031751       0.00044946      -0.00054994
