9
Lattice="5.4338394987358205 -1.6275608926173784e-08 3.1372287847815494 1.8112798232601466 5.123073100906525 3.1372287749209726 4.3664672145177525e-08 1.8798897926121273e-08 6.274457493933612" Properties=species:S:1:pos:R:3:forces:R:3 energy=-33.76877212524414 free_energy=-33.76877212524414 stress="-0.0002573556557763368 2.2501108531969294e-08 -1.0698778751816462e-08 2.2501108531969294e-08 -0.00025738406111486256 -1.4477863352624354e-09 -1.0698778751816462e-08 -1.4477863352624354e-09 -0.0002573878737166524" pbc="T T T"
Pd       1.81127760       1.28076798       3.13722909      -0.00001167      -0.00000209       0.00000165
Pd       5.43383850       3.84230334       9.41168461      -0.00000488      -0.00000709      -0.00000679
Si       0.00000026       0.00000024       0.00000016       0.00000031      -0.00000045       0.00000208
Se       2.02295806       1.43044781       6.27445737      -0.00387017      -0.00273432      -0.00000095
Se       5.22216168       3.69262569       6.27445853       0.00387261       0.00273622       0.00000270
Se       4.42236135       1.43044761       4.88916187       0.00193890      -0.00273466      -0.00335079
Se       2.82275955       3.69262610       7.65975325      -0.00193160       0.00273892       0.00335150
Se       2.82275886       3.69262591       4.88916195      -0.00193317       0.00273645      -0.00335031
Se       4.42236160       1.43044776       7.65975345       0.00193965      -0.00273297       0.00335096
