9
Lattice="5.787066122104651 4.127268193198411e-08 3.3411639388187617 1.9290220612683897 5.456098785589739 3.341163970593973 3.370828538744082e-08 6.275188493953734e-08 6.682327819253054" Properties=species:S:1:pos:R:3:forces:R:3 energy=-23.270578384399414 free_energy=-23.270578384399414 stress="0.00016089856217149645 6.853362322090106e-08 -6.2238481035592486e-09 6.853362322090106e-08 0.00016094806778710335 9.49539380457054e-09 -6.2238481035592486e-09 9.49539380457054e-09 0.00016090103599708527" pbc="T T T"
Pd       1.92902148       1.36402352       3.34116275      -0.00000299      -0.00000270      -0.00000571
Pd       5.78706686       4.09207541      10.02349131       0.00000223       0.00000106      -0.00000423
Se      -0.00000034       0.00000022      -0.00000026       0.00000291      -0.00000132       0.00000886
Cl       1.93830197       1.37058630       6.68232822      -0.00357996      -0.00253202       0.00000117
Cl       5.77778646       4.08551250       6.68232805       0.00358020       0.00253239       0.00000059
Cl       4.81791571       1.37058637       5.01978196       0.00178869      -0.00253162      -0.00309506
Cl       2.89817259       4.08551325       8.34487424      -0.00178754       0.00252892       0.00309600
Cl       2.89817258       4.08551243       5.01978209      -0.00178916       0.00253186      -0.00309582
Cl       4.81791559       1.37058549       8.34487468       0.00178562      -0.00252654       0.00309400
