9
Lattice="5.90133515245597 -9.602734329395301e-08 3.4071376712518915 1.967111644996254 5.563832338102766 3.4071376399946147 2.4109514620890982e-08 -2.1234161993737408e-08 6.8142753007448285" Properties=species:S:1:pos:R:3:forces:R:3 energy=-26.43496322631836 free_energy=-26.43496322631836 stress="0.00017075966752599925 -1.5832956279382415e-08 -1.328259902066975e-08 -1.5832956279382415e-08 0.00017081394616980106 -1.2100141333348802e-08 -1.328259902066975e-08 -1.2100141333348802e-08 0.00017088915046770126" pbc="T T T"
Pd       1.96711190       1.39095784       3.40713700      -0.00000058      -0.00000105       0.00000046
Pd       5.90133489       4.17287437      10.22141272       0.00000157       0.00000148      -0.00000030
Sn       0.00000001       0.00000004       0.00000035       0.00000043       0.00000069      -0.00000379
Cl       1.99340130       1.40954751       6.81427535      -0.00115734      -0.00082060       0.00000079
Cl       5.87504585       4.15428484       6.81427543       0.00115611       0.00081810       0.00000010
Cl       4.90463466       1.40954728       5.13347429       0.00057917      -0.00081790      -0.00100531
Cl       2.96381215       4.15428457       8.49507661      -0.00057875       0.00082103       0.00100593
Cl       2.96381220       4.15428483       5.13347416      -0.00057910       0.00081924      -0.00100455
Cl       4.90463432       1.40954760       8.49507651       0.00057859      -0.00082101       0.00100642
