9
Lattice="6.224924067426491 -3.810698804668197e-07 3.5939612406443553 2.0749742024963442 5.868914406767444 3.5939614612551574 -3.817479734143058e-07 2.5533337310265093e-10 7.187923142495597" Properties=species:S:1:pos:R:3:forces:R:3 energy=-20.166732788085938 free_energy=-20.166732788085938 stress="0.0002512081409804523 -1.0112719550647853e-08 -5.0098467596626506e-09 -1.0112719550647853e-08 0.0002512235369067639 -3.5654679209073947e-10 -5.0098467596626506e-09 -3.5654679209073947e-10 0.0002512141945771873" pbc="T T T"
Pd       2.07497337       1.46722911       3.59396277      -0.00000244       0.00000178       0.00000271
Pd       6.22492466       4.40168413      10.78188520       0.00000288      -0.00000253       0.00000258
Se       0.00000022      -0.00000001       0.00000030      -0.00000126       0.00000136      -0.00000195
Br       2.09879343       1.48407117       7.18792194       0.00136532       0.00096753      -0.00000189
Br       6.20110472       4.38484310       7.18792284      -0.00136617      -0.00096694      -0.00000051
Br       5.17552690       1.48407201       5.41157041      -0.00068080       0.00096633       0.00118135
Br       3.12437085       4.38484228       8.96427503       0.00068071      -0.00096539      -0.00118354
Br       3.12437094       4.38484310       5.41157005       0.00068256      -0.00096637       0.00118363
Br       5.17552637       1.48407116       8.96427481      -0.00068079       0.00096430      -0.00118233
