9
Lattice="6.512883979092786 -1.749444945844554e-08 3.760215168016975 2.170961311005832 6.140405913299436 3.7602151660502265 6.009516932652976e-08 4.008491549602995e-08 7.520430231946059" Properties=species:S:1:pos:R:3:forces:R:3 energy=-18.195384979248047 free_energy=-18.195384979248047 stress="-1.1399422874092124e-05 7.283775804722836e-10 -1.400416227426149e-09 7.283775804722836e-10 -1.1396723493817262e-05 3.919849778100115e-09 -1.400416227426149e-09 3.919849778100115e-09 -1.139405503636226e-05" pbc="T T T"
Pd       2.17096133       1.53510123       3.76021564       0.00000078      -0.00000000       0.00000073
Pd       6.51288455       4.60530417      11.28064573       0.00000056      -0.00000074       0.00000028
S       -0.00000010       0.00000005       0.00000013       0.00000047      -0.00000012       0.00000020
I        2.33184081       1.64886048       7.52043002      -0.00017819      -0.00012510      -0.00000014
I        6.35200455       4.49154532       7.52043019       0.00017732       0.00012493      -0.00000040
I        5.34696349       1.64886063       5.77964817       0.00008814      -0.00012560      -0.00015414
I        3.33688159       4.49154574       9.26121219      -0.00008872       0.00012591       0.00015354
I        3.33688165       4.49154567       5.77964804      -0.00008897       0.00012597      -0.00015418
I        5.34696351       1.64886051       9.26121212       0.00008863      -0.00012532       0.00015411
