9
Lattice="6.223389074310735 2.777586810212688e-09 3.5930754218382877 2.074463048845358 5.867467499041452 3.5930753846747434 4.723375302006199e-08 -1.2116548621939518e-08 7.18615076186532" Properties=species:S:1:pos:R:3:forces:R:3 energy=-20.16675567626953 free_energy=-20.16675567626953 stress="0.00022969710698816925 3.359004185909953e-09 -1.178179442895555e-09 3.359004185909953e-09 0.00022968658595345914 1.1055968585083065e-08 -1.178179442895555e-09 1.1055968585083065e-08 0.00022968814300838858" pbc="T T T"
Pd       2.07446315       1.46686663       3.59307531       0.00000051      -0.00000093      -0.00000055
Pd       6.22338883       4.40060085      10.77922690      -0.00000151       0.00000143       0.00000267
Se       0.00000008       0.00000003       0.00000013       0.00000010       0.00000022       0.00000061
Br       2.09941930       1.48451347       7.18615074      -0.00639071      -0.00451992      -0.00000013
Br       6.19843283       4.38295401       7.18615056       0.00639063       0.00451912      -0.00000081
Br       5.17367952       1.48451374       5.41122585       0.00319576      -0.00451906      -0.00553524
Br       3.12417277       4.38295387       8.96107547      -0.00319534       0.00451899       0.00553466
Br       3.12417294       4.38295397       5.41122580      -0.00319441       0.00451937      -0.00553441
Br       5.17367926       1.48451343       8.96107549       0.00319488      -0.00451916       0.00553338
