9
Lattice="6.047773007902212 -1.0115700783512076e-07 3.4916833983368116 2.0159242457210413 5.701895050248705 3.4916833894594395 1.074299210842252e-08 -3.2760628714219294e-09 6.983366778066231" Properties=species:S:1:pos:R:3:forces:R:3 energy=-20.064544677734375 free_energy=-20.064544677734375 stress="0.00010767295316327363 -6.004277075533082e-09 -2.9283520053269285e-10 -6.004277075533082e-09 0.0001076884800568223 5.821669812888786e-09 -2.9283520053269285e-10 5.821669812888786e-09 0.00010766764899017289" pbc="T T T"
Pd       2.01592442       1.42547359       3.49168348       0.00000073       0.00000073       0.00000015
Pd       6.04777293       4.27642120      10.47505023      -0.00000019      -0.00000126      -0.00000001
S        0.00000032       0.00000006      -0.00000042      -0.00000059      -0.00000036       0.00000034
Br       2.02923495       1.43488576       6.98336677      -0.00300157      -0.00212288       0.00000024
Br       6.03446222       4.26700919       6.98336653       0.00300153       0.00212302       0.00000007
Br       5.03315524       1.43488626       5.24905272       0.00150027      -0.00212334      -0.00260049
Br       3.03054177       4.26700891       8.71768108      -0.00150059       0.00212380       0.00260021
Br       3.03054186       4.26700876       5.24905274      -0.00150081       0.00212289      -0.00260045
Br       5.03315536       1.43488607       8.71768111       0.00150131      -0.00212263       0.00259999
