9
Lattice="6.512520387350502 4.684512033678304e-09 3.760005413407228 2.1708401233352452 6.1400631450230865 3.7600054310710145 5.2014884458147147e-08 5.841370860503379e-08 7.5200107367220586" Properties=species:S:1:pos:R:3:forces:R:3 energy=-18.195369720458984 free_energy=-18.195369720458984 stress="-4.0698239899938926e-05 2.251681507914327e-08 -1.5261203856198335e-08 2.251681507914327e-08 -4.0729260945227e-05 -5.337023711859956e-09 -1.5261203856198335e-08 -5.337023711859956e-09 -4.074565367773175e-05" pbc="T T T"
Pd       2.17084007       1.53501584       3.76000529      -0.00000020      -0.00000006      -0.00000004
Pd       6.51252036       4.60504753      11.28001658      -0.00000030       0.00000041       0.00000129
S       -0.00000025      -0.00000014       0.00000022      -0.00000295       0.00000041       0.00000035
I        2.33226895       1.64916314       7.52001062      -0.00411260      -0.00290869      -0.00000082
I        6.35109154       4.49090003       7.52001061       0.00411370       0.00290841      -0.00000087
I        5.34638608       1.64916335       5.77980958       0.00205630      -0.00290820      -0.00356124
I        3.33697472       4.49089995       9.26021192      -0.00205579       0.00290795       0.00356168
I        3.33697475       4.49090002       5.77980959      -0.00205523       0.00290823      -0.00356200
I        5.34638606       1.64916311       9.26021193       0.00205700      -0.00290841       0.00356168
