9
Lattice="5.868815097408731 -8.460205570960186e-08 3.388362114135972 1.9562716354534762 5.533171875330548 3.388362086283186 -4.135533017759579e-08 -6.335520619785309e-08 6.776724299901496" Properties=species:S:1:pos:R:3:forces:R:3 energy=-31.51251983642578 free_energy=-31.51251983642578 stress="0.00011211921082576737 -2.4827276234873352e-08 -2.5794397728873264e-08 -2.4827276234873352e-08 0.00011219120642635971 -1.2149925510129833e-09 -2.5794397728873264e-08 -1.2149925510129833e-09 0.00011211934179300442" pbc="T T T"
Pd       1.95627173       1.38329414       3.38836249      -0.00000031       0.00000485       0.00000016
Pd       5.86881541       4.14987863      10.16508725       0.00000319      -0.00000098       0.00000551
Sc      -0.00000028      -0.00000027      -0.00000013       0.00000335       0.00000229      -0.00000167
Cl       1.99929750       1.41371636       6.77672493      -0.00043806      -0.00031105      -0.00000078
Cl       5.82578942       4.11945515       6.77672355       0.00043249       0.00030756      -0.00000269
Cl       4.86916647       1.41371667       5.11980464       0.00021968      -0.00030808      -0.00038074
Cl       2.95591943       4.11945466       8.43364341      -0.00022126       0.00030816       0.00038101
Cl       2.95592034       4.11945486       5.11980463      -0.00022083       0.00030808      -0.00038062
Cl       4.86916671       1.41371671       8.43364336       0.00022188      -0.00031084       0.00037988
