9
Lattice="4.67669627438122 6.238289420559939e-08 2.7000917787542495 1.558898793429459 4.4092315130917035 2.7000918194795815 -7.831870529043237e-08 -5.5015650188559226e-09 5.400183693160503" Properties=species:S:1:pos:R:3:forces:R:3 energy=-43.78391647338867 free_energy=-43.78391647338867 stress="0.0001647626340854913 5.076176634588592e-08 4.9315840300323543e-08 5.076176634588592e-08 0.00016472171409986913 4.372856565737493e-08 4.9315840300323543e-08 4.372856565737493e-08 0.00016457542369607836" pbc="T T T"
Pd       1.55889833       1.10230792       2.70009172      -0.00000104      -0.00000106      -0.00000064
Pd       4.67669723       3.30692460       8.10027451       0.00000651       0.00000785      -0.00000919
Sc      -0.00000005      -0.00000005       0.00000014      -0.00000160      -0.00000338       0.00000134
F        1.60344571       1.13380722       5.40018396      -0.00070225      -0.00049651      -0.00000098
F        4.63214923       3.27542411       5.40018398       0.00070588       0.00049781       0.00000460
F        3.87497331       1.13380660       4.08871669       0.00034670      -0.00049824      -0.00060258
F        2.36062148       3.27542451       6.71165074      -0.00035011       0.00049531       0.00060623
F        2.36062133       3.27542466       4.08871668      -0.00035337       0.00049308      -0.00060280
F        3.87497332       1.13380672       6.71165075       0.00034910      -0.00049486       0.00060420
