9
Lattice="4.509279423473702 8.365885263876675e-08 2.6034337791807207 1.5030931772139497 4.251389494877619 2.6034338533441908 -7.456599090978254e-09 8.555869249301273e-08 5.206867571276689" Properties=species:S:1:pos:R:3:forces:R:3 energy=-39.55711364746094 free_energy=-39.55711364746094 stress="-0.00011863083636853844 4.578516410447264e-08 -1.0413592121949478e-07 4.578516410447264e-08 -0.00011862272367579862 -9.71965334883862e-08 -1.0413592121949478e-07 -9.71965334883862e-08 -0.00011853738396894187" pbc="T T T"
Pd       1.50309415       1.06284689       2.60343449       0.00001756      -0.00000099      -0.00000078
Pd       4.50928165       3.18854451       7.81029520       0.00002979       0.00003041      -0.00007797
Se       0.00000161       0.00000191      -0.00000222       0.00002394       0.00002021      -0.00003576
O        1.52453830       1.07801058       5.20686858      -0.00600612      -0.00425196       0.00001292
O        4.48783304       3.17337818       5.20687044       0.00599229       0.00424314       0.00003544
O        3.74700916       1.07801021       3.92372419       0.00298375      -0.00426471      -0.00517833
O        2.26536180       3.17337805       6.49001289      -0.00300604       0.00423646       0.00521016
O        2.26536070       3.17337722       3.92372405      -0.00302476       0.00423491      -0.00517857
O        3.74700986       1.07801126       6.49001332       0.00299042      -0.00424647       0.00521350
