9
Lattice="4.817498519455873 -5.5928343227219225e-08 2.781384079596217 1.6058328128091528 4.541981391845444 2.7813840350474055 8.94000327885228e-09 -4.823940138635114e-08 5.562768143707872" Properties=species:S:1:pos:R:3:forces:R:3 energy=-38.188453674316406 free_energy=-38.188453674316406 stress="0.0004235959204379469 -6.511996275548881e-08 4.808394393762683e-08 -6.511996275548881e-08 0.00042362097883597016 -5.992529139575709e-08 4.808394393762683e-08 -5.992529139575709e-08 0.00042366579873487353" pbc="T T T"
Pd       1.60583272       1.13549520       2.78138415      -0.00000074       0.00000015       0.00000134
Pd       4.81749852       3.40648582       8.34415258      -0.00000006      -0.00000038       0.00000150
Sn      -0.00000016       0.00000004       0.00000025      -0.00000142       0.00000386      -0.00001229
F        1.62960697       1.15230598       5.56276780      -0.00267446      -0.00189030      -0.00000006
F        4.79372449       3.38967515       5.56276790       0.00267351       0.00189060      -0.00000052
F        4.00269523       1.15230632       4.19266500       0.00133747      -0.00188988      -0.00231531
F        2.42063625       3.38967528       6.93287119      -0.00133866       0.00189260       0.00231722
F        2.42063633       3.38967492       4.19266507      -0.00133765       0.00189108      -0.00231594
F        4.00269503       1.15230638       6.93287108       0.00134242      -0.00189769       0.00232416
