9
Lattice="6.514245632583241 5.233494927591996e-08 3.761001464410805 2.171415249333869 6.141689756333932 3.7610014832366234 -7.38499468806762e-08 -2.9162974181973474e-08 7.522003056733504" Properties=species:S:1:pos:R:3:forces:R:3 energy=-21.323150634765625 free_energy=-21.323150634765625 stress="-8.90807859832421e-05 1.7101732252555735e-09 -1.485867873185498e-09 1.7101732252555735e-09 -8.909834286896512e-05 2.154204370441448e-09 -1.485867873185498e-09 2.154204370441448e-09 -8.90892042662017e-05" pbc="T T T"
Pd       2.17141602       1.53542233       3.76100193       0.00000164      -0.00000060       0.00000096
Pd       6.51424447       4.60626670      11.28300450      -0.00000198      -0.00000185       0.00000034
Si      -0.00000022       0.00000005       0.00000031       0.00000044      -0.00000039      -0.00000093
I        2.16937694       1.53398108       7.52200329       0.00685094       0.00484413      -0.00000037
I        6.51628416       4.60770897       7.52200307      -0.00685014      -0.00484320      -0.00000077
I        5.42955724       1.53398075       5.63973666      -0.00342668       0.00484594       0.00593325
I        3.25610368       4.60770920       9.40426872       0.00342499      -0.00484326      -0.00593250
I        3.25610354       4.60770881       5.63973653       0.00342663      -0.00484595       0.00593185
I        5.42955739       1.53398120       9.40426904      -0.00342582       0.00484516      -0.00593184
