9
Lattice="5.310714323740606 -5.811466205570238e-08 3.066142243231614 1.7702380339146297 5.0069898068843965 3.0661422765006296 -3.599421021766159e-08 1.52943110108474e-08 6.132284548807012" Properties=species:S:1:pos:R:3:forces:R:3 energy=-30.355579376220703 free_energy=-30.355579376220703 stress="-0.00028189714066684246 -1.0578568776509201e-07 -5.660849211608365e-08 -1.0578568776509201e-07 -0.000281826825812459 4.556492427809644e-08 -5.660849211608365e-08 4.556492427809644e-08 -0.00028161067166365683" pbc="T T T"
Pd       1.77023724       1.25174733       3.06614252      -0.00001293       0.00000131       0.00000079
Pd       5.31071450       3.75524345       9.19842616       0.00000791       0.00001521      -0.00001082
Se      -0.00000043      -0.00000003      -0.00000011       0.00001091       0.00000885      -0.00002414
S        1.79133175       1.26666186       6.13228569       0.00228053       0.00160170       0.00000532
S        5.28962166       3.74032720       6.13228607      -0.00228727      -0.00162458       0.00001189
S        4.41504866       1.26666207       4.61748102      -0.00114185       0.00160837       0.00198036
S        2.66590363       3.74032722       7.64708715       0.00112852      -0.00159311      -0.00196844
S        2.66590305       3.74032739       4.61748071       0.00113797      -0.00161487       0.00197965
S        4.41504922       1.26666257       7.64708699      -0.00112408       0.00159687      -0.00197470
