9
Lattice="6.629351190185703 -7.908929048467783e-08 3.8274578735897533 2.2097836906645774 6.250212434765173 3.827457812675634 9.160826096839114e-08 -9.82741060703647e-09 7.654915588509353" Properties=species:S:1:pos:R:3:forces:R:3 energy=-18.198720932006836 free_energy=-18.198720932006836 stress="-0.00028117457986809313 -9.615275686769564e-09 6.7099108491675e-09 -9.615275686769564e-09 -0.0002811772283166647 -6.960062304273151e-09 6.7099108491675e-09 -6.960062304273151e-09 -0.00028116919565945864" pbc="T T T"
Pd       2.20978363       1.56255316       3.82745776      -0.00000048       0.00000027       0.00000041
Pd       6.62935078       4.68765915      11.48237360      -0.00000084      -0.00000042       0.00000019
Se      -0.00000003      -0.00000006       0.00000026      -0.00000045      -0.00000028      -0.00000235
I        2.35130501       1.66262361       7.65491552      -0.00015043      -0.00010693       0.00000015
I        6.48783003       4.58758870       7.65491542       0.00015144       0.00010681       0.00000045
I        5.45369871       1.66262379       5.86374774       0.00007594      -0.00010684      -0.00013106
I        3.38543655       4.58758858       9.44608347      -0.00007504       0.00010733       0.00013159
I        3.38543647       4.58758848       5.86374796      -0.00007557       0.00010733      -0.00013131
I        5.45369879       1.66262397       9.44608340       0.00007547      -0.00010732       0.00013195
