9
Lattice="4.570408063363615 4.812856176662353e-07 2.63872538151276 1.5234694538878777 4.3090206716319654 2.6387259952250828 -1.3871623379748389e-06 -2.2923058973455088e-07 5.277453165660755" Properties=species:S:1:pos:R:3:forces:R:3 energy=-46.37087631225586 free_energy=-46.37087631225586 stress="3.2350992114515975e-05 1.0607458023059735e-07 9.90866055872175e-07 1.0607458023059735e-07 3.506321445456706e-05 8.533499453733384e-07 9.90866055872175e-07 8.533499453733384e-07 3.2899726647883654e-05" pbc="T T T"
Pd       1.52338300       1.07720589       2.63872185      -0.00108395      -0.00062561      -0.00006768
Pd       4.57033020       3.23169119       7.91620097      -0.00098368      -0.00096747       0.00028305
Si       0.00000578       0.00000484      -0.00000358       0.00010488       0.00008609       0.00004790
O        1.43508533       1.01474833       5.27746208       0.00020468       0.00013769       0.00002793
O        4.65881058       3.29428582       5.27744209       0.00002384       0.00006413      -0.00012529
O        3.85291390       1.01478531       3.88152776       0.00047100       0.00046134       0.00000954
O        2.24102478       3.29429088       6.67336548       0.00037313       0.00021803      -0.00011492
O        2.24103055       3.29428840       3.88153021       0.00043809       0.00020707       0.00002468
O        3.85291352       1.01478405       6.67337074       0.00045133       0.00041831      -0.00008678
