9
Lattice="4.587931306618744 8.949820862419102e-08 2.6488431910341506 1.529310475533135 4.325543133270352 2.648843267913264 -6.480306665399871e-08 4.833458223791322e-08 5.297686494310513" Properties=species:S:1:pos:R:3:forces:R:3 energy=-33.67845153808594 free_energy=-33.67845153808594 stress="0.00032090532477013767 5.835873295723104e-08 1.3319467306871502e-08 5.835873295723104e-08 0.00032087057479657233 2.0863031302553736e-09 1.3319467306871502e-08 2.0863031302553736e-09 0.0003208652778994292" pbc="T T T"
Pd       1.52931016       1.08138582       2.64884330      -0.00000092       0.00000051       0.00000081
Pd       4.58793156       3.24415777       7.94652982       0.00000110       0.00000102       0.00000005
S        0.00000011      -0.00000023      -0.00000001       0.00000259       0.00000564      -0.00000367
F        1.52152599       1.07588155       5.29768632      -0.00455281      -0.00322062       0.00000055
F        4.59571580       3.24966178       5.29768645       0.00455084       0.00321749       0.00000075
F        3.82716843       1.07588112       3.96652297       0.00227223      -0.00321528      -0.00393569
F        2.29007322       3.24966220       6.62884999      -0.00227216       0.00321320       0.00393620
F        2.29007331       3.24966187       3.96652303      -0.00227307       0.00321379      -0.00393653
F        3.82716836       1.07588125       6.62884990       0.00227214      -0.00321585       0.00393692
