9
Lattice="4.868186439187204 7.65600952708994e-08 2.8106485740216134 1.6227288395971897 4.58977034574964 2.8106486530840153 -8.82615984831071e-08 3.442099417589279e-08 5.621297300916809" Properties=species:S:1:pos:R:3:forces:R:3 energy=-33.65517044067383 free_energy=-33.65517044067383 stress="8.739967597648501e-05 3.967396189352712e-09 -3.5744280868499345e-09 3.967396189352712e-09 8.740383782424033e-05 2.1292057894584104e-08 -3.5744280868499345e-09 2.1292057894584104e-08 8.73764292919077e-05" pbc="T T T"
Pd       1.62272910       1.14744324       2.81064865       0.00000019       0.00000357       0.00000051
Pd       4.86818645       3.44232855       8.43194677       0.00000085       0.00000184       0.00000269
Se      -0.00000008      -0.00000015       0.00000012       0.00000412       0.00000276      -0.00000326
F        1.57729203       1.11531439       5.62129695       0.00020272       0.00014257      -0.00000001
F        4.91362317       3.47445582       5.62129714      -0.00020516      -0.00014591      -0.00000075
F        4.07954005       1.11531453       4.17662367      -0.00010258       0.00014347       0.00017676
F        2.41137474       3.47445557       7.06597050       0.00010017      -0.00014451      -0.00017607
F        2.41137512       3.47445583       4.17662370       0.00010258      -0.00014579       0.00017741
F        4.07954015       1.11531414       7.06597056      -0.00010303       0.00014216      -0.00017697
