9
Lattice="6.1882535283890165 7.586693022909174e-08 3.5727898150457893 2.062751230082797 5.8343413983531685 3.5727898454864166 -4.986549766867373e-09 3.3755989424742356e-08 7.145579638728455" Properties=species:S:1:pos:R:3:forces:R:3 energy=-23.08469581604004 free_energy=-23.08469581604004 stress="0.00010116500925505534 1.429714480138955e-08 1.511060787606766e-08 1.429714480138955e-08 0.00010114307224284858 -1.345406008823602e-08 1.511060787606766e-08 -1.345406008823602e-08 0.00010112374002346769" pbc="T T T"
Pd       2.06275129       1.45858573       3.57278994       0.00000030       0.00000088      -0.00000009
Pd       6.18825358       4.37575593      10.71836982       0.00000001      -0.00000114       0.00000028
Sn       0.00000021       0.00000024      -0.00000043      -0.00000218      -0.00000819       0.00000225
Br       2.11303825       1.49414393       7.14557964      -0.00145718      -0.00103066      -0.00000003
Br       6.13796631       4.34019740       7.14557957       0.00146259       0.00103446       0.00000068
Br       5.13173432       1.49414391       5.40273443       0.00072837      -0.00103062      -0.00126208
Br       3.11927016       4.34019772       8.88842477      -0.00072869       0.00103079       0.00126344
Br       3.11927034       4.34019763       5.40273461      -0.00073128       0.00103343      -0.00126577
Br       5.13173454       1.49414353       8.88842482       0.00072806      -0.00102900       0.00126133
