9
Lattice="6.734371957776779 -3.539149089946569e-08 3.8880914761087677 2.2447905823488634 6.349226793012454 3.8880915399798663 -6.147765955669329e-08 3.47545219678331e-08 7.776183058699998" Properties=species:S:1:pos:R:3:forces:R:3 energy=-25.672138214111328 free_energy=-25.672138214111328 stress="3.593230212572962e-05 -9.730212191527698e-09 3.732081310658941e-09 -9.730212191527698e-09 3.594870213419199e-05 6.225935322845544e-09 3.732081310658941e-09 6.225935322845544e-09 3.5943128750659525e-05" pbc="T T T"
Pd       2.24479030       1.58730608       3.88809169      -0.00000069      -0.00000163       0.00000037
Pd       6.73437190       4.76192033      11.66427420       0.00000061       0.00000067      -0.00000071
Sc      -0.00000005      -0.00000006       0.00000001       0.00000130       0.00000129       0.00000049
I        2.31430928       1.63646394       7.77618328      -0.00069907      -0.00049403      -0.00000007
I        6.66485359       4.71276304       7.77618325       0.00069728       0.00049322       0.00000023
I        5.57721706       1.63646359       5.89234211       0.00034921      -0.00049489      -0.00060480
I        3.40194532       4.71276324       9.66002386      -0.00034889       0.00049518       0.00060435
I        3.40194520       4.71276339       5.89234191      -0.00034950       0.00049459      -0.00060441
I        5.57721731       1.63646358       9.66002403       0.00034969      -0.00049442       0.00060453
