9
Lattice="5.758535426445141 -6.246082095370714e-08 3.3246919216941304 1.9195118026077258 5.429199327757846 3.32469183044729 -3.6045471606277104e-08 -1.372420751381938e-07 6.649383905820867" Properties=species:S:1:pos:R:3:forces:R:3 energy=-23.065073013305664 free_energy=-23.065073013305664 stress="0.0001722046872600913 4.992869051534399e-08 2.1139916484003152e-08 4.992869051534399e-08 0.0001722915330901742 -4.604631698157391e-08 2.1139916484003152e-08 -4.604631698157391e-08 0.00017227196076419204" pbc="T T T"
Pd       1.91951116       1.35729858       3.32469256      -0.00000421      -0.00000070       0.00000276
Pd       5.75853537       4.07190020       9.97407711       0.00000213      -0.00000008       0.00000309
S        0.00000001      -0.00000043       0.00000024       0.00000016       0.00000647      -0.00000657
Cl       1.88570462       1.33339459       6.64938337      -0.00174139      -0.00123414      -0.00000103
Cl       5.79234243       4.09580416       6.64938345       0.00174128       0.00123327      -0.00000090
Cl       4.81568345       1.33339501       4.95775958       0.00086873      -0.00123046      -0.00150393
Cl       2.86236415       4.09580466       8.34100727      -0.00086955       0.00123043       0.00150423
Cl       2.86236446       4.09580488       4.95775977      -0.00086926       0.00123162      -0.00150824
Cl       4.81568313       1.33339487       8.34100716       0.00087211      -0.00123642       0.00151034
