9
Lattice="4.64046582550949 -5.542537092577536e-08 2.6791741010880115 1.5468219555066929 4.375072755926412 2.679173986901314 1.1248078555962948e-07 -6.031367728536308e-08 5.358348007353571" Properties=species:S:1:pos:R:3:forces:R:3 energy=-42.95988464355469 free_energy=-42.95988464355469 stress="-0.00013720380957238376 6.61285568526182e-08 -2.3498657242271292e-08 6.61285568526182e-08 -0.0001371638645650819 8.605613999179695e-09 -2.3498657242271292e-08 8.605613999179695e-09 -0.00013705386663787067" pbc="T T T"
Pd       1.54682103       1.09376809       2.67917404      -0.00000488       0.00000019      -0.00000039
Pd       4.64046613       3.28130465       8.03752110       0.00000257       0.00000095      -0.00000377
Si      -0.00000010       0.00000006       0.00000001       0.00000382      -0.00000323       0.00000310
F        1.40987796       0.99693398       5.35834812       0.00160956       0.00113761       0.00000113
F        4.77741016       3.37813859       5.35834851      -0.00160885      -0.00113836       0.00000048
F        3.93552704       0.99693391       3.90016433      -0.00080493       0.00113928       0.00139457
F        2.25176111       3.37813863       6.81653183       0.00080442      -0.00113836      -0.00139302
F        2.25176067       3.37813874       3.90016434       0.00080392      -0.00113735       0.00139165
F        3.93552727       0.99693400       6.81653215      -0.00080553       0.00113937      -0.00139427
