9
Lattice="5.1997304878560895 2.47708299632067e-08 3.002065634642309 1.7332434918974093 4.902353204025327 3.0020656821156617 -5.774810000117565e-08 1.7308675900725693e-08 6.004131369307263" Properties=species:S:1:pos:R:3:forces:R:3 energy=-34.154273986816406 free_energy=-34.154273986816406 stress="5.514435542863794e-05 -2.845919411242903e-08 2.845270863360838e-08 -2.845919411242903e-08 5.510258779395372e-05 -1.1378634923175923e-08 2.845270863360838e-08 -1.1378634923175923e-08 5.526225868379697e-05" pbc="T T T"
Pd       1.73324435       1.22558548       3.00206623       0.00000961      -0.00003657       0.00000617
Pd       5.19973189       3.67676563       9.00619848       0.00002100       0.00000722       0.00002308
Si       0.00000003       0.00000007      -0.00000008      -0.00000005      -0.00000040       0.00000045
S        1.78693445       1.26355376       6.00413134      -0.00004178      -0.00002974      -0.00000076
S        5.14603872       3.63880020       6.00413103       0.00003541       0.00004286      -0.00000941
S        4.30626283       1.26355391       4.54959633       0.00001621      -0.00003076      -0.00003871
S        2.62671019       3.63880071       7.45866482      -0.00003079       0.00004423       0.00002262
S        2.62671088       3.63880012       4.54959703      -0.00002256       0.00004351      -0.00003403
S        4.30626232       1.26355311       7.45866550       0.00001335      -0.00004050       0.00003025
