9
Lattice="4.046406901726461 1.3834459284171058e-07 2.336194309699336 1.3488024207748626 3.814988890729437 2.33619432742368 1.2451907930494483e-07 1.0975609866659099e-07 4.672388403725312" Properties=species:S:1:pos:R:3:forces:R:3 energy=-47.023223876953125 free_energy=-47.023223876953125 stress="-0.00022460307809524238 9.811237156043262e-09 -2.642223106974484e-09 9.811237156043262e-09 -0.00022462301421910524 -1.8615656927067903e-07 -2.642223106974484e-09 -1.8615656927067903e-07 -0.0002245838986709714" pbc="T T T"
Pd       1.34880193       0.95374730       2.33619382      -0.00000818       0.00000420      -0.00000791
Pd       4.04640672       2.86124278       7.00858302      -0.00000587       0.00001210      -0.00000179
Ti       0.00000000      -0.00000022      -0.00000009      -0.00000172       0.00000571      -0.00001336
O        1.48879225       1.05273718       4.67239029      -0.00148010      -0.00102866       0.00001181
O        3.90641698       2.76225201       4.67238739       0.00148451       0.00102603      -0.00000927
O        3.30201027       1.05273451       3.62552776       0.00072342      -0.00105584      -0.00125659
O        2.09320118       2.76225502       5.71924958      -0.00071543       0.00106776       0.00127006
O        2.09319942       2.76225234       3.62552627      -0.00073063       0.00102782      -0.00127900
O        3.30200889       1.05273545       5.71925028       0.00073272      -0.00105834       0.00128579
