9
Lattice="4.76161900516768 -4.514587772161663e-08 2.749122108684333 1.587206300718654 4.489297574074013 2.7491220944353225 -1.225174039778331e-08 -2.6114688951724257e-08 5.498244238589339" Properties=species:S:1:pos:R:3:forces:R:3 energy=-46.41463088989258 free_energy=-46.41463088989258 stress="0.0007276905816979706 -1.8042566329867782e-09 1.8696184156397067e-08 -1.8042566329867782e-09 0.0007276586256921291 -2.5621776700290866e-08 1.8696184156397067e-08 -2.5621776700290866e-08 0.0007276479154825211" pbc="T T T"
Pd       1.58720628       1.12232444       2.74912186       0.00000021       0.00000054      -0.00000153
Pd       4.76161923       3.36697300       8.24736617       0.00000044      -0.00000031      -0.00000111
Ti      -0.00000015      -0.00000004       0.00000003       0.00000250      -0.00000015       0.00000542
F        1.54228216       1.09055830       5.49824419      -0.00241241      -0.00170493       0.00000025
F        4.80654330       3.39873941       5.49824421       0.00241020       0.00170346       0.00000102
F        3.99047798       1.09055816       4.08477804       0.00120540      -0.00170426      -0.00208770
F        2.35834721       3.39873941       6.91171061      -0.00120430       0.00170267       0.00208661
F        2.35834736       3.39873932       4.08477779      -0.00120710       0.00170626      -0.00209013
F        3.99047771       1.09055797       6.91171079       0.00120479      -0.00170344       0.00208728
