9
Lattice="6.159499255500919 2.2758746721852003e-08 3.556188496295653 2.0531664511280683 5.807231479593957 3.55618847694764 1.4678771048640523e-08 -1.3316966793987246e-08 7.112376967166901" Properties=species:S:1:pos:R:3:forces:R:3 energy=-29.35761070251465 free_energy=-29.35761070251465 stress="0.00023494483320973814 5.990740792327642e-09 6.975976463152733e-10 5.990740792327642e-09 0.00023494221386499703 5.576350048386303e-09 6.975976463152733e-10 5.576350048386303e-09 0.000234941064263694" pbc="T T T"
Pd       2.05316619       1.45180789       3.55618856      -0.00000085       0.00000001       0.00000027
Pd       6.15949966       4.35542392      10.66856545       0.00000127       0.00000109       0.00000035
Ti      -0.00000026      -0.00000023       0.00000016       0.00000027       0.00000015      -0.00000031
Br       2.02923144       1.43488347       7.11237703      -0.00487846      -0.00344984      -0.00000029
Br       6.18343430       4.37234818       7.11237711       0.00487550       0.00344709      -0.00000017
Br       5.14488354       1.43488305       5.31355434       0.00243842      -0.00344773      -0.00422272
Br       3.06778226       4.37234840       8.91119947      -0.00243787       0.00344956       0.00422360
Br       3.06778213       4.37234837       5.31355448      -0.00243725       0.00344802      -0.00422312
Br       5.14488364       1.43488288       8.91119920       0.00243893      -0.00344829       0.00422229
