9
Lattice="4.761675091130813 1.343189500235645e-07 2.749154337558575 1.5872250455734658 4.489351032376591 2.7491545305793608 -1.2518302566098722e-07 1.4788343105552672e-07 5.498308891940522" Properties=species:S:1:pos:R:3:forces:R:3 energy=-46.41462326049805 free_energy=-46.41462326049805 stress="0.000542101392056793 6.575061051172781e-10 1.2530348980632766e-09 6.575061051172781e-10 0.0005420837551355362 -2.21972951131022e-09 1.2530348980632766e-09 -2.21972951131022e-09 0.0005420559318736196" pbc="T T T"
Pd       1.58722524       1.12233793       2.74915454       0.00000117      -0.00000018       0.00000052
Pd       4.76167437       3.36701382       8.24746176      -0.00000270       0.00000206      -0.00000750
Ti       0.00000007      -0.00000011       0.00000011       0.00000162       0.00000537       0.00000377
F        1.54202319       1.09037551       5.49830899       0.00393414       0.00278121       0.00000042
F        4.80687665       3.39897597       5.49830923      -0.00393659      -0.00278433       0.00000257
F        3.99066311       1.09037509       4.08458596      -0.00196667       0.00277822       0.00340679
F        2.35823693       3.39897602       6.91203234       0.00197032      -0.00278264      -0.00340803
F        2.35823706       3.39897570       4.08458588       0.00196692      -0.00278357       0.00340897
F        3.99066330       1.09037539       6.91203214      -0.00196800       0.00278422      -0.00340731
