9
Lattice="5.830874830946184 -1.3747899395229104e-07 3.366457209399112 1.9436248311328232 5.497401722754984 3.366457179780137 -1.1105758153910337e-07 -1.1480526848474505e-07 6.732914611155589" Properties=species:S:1:pos:R:3:forces:R:3 energy=-32.97075271606445 free_energy=-32.97075271606445 stress="0.00014042799011804163 -1.1529680321586966e-08 3.1630619901079626e-08 -1.1529680321586966e-08 0.0001404354552505538 2.205412030775733e-08 3.1630619901079626e-08 2.205412030775733e-08 0.00014046307478565723" pbc="T T T"
Pd       1.94362521       1.37435050       3.36645684       0.00000128       0.00000208      -0.00000374
Pd       5.83087408       4.12304988      10.09937114      -0.00000204      -0.00000188      -0.00000206
Ti       0.00000006       0.00000015      -0.00000015      -0.00000018       0.00000071       0.00000176
Cl       1.91243426       1.35229560       6.73291479       0.00169262       0.00119740       0.00000055
Cl       5.86206554       4.14510625       6.73291461      -0.00169450      -0.00119886       0.00000234
Cl       4.87465734       1.35229552       5.02267391      -0.00084616       0.00119722       0.00146583
Cl       2.89984188       4.14510628       8.44315520       0.00084940      -0.00119933      -0.00146604
Cl       2.89984222       4.14510638       5.02267425       0.00084630      -0.00119719       0.00146616
Cl       4.87465760       1.35229523       8.44315510      -0.00084624       0.00119954      -0.00146520
