9
Lattice="6.160146240402916 -6.619456937836599e-09 3.5565621412985777 2.053382084548566 5.807841627929432 3.5565621228433164 3.1023272592441796e-08 -6.662158603390321e-10 7.1131242288632635" Properties=species:S:1:pos:R:3:forces:R:3 energy=-29.35759735107422 free_energy=-29.35759735107422 stress="0.0001288681523874402 1.6385428125431645e-08 -4.259648633819779e-09 1.6385428125431645e-08 0.00012885477917734534 -5.991643181602058e-09 -4.259648633819779e-09 -5.991643181602058e-09 0.0001288648636545986" pbc="T T T"
Pd       2.05338114       1.45196057       3.55656209      -0.00000394      -0.00000021      -0.00000019
Pd       6.16014619       4.35588116      10.66968568       0.00000026       0.00000004      -0.00000382
Ti      -0.00000013      -0.00000004      -0.00000043       0.00000087      -0.00000086       0.00000109
Br       2.02857824       1.43442147       7.11312429       0.00413972       0.00292644       0.00000016
Br       6.18495041       4.37342006       7.11312438      -0.00413938      -0.00292748       0.00000183
Br       5.14585759       1.43442115       5.31336243      -0.00206918       0.00292753       0.00358747
Br       3.06767140       4.37342019       8.91288662       0.00207157      -0.00292781      -0.00358500
Br       3.06767103       4.37342069       5.31336261       0.00206970      -0.00292723       0.00358593
Br       5.14585758       1.43442124       8.91288631      -0.00206959       0.00292961      -0.00358757
