9
Lattice="5.831251633639746 3.7447948106325494e-08 3.366675080408906 1.9437505886799271 5.4977576454748815 3.3666750651200528 -9.608698334885427e-08 -8.666878876701654e-08 6.733350327245459" Properties=species:S:1:pos:R:3:forces:R:3 energy=-32.97074508666992 free_energy=-32.97074508666992 stress="0.0003283177502453327 -3.4144836291716274e-08 1.0457983812273142e-08 -3.4144836291716274e-08 0.0003282311954535544 -2.04074286358491e-08 1.0457983812273142e-08 -2.04074286358491e-08 0.0003283938276581466" pbc="T T T"
Pd       1.94375115       1.37443864       3.36667657       0.00000123      -0.00000474       0.00000680
Pd       5.83125106       4.12332003      10.10002579      -0.00000264       0.00000798       0.00000242
Ti       0.00000010       0.00000012       0.00000091      -0.00000181      -0.00000014      -0.00001328
Cl       1.91290999       1.35263048       6.73334968      -0.00541341      -0.00382957      -0.00000413
Cl       5.86209316       4.14512575       6.73335015       0.00541690       0.00382832      -0.00000305
Cl       4.87479620       1.35263107       5.02330339       0.00270414      -0.00382751      -0.00469103
Cl       2.90020635       4.14512619       8.44339523      -0.00271012       0.00383610       0.00469589
Cl       2.90020520       4.14512612       5.02330443      -0.00270675       0.00382829      -0.00469080
Cl       4.87479533       1.35263196       8.44339552       0.00271231      -0.00383857       0.00469700
