9
Lattice="5.497101071414858 -6.611002189490226e-08 3.1737527366442913 1.8323669601191936 5.182716404438546 3.1737527389940396 -3.404645466244754e-08 -2.119663400595702e-08 6.3475055322587535" Properties=species:S:1:pos:R:3:forces:R:3 energy=-37.7978401184082 free_energy=-37.7978401184082 stress="-6.935664714546874e-05 7.094169252042093e-09 -7.777788191276613e-09 7.094169252042093e-09 -6.935377314221114e-05 2.7593256568536617e-09 -7.777788191276613e-09 2.7593256568536617e-09 -6.93384135956876e-05" pbc="T T T"
Pd       1.83236687       1.29567909       3.17375295      -0.00000015      -0.00000018       0.00000112
Pd       5.49710131       3.88703709       9.52125815       0.00000129      -0.00000055       0.00000047
Ti       0.00000049      -0.00000033      -0.00000009      -0.00000579       0.00000127      -0.00000031
Se       2.00103763       1.41494742       6.34750564       0.00235540       0.00166713      -0.00000048
Se       5.32843029       3.76776889       6.34750553      -0.00235349      -0.00166487       0.00000043
Se       4.49658179       1.41494727       4.90670246      -0.00117771       0.00166436       0.00203867
Se       2.83288570       3.76776912       7.78830861       0.00117767      -0.00166646      -0.00204102
Se       2.83288581       3.76776927       4.90670207       0.00117868      -0.00166582       0.00204025
Se       4.49658206       1.41494740       7.78830873      -0.00117601       0.00166523      -0.00203931
