9
Lattice="5.28023460541064 -7.799280712883205e-08 3.048544843796607 1.7600781489818047 4.978252576156338 3.0485448079248396 1.8420344140012468e-08 -3.090860231295331e-08 6.0970896556882375" Properties=species:S:1:pos:R:3:forces:R:3 energy=-39.421268463134766 free_energy=-39.421268463134766 stress="0.00033985634217970073 -4.232183314911708e-08 1.8408595536811845e-08 -4.232183314911708e-08 0.0003400845162104815 1.759451606631046e-08 1.8408595536811845e-08 1.759451606631046e-08 0.0003399755514692515" pbc="T T T"
Pd       1.76007832       1.24456333       3.04854469       0.00000414       0.00000106      -0.00000205
Pd       5.28023476       3.73368891       9.14563417       0.00000155      -0.00000587      -0.00000814
Ti      -0.00000007      -0.00000006      -0.00000006       0.00000091       0.00000045       0.00000075
S        1.87540675       1.32611308       6.09708953       0.00774735       0.00548241      -0.00000005
S        5.16490584       3.65213957       6.09708938      -0.00774947      -0.00548245       0.00000004
S        4.34253135       1.32611301       4.67269514      -0.00387277       0.00547923       0.00671184
S        2.69778216       3.65213975       7.52148455       0.00387868      -0.00547732      -0.00670674
S        2.69778138       3.65213910       4.67269496       0.00386770      -0.00547956       0.00670981
S        4.34253060       1.32611318       7.52148487      -0.00387791       0.00548220      -0.00670511
