9
Lattice="6.637923877296616 3.785064676508813e-08 3.8324072653934276 2.2126413323714416 6.258294819348912 3.83240725802647 5.589357283045382e-08 3.0500108241768035e-08 7.664814433976351" Properties=species:S:1:pos:R:3:forces:R:3 energy=-26.19936752319336 free_energy=-26.19936752319336 stress="-0.00019889224495273083 -2.349815986235626e-08 -2.1727557530937247e-09 -2.349815986235626e-08 -0.000198889771127142 8.120568217862001e-09 -2.1727557530937247e-09 8.120568217862001e-09 -0.00019886961672455072" pbc="T T T"
Pd       2.21264105       1.56457368       3.83240718      -0.00000052       0.00000042      -0.00000027
Pd       6.63792349       4.69372151      11.49722148      -0.00000028       0.00000040       0.00000014
Ti       0.00000016       0.00000019       0.00000021       0.00000024      -0.00000070      -0.00000069
I        2.19586884       1.55271359       7.66481464       0.00098267       0.00069413       0.00000017
I        6.65469644       4.70558119       7.66481455      -0.00098138      -0.00069460      -0.00000040
I        5.53998963       1.55271382       5.73408541      -0.00048938       0.00069271       0.00084928
I        3.31057594       4.70558083       9.59554332       0.00048904      -0.00069226      -0.00084709
I        3.31057592       4.70558072       5.73408541       0.00049019      -0.00069332       0.00084843
I        5.53998965       1.55271405       9.59554365      -0.00049064       0.00069325      -0.00084973
