9
Lattice="6.112741465368935 -3.7023248825617684e-08 3.529192862694347 2.0375804750646247 5.7631477804205185 3.5291928254306693 1.3498096036610482e-09 -4.4684104477440416e-08 7.058385723050739" Properties=species:S:1:pos:R:3:forces:R:3 energy=-28.837173461914062 free_energy=-28.837173461914062 stress="0.0002788453421089798 1.2679619132427433e-08 7.2564612096925885e-09 1.2679619132427433e-08 0.00027885398594662547 -9.609892881456972e-10 7.2564612096925885e-09 -9.609892881456972e-10 0.0002788371639326215" pbc="T T T"
Pd       2.03757960       1.44078667       3.52919278      -0.00000287      -0.00000098      -0.00000039
Pd       6.11274150       4.32235976      10.58757897       0.00000035      -0.00000408       0.00000127
V        0.00000047      -0.00000039      -0.00000075      -0.00000295       0.00000593       0.00000688
Br       1.97983485       1.39995490       7.05838563      -0.00608760      -0.00430158       0.00000039
Br       6.17048737       4.36319333       7.05838560       0.00608516       0.00430296       0.00000066
Br       5.12282428       1.39995492       5.24378009       0.00304599      -0.00430498      -0.00527422
Br       3.02749758       4.36319378       8.87299195      -0.00303902       0.00429922       0.00526488
Br       3.02749793       4.36319335       5.24377981      -0.00304233       0.00430353      -0.00526965
Br       5.12282426       1.39995446       8.87299160       0.00304341      -0.00430022       0.00527009
