9
Lattice="5.17241309818592 -2.446310619309632e-08 2.9862940382787353 1.724137671616484 4.876597666477162 2.986294046444926 -4.116034262561606e-08 -1.9103239043073424e-08 5.972588147849275" Properties=species:S:1:pos:R:3:forces:R:3 energy=-40.363197326660156 free_energy=-40.363197326660156 stress="0.00015479217108804733 -4.3014004802444106e-08 -1.672673022312665e-08 -4.3014004802444106e-08 0.000154753215610981 1.964763640671663e-08 -1.672673022312665e-08 1.964763640671663e-08 0.00015477737179026008" pbc="T T T"
Pd       1.72413931       1.21914945       2.98629347       0.00001505       0.00000281      -0.00000551
Pd       5.17241168       3.65744812       8.95888141      -0.00001185      -0.00000189      -0.00000860
V       -0.00000014       0.00000031       0.00000051       0.00000049      -0.00000625      -0.00000550
S        1.81769565       1.28530507       5.97258799      -0.00407708      -0.00288305       0.00000058
S        5.07885474       3.59129279       5.97258854       0.00407952       0.00288701       0.00000361
S        4.26356490       1.28530506       4.56046463       0.00203568      -0.00288218      -0.00352961
S        2.63298635       3.59129231       7.38471180      -0.00203755       0.00288647       0.00354302
S        2.63298613       3.59129245       4.56046461      -0.00203624       0.00288156      -0.00353551
S        4.26356421       1.28530493       7.38471200       0.00203198      -0.00288439       0.00353748
