9
Lattice="5.403012263574948 -3.677600971019205e-08 3.119430591639695 1.8010040527087476 5.094008813248588 3.119430592465538 -2.342190976596785e-08 -1.555034999551129e-08 6.23886122384733" Properties=species:S:1:pos:R:3:forces:R:3 energy=-38.285404205322266 free_energy=-38.285404205322266 stress="-0.0001230637135449797 -4.264424191546823e-08 -7.580915450944303e-09 -4.264424191546823e-08 -0.000123092599096708 8.694670761144607e-09 -7.580915450944303e-09 8.694670761144607e-09 -0.00012304671690799296" pbc="T T T"
Pd       1.80100440       1.27350172       3.11943051       0.00000252      -0.00000203      -0.00000097
Pd       5.40301195       3.82050699       9.35829148      -0.00000227       0.00000258      -0.00000127
V        0.00000008       0.00000008      -0.00000029       0.00000063       0.00000038       0.00000367
Se       1.96478017       1.38930910       6.23886109       0.00073522       0.00051856       0.00000005
Se       5.23923616       3.70469977       6.23886107      -0.00073636      -0.00052001      -0.00000010
Se       4.42062197       1.38930919       4.82098038      -0.00036608       0.00051641       0.00063473
Se       2.78339436       3.70469949       7.65674249       0.00036849      -0.00051971      -0.00063506
Se       2.78339416       3.70469941       4.82098043       0.00036591      -0.00051661       0.00063431
Se       4.42062188       1.38930924       7.65674242      -0.00036810       0.00052041      -0.00063562
