9
Lattice="5.81626848600089 7.27510674849807e-07 3.3580244762622953 1.9387568019720447 5.483632527413358 3.3580245558186412 -4.8953129599678e-08 6.28211416774709e-08 6.7160490373139305" Properties=species:S:1:pos:R:3:forces:R:3 energy=-32.51158905029297 free_energy=-32.51158905029297 stress="-4.4982266445003916e-06 1.7087501191781485e-08 -1.8789894085102787e-09 1.7087501191781485e-08 -4.4818771129939705e-06 1.2495629420072873e-08 -1.8789894085102787e-09 1.2495629420072873e-08 -4.460241598280845e-06" pbc="T T T"
Pd       1.93875622       1.37090960       3.35802498      -0.00000068       0.00000328       0.00000140
Pd       5.81626916       4.11272400      10.07407277       0.00000004      -0.00000131      -0.00000162
V       -0.00000018      -0.00000008       0.00000007       0.00000024      -0.00000097      -0.00000247
Cl       1.85506726       1.31173154       6.71604876      -0.00002286      -0.00001529      -0.00000090
Cl       5.89995802       4.17190172       6.71604938       0.00002247       0.00001439       0.00000057
Cl       4.88873475       1.31173163       4.96456009       0.00000949      -0.00001448      -0.00001860
Cl       2.86629055       4.17190131       8.46753806      -0.00001107       0.00001496       0.00002119
Cl       2.86629020       4.17190164       4.96456029      -0.00000894       0.00001419      -0.00001895
Cl       4.88873494       1.31173192       8.46753795       0.00001112      -0.00001496       0.00001943
