9
Lattice="5.818855189289788 -5.717141824137079e-09 3.359517819347462 1.9396182896432281 5.486069449279578 3.3595179949713674 -1.4655756392306796e-07 1.1146266544674262e-07 6.719035892540039" Properties=species:S:1:pos:R:3:forces:R:3 energy=-32.51156234741211 free_energy=-32.51156234741211 stress="0.0002509686746634543 -2.1099269886803995e-08 1.5463589519981724e-08 -2.1099269886803995e-08 0.00025089504197239876 5.6304216400349105e-08 1.5463589519981724e-08 5.6304216400349105e-08 0.00025090109556913376" pbc="T T T"
Pd       1.93961754       1.37151724       3.35951781       0.00000075      -0.00000272      -0.00000070
Pd       5.81885418       4.11455359      10.07855720      -0.00000390       0.00000324       0.00000924
V        0.00000028       0.00000000      -0.00000024      -0.00000245      -0.00000205      -0.00000123
Cl       1.85524086       1.31185137       6.71903562      -0.00215855      -0.00152662      -0.00000098
Cl       5.90323365       4.17421690       6.71903476       0.00216174       0.00152823      -0.00000269
Cl       4.89123489       1.31185283       4.96620167       0.00108187      -0.00152722      -0.00186896
Cl       2.86723802       4.17421699       8.47186884      -0.00108124       0.00152853       0.00186893
Cl       2.86723925       4.17421714       4.96620179      -0.00107855       0.00152513      -0.00187019
Cl       4.89123463       1.31185226       8.47186947       0.00108032      -0.00152642       0.00186622
