9
Lattice="4.66474742550417 -1.2214641873964425e-07 2.6931932278579307 1.5549156727366462 4.397966159077365 2.6931932635451123 -1.4337624540107705e-08 3.3569431783113025e-08 5.386386480549376" Properties=species:S:1:pos:R:3:forces:R:3 energy=-42.757362365722656 free_energy=-42.757362365722656 stress="0.00018574576824903488 -1.333288857097159e-08 -1.5561500532612627e-08 -1.333288857097159e-08 0.00018580319010652602 -4.795777996946526e-09 -1.5561500532612627e-08 -4.795777996946526e-09 0.00018580059986561537" pbc="T T T"
Pd       1.55491666       1.09949102       2.69319279       0.00000413      -0.00000011      -0.00000243
Pd       4.66474690       3.29847467       8.07958009      -0.00000196      -0.00000059       0.00000240
V       -0.00000016       0.00000006      -0.00000006       0.00000448      -0.00000180       0.00000744
F        1.52986178       1.08177613       5.38638648      -0.00193158      -0.00136758       0.00000097
F        4.68980114       3.31619039       5.38638622       0.00192824       0.00136544      -0.00000011
F        3.89981619       1.08177622       4.01809246       0.00096657      -0.00136859      -0.00167518
F        2.31984678       3.31619026       6.75468055      -0.00096551       0.00136593       0.00167311
F        2.31984697       3.31618999       4.01809259      -0.00096675       0.00137099      -0.00167639
F        3.89981611       1.08177557       6.75468076       0.00096246      -0.00136372       0.00167021
