9
Lattice="6.504636230832174 1.258418302800051e-07 3.7554533401414902 2.16821216933719 6.132629771855503 3.755453385610732 -3.4454845479772696e-08 3.1325025467208004e-08 7.510906739960407" Properties=species:S:1:pos:R:3:forces:R:3 energy=-25.88764190673828 free_energy=-25.88764190673828 stress="0.0002075608936138451 5.641660028032902e-09 -5.780318446113597e-09 5.641660028032902e-09 0.00020754104480147362 1.7402834381896604e-11 -5.780318446113597e-09 1.7402834381896604e-11 0.0002075357042485848" pbc="T T T"
Pd       2.16821204       1.53315715       3.75545353       0.00000005      -0.00000067       0.00000074
Pd       6.50463611       4.59947272      11.26636015      -0.00000045       0.00000078       0.00000001
V        0.00000047       0.00000101       0.00000049      -0.00000542      -0.00000818      -0.00000549
I        2.15066256       1.52074792       7.51090674      -0.00764331      -0.00540540      -0.00000051
I        6.52218452       4.61188117       7.51090703       0.00765434       0.00541200      -0.00000077
I        5.42930522       1.52074816       5.61798153       0.00382155      -0.00540578      -0.00661989
I        3.24354409       4.61188124       9.40383111      -0.00382695       0.00540968       0.00662616
I        3.24354351       4.61188184       5.61798178      -0.00382402       0.00540664      -0.00662285
I        5.42930496       1.52074846       9.40383151       0.00382426      -0.00540912       0.00662267
