9
Lattice="4.663712515838171 6.391744613618162e-08 2.692595836862027 1.5545708350110612 4.3969906373036975 2.692595947477042 -6.658599961893262e-08 8.839175484477224e-08 5.3851917890543675" Properties=species:S:1:pos:R:3:forces:R:3 energy=-42.757362365722656 free_energy=-42.757362365722656 stress="-8.002836693776771e-05 -1.2551969241769712e-08 -1.9248947324967958e-08 -1.2551969241769712e-08 -8.003618131624535e-05 3.0793454453004188e-09 -1.9248947324967958e-08 3.0793454453004188e-09 -8.002835238585249e-05" pbc="T T T"
Pd       1.55457139       1.09924773       2.69259641       0.00000256       0.00000109       0.00000261
Pd       4.66371254       3.29774288       8.07778758       0.00000060      -0.00000110      -0.00000204
V       -0.00000002      -0.00000005       0.00000004      -0.00000070       0.00000036       0.00000714
F        1.52956260       1.08156433       5.38519159       0.00282939       0.00200140      -0.00000053
F        4.68872047       3.31542647       5.38519172      -0.00283115      -0.00200105       0.00000040
F        3.89893089       1.08156422       4.01723600      -0.00141389       0.00199860       0.00244717
F        2.31935203       3.31542645       6.75314745       0.00141575      -0.00200198      -0.00245196
F        2.31935218       3.31542625       4.01723609       0.00141395      -0.00199998       0.00244910
F        3.89893135       1.08156441       6.75314739      -0.00141652       0.00200275      -0.00245158
