9
Lattice="6.112671304808851 -1.2907504846121594e-08 3.529152596397308 2.037557140972595 5.763081876952158 3.529152507129217 1.2655422251870796e-07 -1.9843293393361272e-08 7.058304973596238" Properties=species:S:1:pos:R:3:forces:R:3 energy=-28.837175369262695 free_energy=-28.837175369262695 stress="4.4202253775438294e-05 -1.4382610658003614e-08 -1.224506718244811e-08 -1.4382610658003614e-08 4.421780977281742e-05 1.0605202938052116e-08 -1.224506718244811e-08 1.0605202938052116e-08 4.4219916162546724e-05" pbc="T T T"
Pd       2.03755764       1.44077027       3.52915245       0.00000158      -0.00000044      -0.00000019
Pd       6.11267145       4.32231158      10.58745795      -0.00000037       0.00000016       0.00000094
V       -0.00000018      -0.00000002       0.00000011       0.00000270      -0.00000180       0.00000044
Br       1.97895083       1.39932983       7.05830496       0.00545755       0.00385916       0.00000063
Br       6.17127790       4.36375199       7.05830481      -0.00545835      -0.00385979       0.00000025
Br       5.12319565       1.39932976       5.24297421      -0.00272863       0.00385793       0.00472601
Br       3.02703279       4.36375235       8.87363565       0.00272803      -0.00385767      -0.00472461
Br       3.02703293       4.36375214       5.24297425       0.00272807      -0.00385788       0.00472507
Br       5.12319543       1.39932940       8.87363593      -0.00273037       0.00386035      -0.00472854
