9
Lattice="6.624887734792487 -3.634895099339669e-08 3.824880684486692 2.2082958620713518 6.246004071892663 3.8248807109109038 -1.1243913854806751e-08 2.441227778389732e-08 7.649761388448393" Properties=species:S:1:pos:R:3:forces:R:3 energy=-28.298641204833984 free_energy=-28.298641204833984 stress="-1.2166447049821727e-06 -1.0399358707502415e-08 -6.852203526808154e-11 -1.0399358707502415e-08 -1.212902134284377e-06 -1.9549846186350806e-09 -6.852203526808154e-11 -1.9549846186350806e-09 -1.200662609335268e-06" pbc="T T T"
Pd       2.20829556       1.56150099       3.82488055      -0.00000086       0.00000038      -0.00000040
Pd       6.62488781       4.68450305      11.47464179       0.00000039       0.00000003       0.00000010
W       -0.00000007       0.00000005       0.00000026       0.00000255       0.00000185      -0.00000097
I        2.20830578       1.56150769       7.64976145      -0.00702979      -0.00497175       0.00000054
I        6.62487819       4.68449645       7.64976140       0.00702682       0.00496903      -0.00000014
I        5.52073506       1.56150794       5.73732965       0.00351553      -0.00497069      -0.00608823
I        3.31244855       4.68449615       9.56219316      -0.00351539       0.00497130       0.00608855
I        3.31244844       4.68449602       5.73732961      -0.00351527       0.00497095      -0.00608820
I        5.52073507       1.56150789       9.56219326       0.00351599      -0.00497107       0.00608869
