9
Lattice="6.237569441157741 5.0912697624687527e-08 3.6012625372974334 2.079189851758309 5.880836918567378 3.6012625545519237 -1.2210018540614004e-07 -6.520553120925572e-08 7.202525286078567" Properties=species:S:1:pos:R:3:forces:R:3 energy=-31.719209671020508 free_energy=-31.719209671020508 stress="2.265807597723324e-05 7.929556566921292e-09 3.837593798294847e-09 7.929556566921292e-09 2.267978197778575e-05 4.055288993498607e-09 3.837593798294847e-09 4.055288993498607e-09 2.2651707695331424e-05" pbc="T T T"
Pd       2.07918971       1.47020898       3.60126191       0.00000002      -0.00000024      -0.00000211
Pd       6.23756894       4.41062752      10.80378759      -0.00000125      -0.00000103      -0.00000072
W       -0.00000013       0.00000011      -0.00000023       0.00000355      -0.00000145       0.00000475
Br       2.03410986       1.43833280       7.20252553       0.00021576       0.00015177       0.00000043
Br       6.28264934       4.44250426       7.20252527      -0.00021796      -0.00015259       0.00000060
Br       5.22051495       1.43833292       5.36285355      -0.00010776       0.00015239       0.00018717
Br       3.09624453       4.44250390       9.04219736       0.00010905      -0.00015304      -0.00018735
Br       3.09624464       4.44250405       5.36285335       0.00010787      -0.00015146       0.00018675
Br       5.22051475       1.43833310       9.04219723      -0.00010929       0.00015561      -0.00018951
