9
Lattice="5.141129332797857 -1.4263251497804095e-07 2.9682326151043443 1.7137097508917212 4.8471024960582865 2.9682324284452477 1.6108699449191036e-07 -1.1470399416284491e-07 5.936464951197831" Properties=species:S:1:pos:R:3:forces:R:3 energy=-42.63365173339844 free_energy=-42.63365173339844 stress="7.491250289604068e-05 1.4701129202876473e-08 -4.0351025631935045e-08 1.4701129202876473e-08 7.491034921258688e-05 5.382997514402632e-08 -4.0351025631935045e-08 5.382997514402632e-08 7.491950964322314e-05" pbc="T T T"
Pd       1.71370967       1.21177475       2.96823128       0.00000006      -0.00000114      -0.00000083
Pd       5.14112974       3.63532767       8.90469741      -0.00000009       0.00000043      -0.00000017
W        0.00000003      -0.00000018       0.00000021       0.00000040      -0.00000141       0.00000772
F        1.59328065       1.12661899       5.93646484       0.00019032       0.00013447       0.00000000
F        5.26155809       3.72048348       5.93646521      -0.00018778      -0.00013320       0.00000077
F        4.34448989       1.12661945       4.34805467      -0.00009377       0.00013177       0.00016171
F        2.51034949       3.72048299       7.52487582       0.00009434      -0.00013474      -0.00016391
F        2.51035025       3.72048344       4.34805431       0.00009416      -0.00013435       0.00016317
F        4.34448893       1.12661895       7.52487644      -0.00009760       0.00013819      -0.00016835
