9
Lattice="5.911922436513455 -1.461493012719665e-07 3.4132499261925213 1.9706407789725686 5.573813535497165 3.413249745033327 9.820675368585893e-08 -1.5243110868503537e-07 6.826499682285982" Properties=species:S:1:pos:R:3:forces:R:3 energy=-35.52315902709961 free_energy=-35.52315902709961 stress="-0.0002764401724562049 1.2167804541718397e-08 3.271294701789884e-08 1.2167804541718397e-08 -0.00027650149422697723 -2.6446063117191443e-08 3.271294701789884e-08 -2.6446063117191443e-08 -0.00027647288516163826" pbc="T T T"
Pd       1.97064064       1.39345314       3.41324985      -0.00000016      -0.00000017      -0.00000078
Pd       5.91192187       4.18035997      10.23975076      -0.00000083      -0.00000023       0.00000388
W        0.00000006      -0.00000005      -0.00000024      -0.00000152       0.00000253      -0.00000450
Cl       1.90673262       1.34826277       6.82649939       0.00237811       0.00168160      -0.00000045
Cl       5.97583114       4.22555035       6.82649944      -0.00238004      -0.00168337      -0.00000103
Cl       4.95855683       1.34826308       5.06452830      -0.00119050       0.00168480       0.00206126
Cl       2.92400687       4.22555056       8.58847092       0.00119105      -0.00168253      -0.00206217
Cl       2.92400689       4.22555021       5.06452804       0.00119119      -0.00168325       0.00206095
Cl       4.95855643       1.34826293       8.58847087      -0.00118732       0.00168059      -0.00205712
