9
Lattice="6.933854359327413 -1.1090457707959558e-07 4.003262746858898 2.311284722012422 6.537300450013514 4.003262677348591 4.6469465983365153e-08 -5.2273400137288175e-08 8.006525413230241" Properties=species:S:1:pos:R:3:forces:R:3 energy=-26.124309539794922 free_energy=-26.124309539794922 stress="0.00013566354755312204 -6.9236842925590736e-09 8.862668821052466e-09 -6.9236842925590736e-09 0.0001356585999019444 -2.1571858965785395e-08 8.862668821052466e-09 -2.1571858965785395e-08 0.00013565027620643377" pbc="T T T"
Pd       2.31128475       1.63432521       4.00326281       0.00000061       0.00000098       0.00000032
Pd       6.93385421       4.90297493      12.00978767      -0.00000115      -0.00000091      -0.00000149
Y       -0.00000052       0.00000074       0.00000034       0.00000284      -0.00000577       0.00000018
I        2.44134596       1.72629224       8.00652536      -0.00662378      -0.00468471       0.00000022
I        6.80379325       4.81100813       8.00652569       0.00662488       0.00468542      -0.00000018
I        5.71318132       1.72629207       6.11753034       0.00331045      -0.00468153      -0.00573457
I        3.53195820       4.81100764       9.89551979      -0.00331243       0.00468364       0.00573778
I        3.53195801       4.81100745       6.11753074      -0.00331322       0.00468597      -0.00573953
I        5.71318132       1.72629275       9.89552062       0.00331184      -0.00468320       0.00573731
