9
Lattice="6.054112364753796 -1.3945170854007816e-07 3.495343325874406 2.018037273354404 5.707872663309393 3.495343412627874 5.827976429044841e-08 1.4746092393612828e-07 6.990686550805331" Properties=species:S:1:pos:R:3:forces:R:3 energy=-31.798168182373047 free_energy=-31.798168182373047 stress="0.0003486738132778555 1.1926074350299132e-08 -3.735352471778697e-09 1.1926074350299132e-08 0.00034864823101088405 1.4697599581836585e-08 -3.735352471778697e-09 1.4697599581836585e-08 0.00034865745692513883" pbc="T T T"
Pd       2.01803624       1.42696939       3.49534338      -0.00000468       0.00000673       0.00000014
Pd       6.05411216       4.28090349      10.48602961      -0.00000103      -0.00000546      -0.00000176
Y        0.00000033      -0.00000002       0.00000019      -0.00000167       0.00000032      -0.00000138
Cl       2.10165127       1.48609180       6.99068670      -0.00413682      -0.00292593       0.00000108
Cl       5.97049871       4.22178066       6.99068711       0.00413897       0.00292511       0.00000092
Cl       5.00328819       1.48609260       5.31542650       0.00207207      -0.00292434      -0.00358327
Cl       3.06886306       4.22178095       8.66594688      -0.00206849       0.00292500       0.00358444
Cl       3.06886162       4.22177964       5.31542596      -0.00206973       0.00292300      -0.00358379
Cl       5.00328721       1.48609217       8.66594683       0.00207141      -0.00292457       0.00358374
