9
Lattice="4.939684879964897 1.9187559919623837e-08 2.851928280947582 1.6465616270132626 4.65717974814344 2.8519283116601484 -7.021253915913942e-08 -1.2032711919119279e-08 5.703856683506843" Properties=species:S:1:pos:R:3:forces:R:3 energy=-42.971160888671875 free_energy=-42.971160888671875 stress="9.260017395718023e-05 9.451110827285447e-08 -1.1713485292830228e-08 9.451110827285447e-08 9.235644392902032e-05 6.60606769287142e-09 -1.1713485292830228e-08 6.60606769287142e-09 9.255603072233498e-05" pbc="T T T"
Pd       1.64656018       1.16429644       2.85192808      -0.00001004       0.00001221      -0.00000359
Pd       4.93968324       3.49288340       8.55578403      -0.00001053      -0.00001209      -0.00000355
Y       -0.00000012       0.00000001       0.00000027       0.00000041       0.00000102      -0.00000305
F        1.73730452       1.22845991       5.70385656      -0.00092048      -0.00064858       0.00000018
F        4.84894252       3.42871936       5.70385711       0.00092392       0.00064573       0.00000167
F        4.07103326       1.22846015       4.35647822       0.00046424      -0.00064408      -0.00079270
F        2.51521448       3.42871956       7.05123571      -0.00045581       0.00064608       0.00079787
F        2.51521437       3.42871990       4.35647758      -0.00045490       0.00064570      -0.00079399
F        4.07103318       1.22846030       7.05123539       0.00046301      -0.00064595       0.00079718
