9
Lattice="6.450188918890203 9.414481122561711e-08 3.7240184303580244 2.150063028450604 6.0812964948131345 3.7240184879892944 -2.093690757600471e-08 5.57789912058158e-08 7.448036896979865" Properties=species:S:1:pos:R:3:forces:R:3 energy=-28.768930435180664 free_energy=-28.768930435180664 stress="5.904610952711664e-05 -1.2606735211306841e-08 -7.391905976206203e-10 -1.2606735211306841e-08 5.9084668464493006e-05 2.9329847439640844e-09 -7.391905976206203e-10 2.9329847439640844e-09 5.906596197746694e-05" pbc="T T T"
Pd       2.15006251       1.52032395       3.72401868      -0.00000168      -0.00000060       0.00000030
Pd       6.45019004       4.56097236      11.17205622       0.00000363      -0.00000050       0.00000303
Y       -0.00000009      -0.00000027       0.00000023      -0.00000177       0.00000352       0.00000215
Br       2.24264679       1.58579115       7.44803662      -0.00065494      -0.00046193      -0.00000059
Br       6.35760503       4.49550562       7.44803658       0.00065250       0.00046163      -0.00000102
Br       5.32886557       1.58579123       5.66620758       0.00032946      -0.00046328      -0.00056871
Br       3.27138602       4.49550596       9.22986573      -0.00032754       0.00046152       0.00056351
Br       3.27138621       4.49550576       5.66620766      -0.00032683       0.00046150      -0.00056385
Br       5.32886560       1.58579081       9.22986587       0.00032718      -0.00046185       0.00056531
