9
Lattice="4.594820977928987 4.694697987042329e-08 2.652821233986765 1.5316070144841631 4.33203877651985 2.6528212728208875 1.271873028194008e-07 1.3749689369693443e-07 5.305642247678654" Properties=species:S:1:pos:R:3:forces:R:3 energy=-31.676925659179688 free_energy=-31.676925659179688 stress="0.000396386458305642 -2.039028679234889e-08 -7.719877004319642e-08 -2.039028679234889e-08 0.00039655802538618445 -9.076665463680911e-08 -7.719877004319642e-08 -9.076665463680911e-08 0.00039642356568947434" pbc="T T T"
Pd       1.53160634       1.08300915       2.65282028      -0.00000686      -0.00000367      -0.00000825
Pd       4.59482101       3.24902940       7.95846459      -0.00000049       0.00000250       0.00000899
Zn      -0.00000014       0.00000004       0.00000022      -0.00000003      -0.00000341      -0.00000061
F        1.56905797       1.10949139       5.30564264      -0.00660461      -0.00467250       0.00000357
F        4.55737015       3.22254757       5.30564203       0.00660795       0.00467274      -0.00000376
F        3.81029267       1.10949170       4.01166557       0.00330734      -0.00466922      -0.00571927
F        2.31613600       3.22254745       6.59961928      -0.00330511       0.00467223       0.00572169
F        2.31613643       3.22254761       4.01166564      -0.00330167       0.00467759      -0.00572467
F        3.81029211       1.10949159       6.59961897       0.00330377      -0.00467604       0.00572205
