9
Lattice="5.682680794527612 -1.4441166423795472e-07 3.2808971381716066 1.8942267763256344 5.357682121928581 3.280897171134118 -6.38960507663556e-08 -4.81064495993599e-09 6.5617943870143955" Properties=species:S:1:pos:R:3:forces:R:3 energy=-21.153133392333984 free_energy=-21.153133392333984 stress="0.00013703355216421187 -2.755091932371556e-09 -1.5270442688120056e-08 -2.755091932371556e-09 0.00013706969912163913 1.1464615035094994e-08 -1.5270442688120056e-08 1.1464615035094994e-08 0.00013709846825804561" pbc="T T T"
Pd       1.89422711       1.33942104       3.28089825       0.00000209       0.00000463       0.00000484
Pd       5.68268069       4.01825977       9.84269270      -0.00000166      -0.00000902       0.00000424
Zn      -0.00000004      -0.00000033       0.00000016       0.00000042       0.00000427      -0.00000241
Cl       1.93727293       1.36985926       6.56179417      -0.00624412      -0.00440902      -0.00000307
Cl       5.63963461       3.98782326       6.56179421       0.00623930       0.00440867      -0.00000192
Cl       4.71404398       1.36985926       4.95862413       0.00312017      -0.00440606      -0.00540599
Cl       2.86286360       3.98782322       8.16496350      -0.00312041       0.00441177       0.00540268
Cl       2.86286354       3.98782292       4.95862408      -0.00311765       0.00440666      -0.00540447
Cl       4.71404367       1.36985942       8.16496367       0.00312185      -0.00441188       0.00540620
