9
Lattice="6.061506867289048 2.2301565618127717e-08 3.4996125576091583 2.0205023033714955 5.714843444772708 3.4996125693021556 -9.951026951671451e-09 7.284551688355435e-09 6.999225132454002" Properties=species:S:1:pos:R:3:forces:R:3 energy=-18.975875854492188 free_energy=-18.975875854492188 stress="5.377586421673186e-05 -3.768822587346676e-09 4.815160270510432e-09 -3.768822587346676e-09 5.3784551710123196e-05 -4.843293766043644e-09 4.815160270510432e-09 -4.843293766043644e-09 5.37861451448407e-05" pbc="T T T"
Pd       2.02050171       1.42871132       3.49961266      -0.00000354       0.00000207       0.00000053
Pd       6.06150711       4.28613233      10.49883732       0.00000135      -0.00000068      -0.00000065
Zn       0.00000001      -0.00000017       0.00000008      -0.00000037       0.00000251       0.00000241
Br       2.04311869       1.44470325       6.99922510      -0.00165245      -0.00116637       0.00000038
Br       6.03889061       4.27014006       6.99922530       0.00165072       0.00116624       0.00000007
Br       5.03994756       1.44470315       5.26900530       0.00082709      -0.00116859      -0.00143075
Br       3.04206179       4.27014046       8.72944501      -0.00082383       0.00116524       0.00142696
Br       3.04206158       4.27014031       5.26900528      -0.00082634       0.00116768      -0.00142908
Br       5.03994762       1.44470321       8.72944495       0.00082754      -0.00116813       0.00142998
