9
Lattice="5.680942806926918 1.0680443473659344e-07 3.279894055999459 1.8936477011629465 5.356044301231951 3.2798940591902648 1.6935631537827645e-08 1.58832458545595e-08 6.5597880826655555" Properties=species:S:1:pos:R:3:forces:R:3 energy=-20.434825897216797 free_energy=-20.434825897216797 stress="0.0002755252062343061 -1.820756345694008e-08 -4.0537115886252195e-09 -1.820756345694008e-08 0.0002755401947069913 2.404168775171911e-08 -4.0537115886252195e-09 2.404168775171911e-08 0.00027554677217267454" pbc="T T T"
Pt       1.89364861       1.33901163       3.27989399       0.00000803       0.00000331      -0.00000134
Pt       5.68094255       4.01703273       9.83968221      -0.00000063      -0.00000329       0.00000148
Au      -0.00000009       0.00000011      -0.00000005      -0.00000034      -0.00000048      -0.00000107
Cl       1.95565247       1.38285545       6.55978786      -0.00679502      -0.00480455       0.00000024
Cl       5.61893780       3.97318912       6.55978798       0.00679368       0.00480327      -0.00000049
Cl       4.70311656       1.38285519       4.97353889       0.00339524      -0.00480324      -0.00588334
Cl       2.87147379       3.97318903       8.14603743      -0.00339858       0.00480378       0.00588542
Cl       2.87147378       3.97318935       4.97353896      -0.00339681       0.00480378      -0.00588521
Cl       4.70311661       1.38285509       8.14603762       0.00339419      -0.00480261       0.00588423
