9
Lattice="6.050133989682146 -2.710393813831778e-08 3.493046411941487 2.0167113113614303 5.704120960220136 3.4930463997803627 1.3483636123713996e-08 -5.359886106106803e-09 6.98609280052865" Properties=species:S:1:pos:R:3:forces:R:3 energy=-17.98807144165039 free_energy=-17.98807144165039 stress="4.356733552413061e-05 2.5075557630316325e-08 2.09021138175558e-08 2.5075557630316325e-08 4.36251939390786e-05 3.1152787016708317e-09 2.09021138175558e-08 3.1152787016708317e-09 4.363958214526065e-05" pbc="T T T"
Pt       2.01671063       1.42603054       3.49304621      -0.00000058      -0.00000141      -0.00000020
Pt       6.05013445       4.27809089      10.47913902      -0.00000060       0.00000059      -0.00000154
Au       0.00000016      -0.00000020       0.00000018      -0.00000069       0.00000070      -0.00000415
Br       2.08205163       1.47223281       6.98609282      -0.00020602      -0.00014471       0.00000023
Br       5.98479373       4.23188787       6.98609290       0.00020882       0.00014547      -0.00000146
Br       5.00910820       1.47223281       5.29615599       0.00010355      -0.00014520      -0.00017616
Br       3.05773704       4.23188801       8.67602964      -0.00010674       0.00014853       0.00018159
Br       3.05773718       4.23188807       5.29615610      -0.00010294       0.00014503      -0.00017759
Br       5.00910824       1.47223294       8.67602958       0.00010505      -0.00014906       0.00017950
