9
Lattice="6.048525518693863 -3.093969459073773e-08 3.4921179453959588 2.0161751715621428 5.702604133615968 3.4921178971853237 1.228506708010246e-07 2.7822789557561872e-08 6.984235678008324" Properties=species:S:1:pos:R:3:forces:R:3 energy=-17.360210418701172 free_energy=-17.360210418701172 stress="6.56556585454382e-05 3.3106088981327275e-09 -3.188144637178425e-09 3.3106088981327275e-09 6.554903666255996e-05 -7.125338985503049e-09 -3.188144637178425e-09 -7.125338985503049e-09 6.556500011356547e-05" pbc="T T T"
Pt       2.01617435       1.42565171       3.49211726      -0.00000534       0.00000251      -0.00000467
Pt       6.04852607       4.27695242      10.47635350       0.00000486      -0.00000436      -0.00000097
Ag       0.00000009      -0.00000014       0.00000025      -0.00000218      -0.00000158       0.00000002
Br       2.06519953       1.46031668       6.98423593      -0.00149874      -0.00105928       0.00000156
Br       5.99950142       4.24228748       6.98423585       0.00150067       0.00106138      -0.00000010
Br       5.01592603       1.46031655       5.28063336       0.00075283      -0.00105987      -0.00129889
Br       3.04877501       4.24228746       8.68783828      -0.00075166       0.00106069       0.00129980
Br       3.04877475       4.24228751       5.28063334      -0.00075151       0.00106075      -0.00129648
Br       5.01592598       1.46031686       8.68783833       0.00075113      -0.00106035       0.00129965
