9
Lattice="5.654044331184387 6.1749374639337e-08 3.264364133048005 1.8846815124692293 5.330684210905916 3.264364114821266 1.2310963231206013e-07 6.472854406500897e-08 6.5287280528638805" Properties=species:S:1:pos:R:3:forces:R:3 energy=-19.50823211669922 free_energy=-19.50823211669922 stress="3.677717586469953e-06 1.767002011376917e-08 -1.2776150803972541e-08 1.767002011376917e-08 3.6119679407420335e-06 -2.118757613800426e-08 -1.2776150803972541e-08 -2.118757613800426e-08 3.651412043836899e-06" pbc="T T T"
Pt       1.88468161       1.33267046       3.26436432       0.00000047      -0.00000505       0.00000041
Pt       5.65404452       3.99801316       9.79309315       0.00000369      -0.00000016       0.00000608
Ag       0.00000004       0.00000000       0.00000025       0.00000280       0.00000040      -0.00000605
Cl       1.94984511       1.37874880       6.52872836      -0.00438052      -0.00309874       0.00000060
Cl       5.58888091       3.95193603       6.52872782       0.00437725       0.00310014      -0.00000205
Cl       4.67912235       1.37874858       4.95297939       0.00219029      -0.00309494      -0.00379187
Cl       2.85960357       3.95193562       8.10447637      -0.00219430       0.00310063       0.00379255
Cl       2.85960399       3.95193564       4.95297917      -0.00218987       0.00309582      -0.00379458
Cl       4.67912176       1.37874907       8.10447647       0.00219031      -0.00309812       0.00379500
