9
Lattice="4.783310282261346 -7.770988720424771e-08 2.7616454830585004 1.594436673835101 4.5097485228043634 2.7616455067063503 8.73261804702585e-08 9.071151227433862e-08 5.523290814863624" Properties=species:S:1:pos:R:3:forces:R:3 energy=-28.674686431884766 free_energy=-28.674686431884766 stress="0.00014979124534875154 3.864976960699096e-08 -3.0938824835402556e-08 3.864976960699096e-08 0.00014970537449698895 -3.1079693485480675e-08 -3.0938824835402556e-08 -3.1079693485480675e-08 0.00014981147251091897" pbc="T T T"
Pt       1.59443697       1.12743746       2.76164509       0.00000347       0.00000339      -0.00000222
Pt       4.78331026       3.38231109       8.28493712      -0.00000197      -0.00000294       0.00000394
Au       0.00000002       0.00000011       0.00000013       0.00000183       0.00000145       0.00000801
F        1.65247047       1.16847311       5.52329042      -0.00489509      -0.00346158       0.00000110
F        4.72527683       3.34127563       5.52329081       0.00489154       0.00345825      -0.00000203
F        3.95707491       1.16847336       4.19272644       0.00244932      -0.00346009      -0.00424155
F        2.42067165       3.34127500       6.85385511      -0.00244667       0.00345784       0.00423775
F        2.42067190       3.34127516       4.19272665      -0.00244711       0.00346159      -0.00424229
F        3.95707513       1.16847314       6.85385538       0.00244463      -0.00345784       0.00423731
