9
Lattice="6.431307278293065 -9.059551990783404e-10 3.7131168836016992 2.1437691105951266 6.063494645694666 3.7131168512384494 2.0289491862990384e-08 -2.5289865110510443e-08 7.426233732060919" Properties=species:S:1:pos:R:3:forces:R:3 energy=-16.355165481567383 free_energy=-16.355165481567383 stress="-0.00010978082718793303 -3.829663530741101e-10 -1.2374101743262145e-08 -3.829663530741101e-10 -0.00010980608203681186 -5.173472761299536e-10 -1.2374101743262145e-08 -5.173472761299536e-10 -0.00010976386693073437" pbc="T T T"
Pt       2.14376978       1.51587394       3.71311701       0.00000218       0.00000096       0.00000093
Pt       6.43130729       4.54762141      11.13935010      -0.00000018       0.00000111      -0.00000153
Ag      -0.00000005      -0.00000014       0.00000011       0.00000063       0.00000047      -0.00000288
I        2.26133857       1.59900728       7.42623372      -0.00458001      -0.00324066      -0.00000034
I        6.31373800       4.46448711       7.42623387       0.00458016       0.00323977       0.00000043
I        5.30063772       1.59900749       5.67149313       0.00228870      -0.00323952      -0.00396755
I        3.27443836       4.46448669       9.18097410      -0.00229131       0.00323953       0.00396895
I        3.27443794       4.46448687       5.67149355      -0.00229218       0.00323804      -0.00396636
I        5.30063803       1.59900782       9.18097426       0.00229205      -0.00323968       0.00396837
