9
Lattice="6.456574155953794 -3.842911709578192e-08 3.727704849399783 2.1521913692932495 6.0873163830654775 3.7277048144008367 1.2528850668122098e-08 -3.400549443450029e-08 7.455409677098916" Properties=species:S:1:pos:R:3:forces:R:3 energy=-17.02507781982422 free_energy=-17.02507781982422 stress="-0.00016883043281268328 -3.394841741055643e-09 1.9680695961810102e-10 -3.394841741055643e-09 -0.00016884482465684414 -1.166614804759547e-09 1.9680695961810102e-10 -1.166614804759547e-09 -0.00016883201897144318" pbc="T T T"
Pt       2.15219185       1.52182911       3.72770450       0.00000184       0.00000008      -0.00000113
Pt       6.45657382       4.56548705      11.18311452      -0.00000092      -0.00000123      -0.00000099
Au      -0.00000035      -0.00000027       0.00000024       0.00000204       0.00000194       0.00000052
I        2.28511530       1.61582043       7.45540978      -0.00696220      -0.00492260       0.00000067
I        6.32365053       4.47149605       7.45540954       0.00695966       0.00492094      -0.00000003
I        5.31401654       1.61582019       5.70667238       0.00347975      -0.00492184      -0.00602850
I        3.29474903       4.47149605       9.20414707      -0.00347957       0.00492190       0.00602880
I        3.29474896       4.47149636       5.70667231      -0.00348015       0.00492212      -0.00602838
I        5.31401649       1.61582027       9.20414701       0.00347950      -0.00492142       0.00602904
