9
Lattice="5.930161830028461 -4.399546013517893e-07 3.4237804825556295 1.9767202521872962 5.591010064499519 3.4237803838790635 -2.710162610970186e-07 -3.1249113277760816e-07 6.847561434525251" Properties=species:S:1:pos:R:3:forces:R:3 energy=-20.46349334716797 free_energy=-20.46349334716797 stress="-5.382757444749586e-05 5.792649560021346e-08 1.0287890006566158e-07 5.792649560021346e-08 -5.3839994507143274e-05 8.131807049949202e-08 1.0287890006566158e-07 8.131807049949202e-08 -5.395607149694115e-05" pbc="T T T"
Pt       1.97671980       1.39775159       3.42377848      -0.00000727      -0.00000560      -0.00001253
Pt       5.93016273       4.19325729      10.27134354       0.00000631       0.00000620       0.00000824
Be       0.00000026       0.00000012       0.00000026      -0.00000247      -0.00000103      -0.00000107
Br       1.95003792       1.37888530       6.84756192       0.00189134       0.00134104       0.00000428
Br       5.95684228       4.21212298       6.84756044      -0.00188112      -0.00132842      -0.00000460
Br       4.95514334       1.37888502       5.11256467      -0.00094256       0.00133111       0.00163254
Br       2.95173915       4.21212438       8.58255746       0.00093682      -0.00133578      -0.00163679
Br       2.95173986       4.21212532       5.11256469       0.00094398      -0.00133483       0.00163883
Br       4.95514194       1.37888520       8.58255771      -0.00094490       0.00132746      -0.00162888
