9
Lattice="5.3066131388249325 2.913184457317635e-07 3.0637748336749486 1.7688712838591552 5.003122521902498 3.063774897888099 1.9209115946464555e-07 2.1447369323043422e-07 6.127549334638201" Properties=species:S:1:pos:R:3:forces:R:3 energy=-23.638811111450195 free_energy=-23.638811111450195 stress="-0.0002679213648661971 7.675678759255788e-09 3.55239713201172e-08 7.675678759255788e-09 -0.00026781822089105844 3.88319865152198e-09 3.55239713201172e-08 3.88319865152198e-09 -0.00026794709265232086" pbc="T T T"
Pt       1.76886898       1.25078378       3.06377188      -0.00001836       0.00002816      -0.00002290
Pt       5.30661188       3.75234172       9.19132778      -0.00001325      -0.00000319       0.00002950
Be       0.00000003       0.00000016      -0.00000017       0.00000167      -0.00000141       0.00000161
Cl       1.74015619       1.23047447       6.12755096      -0.00013377      -0.00010309       0.00000934
Cl       5.33533085       3.77264551       6.12754950       0.00014618       0.00008619      -0.00000746
Cl       4.43653648       1.23047673       4.57079240       0.00007941      -0.00009275      -0.00012039
Cl       2.63894799       3.77264725       7.68430518      -0.00007151       0.00009050       0.00011618
Cl       2.63895000       3.77264677       4.57079282      -0.00005994       0.00009548      -0.00012360
Cl       4.43653601       1.23047564       7.68430599       0.00006979      -0.00009985       0.00011793
