9
Lattice="4.330786243832651 -3.6604081228597276e-08 2.500380651093035 1.443595387639969 4.083104468889367 2.50038063803381 1.6826472317470105e-08 -4.096103429691171e-09 5.000761273041743" Properties=species:S:1:pos:R:3:forces:R:3 energy=-37.69188690185547 free_energy=-37.69188690185547 stress="-2.117991061822977e-05 -4.888051563511908e-08 3.660980141262371e-08 -4.888051563511908e-08 -2.1089130314067006e-05 -6.8734844482776225e-09 3.660980141262371e-08 -6.8734844482776225e-09 -2.1059482605778612e-05" pbc="T T T"
Pt       1.44359512       1.02077637       2.50038054      -0.00000139       0.00000113      -0.00000082
Pt       4.33078614       3.06232841       7.50114177       0.00000068       0.00000006       0.00000025
Be      -0.00000004      -0.00000003      -0.00000009       0.00000124      -0.00000024      -0.00000265
F        1.40490276       0.99341619       5.00076138       0.00005776       0.00004154      -0.00000019
F        4.36947902       3.08968815       5.00076124      -0.00005865      -0.00004080       0.00000070
F        3.62833494       0.99341620       3.71706213      -0.00002891       0.00004128       0.00005072
F        2.14604694       3.08968809       6.28446054       0.00002867      -0.00003982      -0.00004977
F        2.14604679       3.08968807       3.71706216       0.00002849      -0.00004211       0.00005040
F        3.62833489       0.99341627       6.28446055      -0.00002784       0.00003934      -0.00004861
