9
Lattice="6.313874274459387 1.8831460963246175e-08 3.645317041634899 2.10462477164325 5.95277761896418 3.645317049020916 2.100558230529534e-08 2.389920050233065e-08 7.290634046887082" Properties=species:S:1:pos:R:3:forces:R:3 energy=-18.710256576538086 free_energy=-18.710256576538086 stress="-2.3480490199290216e-05 -1.2820155603776584e-08 2.7985256334517317e-09 -1.2820155603776584e-08 -2.3461170712835155e-05 2.654813924252153e-09 2.7985256334517317e-09 2.654813924252153e-09 -2.3473983674193732e-05" pbc="T T T"
Pt       2.10462461       1.48819597       3.64531646      -0.00000101       0.00000657      -0.00000480
Pt       6.31387384       4.46458336      10.93594832      -0.00000291       0.00000181      -0.00001332
Be      -0.00000012       0.00000005      -0.00000011       0.00000203       0.00000038       0.00000212
I        2.07748688       1.46900455       7.29063417      -0.00088955      -0.00063127       0.00000174
I        6.34101248       4.48377254       7.29063525       0.00089019       0.00062646       0.00000430
I        5.27513104       1.46900431       5.44447361       0.00044624      -0.00063095      -0.00076669
I        3.14336817       4.48377230       9.13679555      -0.00044337       0.00062568       0.00077370
I        3.14336805       4.48377241       5.44447368      -0.00044649       0.00062802      -0.00076902
I        5.27513131       1.46900512       9.13679560       0.00044489      -0.00062669       0.00077206
