9
Lattice="4.466697403847108 -1.3488154157720805e-08 2.5788489546587514 1.488899124916247 4.211242696130018 2.5788489494326514 1.37044804676769e-08 3.289894529932112e-09 5.157697885580647" Properties=species:S:1:pos:R:3:forces:R:3 energy=-32.519466400146484 free_energy=-32.519466400146484 stress="0.0004865162482019514 3.9606600665820224e-08 3.2317182263597033e-09 3.9606600665820224e-08 0.00048639418673701584 -1.491851087109808e-08 3.2317182263597033e-09 -1.491851087109808e-08 0.0004864875227212906" pbc="T T T"
Pt       1.48889902       1.05281079       2.57884903      -0.00000064      -0.00000056      -0.00000090
Pt       4.46669726       3.15843186       7.73654713      -0.00000057      -0.00000127       0.00000038
Cu      -0.00000022      -0.00000013      -0.00000022       0.00000305       0.00000354       0.00000444
F        1.51981312       1.07467011       5.15769796      -0.00603387      -0.00426535       0.00000017
F        4.43578352       3.13657258       5.15769779       0.00603220       0.00426407      -0.00000137
F        3.70679099       1.07467018       3.89504564       0.00301628      -0.00426467      -0.00522591
F        2.24880566       3.13657266       6.42035018      -0.00301598       0.00426421       0.00522327
F        2.24880584       3.13657257       3.89504550      -0.00301637       0.00426339      -0.00522420
F        3.70679097       1.07467019       6.42035017       0.00301571      -0.00426321       0.00522400
