9
Lattice="4.894232205058443 1.89143722362794e-07 2.8256865514335834 1.6314107730289493 4.614327536888262 2.8256867944695743 2.814968793910894e-07 4.967054445215455e-07 5.651372615300163" Properties=species:S:1:pos:R:3:forces:R:3 energy=-27.495922088623047 free_energy=-27.495922088623047 stress="-0.00023173946829047054 2.6403622399584492e-08 -5.095261599308287e-07 2.6403622399584492e-08 -0.00023335379955824465 -2.9844812843293766e-07 -5.095261599308287e-07 -2.9844812843293766e-07 -0.00023145342129282653" pbc="T T T"
Pt       1.63141146       1.15359349       2.82568647       0.00001023       0.00013272      -0.00000822
Pt       4.89423160       3.46074471       8.47706672      -0.00000736      -0.00003062       0.00008883
Cd       0.00000017       0.00000040       0.00000063       0.00000913       0.00001044       0.00000964
F        1.73950489       1.23001843       5.65137170      -0.00079548      -0.00054634      -0.00000505
F        4.78614031       3.38430670       5.65137111       0.00080800       0.00050572      -0.00003366
F        4.02447961       1.23001851       4.33214137       0.00039881      -0.00053722      -0.00070125
F        2.50116176       3.38430772       6.97060399      -0.00042051       0.00051472       0.00069526
F        2.50116588       3.38430806       4.33214014      -0.00037986       0.00052232      -0.00071880
F        4.02447748       1.23001495       6.97060188       0.00037687      -0.00057146       0.00067323
