9
Lattice="6.8013248188761395 -4.901878118585301e-08 3.9267466524272834 2.2671081904447856 6.412350578211752 3.926746715298268 -8.88163098309872e-08 1.4198244434893998e-08 7.853493458689039" Properties=species:S:1:pos:R:3:forces:R:3 energy=-18.828105926513672 free_energy=-18.828105926513672 stress="6.904787005623803e-05 -9.522610255885411e-09 -8.426162878549803e-09 -9.522610255885411e-09 6.904826295794919e-05 6.3064535815726686e-09 -8.426162878549803e-09 6.3064535815726686e-09 6.905420013936237e-05" pbc="T T T"
Pt       2.26710807       1.60308778       3.92674671      -0.00000064       0.00000104      -0.00000015
Pt       6.80132511       4.80926346      11.78024001       0.00000202       0.00000160      -0.00000104
Ca      -0.00000020      -0.00000004      -0.00000034       0.00000038      -0.00000080       0.00000172
I        2.47522269       1.75024664       7.85349343      -0.00107733      -0.00076248       0.00000101
I        6.59321033       4.66210354       7.85349354       0.00107879       0.00076098       0.00000001
I        5.56371305       1.75024664       6.07035265       0.00053990      -0.00076313      -0.00093387
I        3.50471960       4.66210380       9.63663430      -0.00054087       0.00076212       0.00093448
I        3.50471958       4.66210375       6.07035252      -0.00053985       0.00076298      -0.00093406
I        5.56371341       1.75024660       9.63663446       0.00053761      -0.00076229       0.00093195
