9
Lattice="5.534139384641249 -9.80440166051979e-09 3.1951368692099162 1.8447131388382998 5.217636844392387 3.195136834797196 -4.6209919344601655e-08 -7.482217718710366e-08 6.390273818457723" Properties=species:S:1:pos:R:3:forces:R:3 energy=-22.589054107666016 free_energy=-22.589054107666016 stress="0.00019231869373470545 3.038582008230151e-08 1.492624157606315e-08 3.038582008230151e-08 0.00019231109763495624 2.9643613785879097e-08 1.492624157606315e-08 2.9643613785879097e-08 0.00019238697132095695" pbc="T T T"
Pt       1.84471225       1.30440899       3.19513682      -0.00000432       0.00000173       0.00000057
Pt       5.53413970       3.91322802       9.58541114       0.00000183       0.00000485       0.00000093
C        0.00000167      -0.00000432      -0.00000455       0.00002309      -0.00005956      -0.00006388
Cl       1.76457823       1.24774514       6.39027424       0.00086988       0.00061597       0.00000374
Cl       5.61427490       3.96989242       6.39027373      -0.00086550      -0.00060686       0.00000339
Cl       4.65184976       1.24774636       4.72330789      -0.00044629       0.00063295       0.00077388
Cl       2.72700095       3.96989332       8.05724295       0.00042150      -0.00059322      -0.00072778
Cl       2.72700189       3.96989187       4.72330623       0.00043300      -0.00060964       0.00075504
Cl       4.65185058       1.24774514       8.05724154      -0.00043346       0.00061402      -0.00074558
