9
Lattice="5.968395588337588 2.5639334744040947e-08 3.445854945347676 1.9894652263200852 5.627057339062079 3.4458549348955043 3.259182082834159e-08 1.0244664014181258e-08 6.891709834244664" Properties=species:S:1:pos:R:3:forces:R:3 energy=-22.642345428466797 free_energy=-22.642345428466797 stress="-0.0003739501116797328 1.1191865212367702e-08 1.6812023773127294e-08 1.1191865212367702e-08 -0.00037391952355392277 1.332403343212718e-08 1.6812023773127294e-08 1.332403343212718e-08 -0.00037389787030406296" pbc="T T T"
Pt       1.98946537       1.40676453       3.44585506      -0.00000271       0.00000006       0.00000053
Pt       5.96839546       4.22029291      10.33756500       0.00000166       0.00000109       0.00000006
Co      -0.00000003      -0.00000008      -0.00000000      -0.00000089       0.00000026      -0.00000061
Br       1.96284340       1.38793989       6.89170997      -0.00147846      -0.00104645       0.00000139
Br       5.99501752       4.23911754       6.89170988       0.00147942       0.00104508      -0.00000024
Br       4.98697396       1.38793983       5.14572719       0.00074016      -0.00104578      -0.00128551
Br       2.97088695       4.23911745       8.63769232      -0.00074015       0.00104591       0.00128204
Br       2.97088684       4.23911756       5.14572714      -0.00073795       0.00104570      -0.00128104
Br       4.98697392       1.38793987       8.63769232       0.00073881      -0.00104578       0.00128332
