9
Lattice="4.574588241188731 4.4791680501890955e-08 2.64113979741271 1.5248627934784529 4.3129631568534705 2.6411397901631313 4.475588272716112e-08 2.2768322006379014e-08 5.282279517305948" Properties=species:S:1:pos:R:3:forces:R:3 energy=-39.779502868652344 free_energy=-39.779502868652344 stress="0.00013679047697223723 2.6514380024877937e-08 -2.637270846150841e-08 2.6514380024877937e-08 0.00013684139412362128 -1.5420011933997557e-08 -2.637270846150841e-08 -1.5420011933997557e-08 0.00013672889326699078" pbc="T T T"
Pt       1.52486268       1.07824084       2.64113980      -0.00000024       0.00000034      -0.00000141
Pt       4.57458847       3.23472270       7.92341944       0.00000001       0.00000211       0.00000162
Cr       0.00000014       0.00000003       0.00000005      -0.00000421       0.00000058       0.00000570
F        1.53699806       1.08682186       5.28227958       0.00086138       0.00060828      -0.00000024
F        4.56245280       3.22614131       5.28227944      -0.00085834      -0.00060749      -0.00000040
F        3.80608926       1.08682171       3.97221918      -0.00043023       0.00060691       0.00074443
F        2.29336183       3.22614129       6.59233989       0.00043103      -0.00061002      -0.00074688
F        2.29336184       3.22614139       3.97221922       0.00043157      -0.00060904       0.00074476
F        3.80608923       1.08682176       6.59233986      -0.00043115       0.00060831      -0.00074768
