9
Lattice="5.5079742188859155 1.8621110782342713e-07 3.1800305490245906 1.8359915632487114 5.19296786737844 3.180030581254804 3.082976611359898e-08 6.12736990359436e-08 6.360061044650438" Properties=species:S:1:pos:R:3:forces:R:3 energy=-25.423858642578125 free_energy=-25.423858642578125 stress="-5.248964043857995e-06 2.611086347137359e-10 1.1829921042760816e-08 2.611086347137359e-10 -5.149414391780738e-06 1.7323179335448913e-08 1.1829921042760816e-08 1.7323179335448913e-08 -5.242198312771507e-06" pbc="T T T"
Pt       1.83599149       1.29824183       3.18003080      -0.00000205       0.00000082       0.00000189
Pt       5.50797348       3.89472632       9.54009202      -0.00000238      -0.00000053       0.00000553
Co      -0.00000006       0.00000033       0.00000003       0.00000123      -0.00000472      -0.00000049
Cl       1.81575041       1.28392938       6.36006093      -0.00131628      -0.00093392      -0.00000156
Cl       5.52821557       3.90903858       6.36006029       0.00131962       0.00093415      -0.00000359
Cl       4.60009950       1.28392944       4.75251631       0.00066006      -0.00093243      -0.00113994
Cl       2.74386657       3.90903834       7.96760557      -0.00065938       0.00093298       0.00114363
Cl       2.74386683       3.90903863       4.75251697      -0.00065865       0.00093409      -0.00114526
Cl       4.60009950       1.28392960       7.96760587       0.00065793      -0.00093052       0.00113922
