9
Lattice="5.964188959493803 9.270145824447066e-08 3.4434259866265973 1.9880630006314175 5.623091325283745 3.4434261135275603 -2.5467707754135007e-07 -2.4662569055461807e-08 6.886852414366843" Properties=species:S:1:pos:R:3:forces:R:3 energy=-27.6228084564209 free_energy=-27.6228084564209 stress="0.00011507686576806009 2.9408983692746915e-08 1.8254111111559723e-08 2.9408983692746915e-08 0.00011510946933412924 8.353413072370586e-09 1.8254111111559723e-08 8.353413072370586e-09 0.00011504573922138661" pbc="T T T"
Pt       1.98806397       1.40577310       3.44342577       0.00000536       0.00000612       0.00000156
Pt       5.96418915       4.21731787      10.33027876       0.00000013      -0.00000147       0.00000114
Cr      -0.00000071      -0.00000052      -0.00000216       0.00000872       0.00001207       0.00004089
Br       1.96146510       1.38696565       6.88685184      -0.00724838      -0.00512368       0.00000359
Br       5.99078713       4.23612617       6.88685229       0.00723404       0.00511601      -0.00000005
Br       4.98345561       1.38696576       5.14210517       0.00362714      -0.00513271      -0.00628679
Br       2.96879509       4.23612676       8.63160068      -0.00361408       0.00510585       0.00625754
Br       2.96879496       4.23612588       5.14210505      -0.00362434       0.00512843      -0.00627892
Br       4.98345653       1.38696495       8.63160069       0.00361143      -0.00511068       0.00626105
