9
Lattice="6.289204477088251 -4.730545712719562e-08 3.6310739804094396 2.0964014902421413 5.929518868189449 3.6310739068329223 6.497176789149893e-09 -8.551824664562669e-08 7.262147949565403" Properties=species:S:1:pos:R:3:forces:R:3 energy=-20.3236141204834 free_energy=-20.3236141204834 stress="0.00010111284791491926 6.731814661264934e-09 -8.29475510499833e-09 6.731814661264934e-09 0.00010116629709955305 -2.720957681390246e-09 -8.29475510499833e-09 -2.720957681390246e-09 0.00010111137089552358" pbc="T T T"
Pt       2.09640183       1.48237895       3.63107398       0.00000160      -0.00000279      -0.00000028
Pt       6.28920439       4.44713966      10.89322258       0.00000025       0.00000364       0.00000371
Ca      -0.00000013      -0.00000005      -0.00000010       0.00000092       0.00000079      -0.00000065
Br       2.23793397       1.58245806       7.26214782       0.00052248       0.00036779      -0.00000026
Br       6.14767211       4.34706084       7.26214763      -0.00052360      -0.00036921      -0.00000143
Br       5.17023765       1.58245812       5.56918140      -0.00026239       0.00036893       0.00045238
Br       3.21536833       4.34706066       8.95511420       0.00026127      -0.00036949      -0.00045327
Br       3.21536841       4.34706103       5.56918147       0.00026200      -0.00036857       0.00045329
Br       5.17023731       1.58245768       8.95511436      -0.00026255       0.00036892      -0.00045348
