9
Lattice="6.38614700535725 2.624381794245786e-08 3.6870436282082513 2.1287156882028824 6.020917227471436 3.687043636855406 -6.040067932197013e-08 -3.211920681864013e-08 7.374087361033532" Properties=species:S:1:pos:R:3:forces:R:3 energy=-25.00848960876465 free_energy=-25.00848960876465 stress="-4.198166789137758e-05 4.7750301490623315e-09 -9.311244220100434e-09 4.7750301490623315e-09 -4.201575939077884e-05 1.4707027262694794e-10 -9.311244220100434e-09 1.4707027262694794e-10 -4.200473995297216e-05" pbc="T T T"
Pt       2.12871600       1.50522906       3.68704324       0.00000193      -0.00000038      -0.00000132
Pt       6.38614755       4.51568830      11.06113114       0.00000226       0.00000106       0.00000134
Cr      -0.00000041      -0.00000041      -0.00000013       0.00000149       0.00000202       0.00000069
I        2.13602290       1.51039661       7.37408728      -0.00303395      -0.00214449       0.00000056
I        6.37883967       4.51052094       7.37408714       0.00303071       0.00214394      -0.00000087
I        5.31813548       1.51039627       5.53689385       0.00151512      -0.00214392      -0.00262594
I        3.19672695       4.51052093       9.21128102      -0.00151636       0.00214301       0.00262492
I        3.19672683       4.51052098       5.53689395      -0.00151541       0.00214313      -0.00262424
I        5.31813546       1.51039621       9.21128092       0.00151424      -0.00214443       0.00262497
