9
Lattice="6.12314696490284 -1.2611105191671087e-07 3.535200616791921 2.0410488881496898 5.772958172178483 3.5352005843205165 -2.7397416444971448e-08 -5.914213315733335e-08 7.070401281037563" Properties=species:S:1:pos:R:3:forces:R:3 energy=-16.470726013183594 free_energy=-16.470726013183594 stress="5.260378020466305e-05 -4.622009441845876e-09 2.1659207760649224e-09 -4.622009441845876e-09 5.259843237581663e-05 1.830140372582889e-09 2.1659207760649224e-09 1.830140372582889e-09 5.262902413960546e-05" pbc="T T T"
Pt       2.04104949       1.44324019       3.53520079       0.00000321       0.00000495       0.00000113
Pt       6.12314781       4.32971928      10.60560130       0.00000554       0.00000190      -0.00000273
Cd      -0.00000006      -0.00000009       0.00000026      -0.00000050      -0.00000069      -0.00000107
Br       2.14610843       1.51752796       7.07040089      -0.00012873      -0.00009081      -0.00000104
Br       6.01808747       4.25543003       7.07040119       0.00012620       0.00008927       0.00000180
Br       5.05009246       1.51752775       5.39378527       0.00006402      -0.00009197      -0.00010911
Br       3.11410273       4.25542957       8.74701751      -0.00006495       0.00008890       0.00011118
Br       3.11410262       4.25542979       5.39378525      -0.00006726       0.00008954      -0.00011057
Br       5.05009236       1.51752746       8.74701744       0.00006247      -0.00009108       0.00011049
