9
Lattice="5.001954193047939 2.9174911414880565e-08 2.8878795743177936 1.6673180901005369 4.715887745413339 2.8878795773578334 -1.803416621386465e-08 -9.02882679204166e-09 5.775759179871672" Properties=species:S:1:pos:R:3:forces:R:3 energy=-39.425628662109375 free_energy=-39.425628662109375 stress="9.415998647455126e-05 4.709097556343522e-09 2.847081148615871e-08 4.709097556343522e-09 9.416887041879818e-05 -7.552791281284499e-09 2.847081148615871e-08 -7.552791281284499e-09 9.416617103852332e-05" pbc="T T T"
Pt       1.66731791       1.17897200       2.88787994      -0.00000169      -0.00000080      -0.00000049
Pt       5.00195362       3.53691569       8.66363785      -0.00000480       0.00000072      -0.00000453
Co       0.00000010      -0.00000013      -0.00000015      -0.00000128       0.00000489      -0.00000189
S        1.74325225       1.23266528       5.77575910       0.00336412       0.00237714       0.00000025
S        4.92602020       3.48322249       5.77575949      -0.00336212      -0.00237815       0.00000228
S        4.13032814       1.23266559       4.39758017      -0.00168012       0.00237793       0.00291218
S        2.53894427       3.48322254       7.15393826       0.00168186      -0.00237864      -0.00291206
S        2.53894420       3.48322221       4.39758028       0.00168267      -0.00237906       0.00291267
S        4.13032836       1.23266538       7.15393832      -0.00167878       0.00237586      -0.00290848
