9
Lattice="6.2566930195663675 1.661968057869756e-07 3.6123036055028477 2.0855643980442613 5.89886639738723 3.6123037761151733 -1.0616646598414501e-07 1.338855617113814e-07 7.224607394891328" Properties=species:S:1:pos:R:3:forces:R:3 energy=-18.931739807128906 free_energy=-18.931739807128906 stress="-0.0001061392977135256 -2.6601647107327153e-08 1.371697866403565e-08 -2.6601647107327153e-08 -0.00010612540791044012 -5.126505442376583e-09 1.371697866403565e-08 -5.126505442376583e-09 -0.00010618747910484672" pbc="T T T"
Pt       2.08556543       1.47471809       3.61230297       0.00000569       0.00000659      -0.00000468
Pt       6.25669336       4.42414959      10.83690798       0.00000383      -0.00000174      -0.00001214
C        0.00000220       0.00000034       0.00000090       0.00001321       0.00000069       0.00000474
I        2.11158332       1.49311506       7.22460784      -0.00201869      -0.00142711       0.00000227
I        6.23067148       4.40575010       7.22460825       0.00200558       0.00142038       0.00000460
I        5.20090090       1.49311569       5.44098987       0.00100505      -0.00142390      -0.00174171
I        3.14135654       4.40575030       9.00822660      -0.00100806       0.00142077       0.00174767
I        3.14135525       4.40575100       5.44098916      -0.00101215       0.00142455      -0.00174522
I        5.20090082       1.49311667       9.00822571       0.00100553      -0.00142008       0.00174451
