9
Lattice="5.962167875659976 2.390246690874815e-07 3.442259382520824 1.9873896941784897 5.621185445529578 3.4422590760565726 2.458500263094867e-07 -2.0149828001081108e-07 6.884518339216887" Properties=species:S:1:pos:R:3:forces:R:3 energy=-19.421173095703125 free_energy=-19.421173095703125 stress="1.708610034256708e-05 -1.3481533223114184e-08 2.2010679501249797e-08 -1.3481533223114184e-08 1.723951572785154e-05 -6.900322091496491e-08 2.2010679501249797e-08 -6.900322091496491e-08 1.7210259102284908e-05" pbc="T T T"
Pt       1.98738722       1.40529359       3.44225872      -0.00001097      -0.00000834      -0.00000347
Pt       5.96216848       4.21589073      10.32677486      -0.00000548       0.00000298      -0.00001585
Cu       0.00000013       0.00000025       0.00000024       0.00000199      -0.00000071       0.00000208
Br       1.98013122       1.40016320       6.88451885      -0.00265166      -0.00187834       0.00000234
Br       5.96942754       4.22102268       6.88451931       0.00265437       0.00187729       0.00000633
Br       4.97210380       1.40016250       5.15710217       0.00133173      -0.00188300      -0.00229320
Br       2.97745482       4.22102309       8.61193586      -0.00132403       0.00188644       0.00229675
Br       2.97745429       4.22102289       5.15710167      -0.00132725       0.00188281      -0.00229445
Br       4.97210375       1.40016294       8.61193544       0.00133136      -0.00187917       0.00229934
