9
Lattice="4.99178285898424 1.8475730060428713e-08 2.8820071272875873 1.6639276420369695 4.7062979922048624 2.8820071187027456 1.1837828871870769e-08 -2.143640851623042e-09 5.764014234071439" Properties=species:S:1:pos:R:3:forces:R:3 energy=-42.03239059448242 free_energy=-42.03239059448242 stress="-0.00015440915012732148 1.0066804279063035e-08 3.8543865876761174e-09 1.0066804279063035e-08 -0.00015440795687027276 -2.645179009164167e-08 3.8543865876761174e-09 -2.645179009164167e-08 -0.00015443201118614525" pbc="T T T"
Pt       1.66392781       1.17657447       2.88200686      -0.00000054       0.00000067      -0.00000181
Pt       4.99178241       3.52972356       8.64602088      -0.00000333       0.00000080      -0.00000345
Cr       0.00000013      -0.00000001      -0.00000019       0.00000023       0.00000091       0.00000390
S        1.78013131       1.25874291       5.76401427       0.00161836       0.00114504       0.00000249
S        4.87557918       3.44755508       5.76401420      -0.00161967      -0.00114530       0.00000093
S        4.10171714       1.25874286       4.42364621      -0.00080845       0.00114289       0.00140154
S        2.55399342       3.44755516       7.10438289       0.00081269      -0.00114870      -0.00140432
S        2.55399337       3.44755512       4.42364613       0.00081038      -0.00114322       0.00140363
S        4.10171729       1.25874292       7.10438267      -0.00080933       0.00114679      -0.00140321
