9
Lattice="4.527492740806901 -6.400637340337575e-07 2.6139484363003165 1.5091639687283076 4.2685592348456645 2.6139478729500354 4.375751865807413e-08 -6.590191756949582e-07 5.227896796810467" Properties=species:S:1:pos:R:3:forces:R:3 energy=-33.8045654296875 free_energy=-33.8045654296875 stress="-0.00018173453281633556 -1.7069768887267855e-07 -2.1055221566257387e-07 -1.7069768887267855e-07 -0.00018180384358856827 -1.0526002114374933e-07 -2.1055221566257387e-07 -1.0526002114374933e-07 -0.0001814554416341707" pbc="T T T"
Pt       1.50916742       1.06713569       2.61395108       0.00001423      -0.00002985       0.00000694
Pt       4.52749609       3.20140276       7.84185110       0.00001573      -0.00005334       0.00001620
C        0.00000238      -0.00000231      -0.00000403       0.00001980      -0.00001905      -0.00000197
F        1.30550134       0.92313093       5.22789433       0.00049525       0.00037280      -0.00000076
F        4.73115254       3.34543126       5.22789459      -0.00049776      -0.00034532      -0.00001473
F        3.87473879       0.92313442       3.74454945      -0.00024891       0.00037694       0.00042850
F        2.16191350       3.34543318       6.71124450       0.00021613      -0.00031921      -0.00040215
F        2.16191597       3.34543104       3.74454639       0.00023851      -0.00033700       0.00039929
F        3.87473991       0.92313358       6.71124562      -0.00025269       0.00035471      -0.00043106
