9
Lattice="5.332495021731725 2.655178028299347e-07 3.0787179324365965 1.7774985667466605 5.027524896576464 3.0787179742884314 1.1254816674655772e-07 1.308413955249553e-07 6.1574356699340305" Properties=species:S:1:pos:R:3:forces:R:3 energy=-36.9472770690918 free_energy=-36.9472770690918 stress="2.9990154871484265e-05 -7.819603098369043e-08 -1.0972638619932695e-07 -7.819603098369043e-08 2.99733983410988e-05 -8.237205406658177e-08 -1.0972638619932695e-07 -8.237205406658177e-08 2.9767687010462396e-05" pbc="T T T"
Pt       1.77750378       1.25688285       3.07871428       0.00003836       0.00001196      -0.00003058
Pt       5.33249384       3.77064312       9.23614319      -0.00000913      -0.00000502      -0.00008017
Co      -0.00000010      -0.00000015       0.00000094      -0.00000197       0.00000075       0.00000266
Se       1.95560090       1.38281762       6.15743731      -0.00168717      -0.00119647       0.00001513
Se       5.15439307       3.64470675       6.15744219       0.00168601       0.00119296       0.00004100
Se       4.35469245       1.38281871       4.77231693       0.00082941      -0.00119440      -0.00145876
Se       2.75530067       3.64470656       7.54255648      -0.00083214       0.00118773       0.00147870
Se       2.75529730       3.64470555       4.77231811      -0.00085381       0.00118572      -0.00145182
Se       4.35469285       1.38282015       7.54255688       0.00083047      -0.00118330       0.00148377
