9
Lattice="4.9200729247039385 6.612341372377837e-09 2.8406053653658563 1.6400243179280019 4.638689180517049 2.840605359374385 1.9889760768060043e-08 6.726152741252078e-09 5.681210696281664" Properties=species:S:1:pos:R:3:forces:R:3 energy=-37.11934280395508 free_energy=-37.11934280395508 stress="7.424584327964112e-05 -3.5370795181677295e-09 1.14756095251356e-11 -3.5370795181677295e-09 7.419866597047076e-05 1.0724784615945282e-08 1.14756095251356e-11 1.0724784615945282e-08 7.42327029001899e-05" pbc="T T T"
Pt       1.64002416       1.15967194       2.84060605      -0.00000011      -0.00000185       0.00000098
Pt       4.92007282       3.47901704       8.52181565      -0.00000028       0.00000179      -0.00000361
C       -0.00000038      -0.00000017      -0.00000117      -0.00001309      -0.00000316      -0.00002205
S        1.63435385       1.15566292       5.68121088      -0.00097245      -0.00068851       0.00000263
S        4.92574365       3.48302677       5.68121091       0.00098106       0.00069264       0.00000194
S        4.10289579       1.15566275       4.25599740       0.00048709      -0.00068638      -0.00084208
S        2.45720169       3.48302702       7.10642433      -0.00048731       0.00069657       0.00085065
S        2.45720111       3.48302618       4.25599751      -0.00048678       0.00068529      -0.00083940
S        4.10289637       1.15566228       7.10642413       0.00049177      -0.00069635       0.00085102
