9
Lattice="6.604071698946361 -8.634895057545782e-08 3.8128627196280216 2.2013571772234624 6.226378546754608 3.8128626751976737 -2.1849204874611044e-08 -6.986565709896213e-08 7.625725477100002" Properties=species:S:1:pos:R:3:forces:R:3 energy=-15.246347427368164 free_energy=-15.246347427368164 stress="3.685348201543093e-05 -5.131123970159024e-09 4.1936770722728056e-10 -5.131123970159024e-09 3.685967021738179e-05 2.0364967490138497e-09 4.1936770722728056e-10 2.0364967490138497e-09 3.688372817123309e-05" pbc="T T T"
Pt       2.20135713       1.55659459       3.81286298      -0.00000017      -0.00000006       0.00000026
Pt       6.60407138       4.66978380      11.43858849      -0.00000037       0.00000008       0.00000010
Cd      -0.00000013       0.00000015       0.00000018       0.00000396      -0.00000122      -0.00000333
I        2.36665038       1.67347456       7.62572534       0.00521678       0.00368904      -0.00000014
I        6.43877881       4.55290413       7.62572530      -0.00521940      -0.00369062       0.00000000
I        5.42074671       1.67347395       5.86244177      -0.00260989       0.00369149       0.00452062
I        3.38468247       4.55290387       9.38900853       0.00260800      -0.00368790      -0.00451769
I        3.38468222       4.55290414       5.86244218       0.00260939      -0.00368996       0.00451943
I        5.42074645       1.67347437       9.38900871      -0.00260831       0.00368910      -0.00451922
