9
Lattice="6.270546975975516 -5.6495775893712956e-08 3.6203019892679897 2.0901822736099303 5.911928167967834 3.620301986584275 -1.1848469132879334e-08 -1.1664992086847601e-08 7.240603999058135" Properties=species:S:1:pos:R:3:forces:R:3 energy=-21.247365951538086 free_energy=-21.247365951538086 stress="0.00024450707132928073 -3.562836914383638e-09 -3.379404311942835e-09 -3.562836914383638e-09 0.00024450841010548174 -4.135690900852751e-09 -3.379404311942835e-09 -4.135690900852751e-09 0.00024449927150271833" pbc="T T T"
Pt       2.09018208       1.47798164       3.62030163      -0.00000135      -0.00000112      -0.00000167
Pt       6.27054735       4.43394737      10.86090495       0.00000172       0.00000621      -0.00000550
Co      -0.00000010       0.00000012      -0.00000008      -0.00000030       0.00000042       0.00000094
I        2.09050421       1.47820903       7.24060407       0.00214116       0.00151262       0.00000028
I        6.27022540       4.43371814       7.24060447      -0.00214091      -0.00151345       0.00000247
I        5.22529487       1.47820921       5.43073160      -0.00107120       0.00151221       0.00185430
I        3.13543424       4.43371879       9.05047671       0.00107095      -0.00151439      -0.00185383
I        3.13543392       4.43371906       5.43073196       0.00107001      -0.00151386       0.00185658
I        5.22529494       1.47820910       9.05047653      -0.00106995       0.00151138      -0.00185364
