9
Lattice="5.662740098523886 3.056622918288474e-08 3.269384655357066 1.8875800709541821 5.3388825500252475 3.2693846392581016 1.0330010634754281e-07 5.332703021852887e-08 6.538769131793092" Properties=species:S:1:pos:R:3:forces:R:3 energy=-18.858264923095703 free_energy=-18.858264923095703 stress="-3.9635702705709264e-05 3.371106416238945e-08 4.55468658344671e-08 3.371106416238945e-08 -3.9610171370441094e-05 -3.499869061229788e-09 4.55468658344671e-08 -3.499869061229788e-09 -3.965597352362238e-05" pbc="T T T"
Pt       1.88757934       1.33472067       3.26938463      -0.00000281       0.00000020      -0.00000166
Pt       5.66273995       4.00416091       9.80815232      -0.00000194      -0.00000924      -0.00001130
Cd      -0.00000008       0.00000035       0.00000028       0.00000253      -0.00000292      -0.00000559
Cl       2.00763563       1.41961352       6.53876924      -0.00550900      -0.00389199      -0.00000026
Cl       5.54268499       3.91926932       6.53876974       0.00550787       0.00389202       0.00000468
Cl       4.65892248       1.41961248       5.00804787       0.00275086      -0.00388985      -0.00476344
Cl       2.89139871       3.91926996       8.06949023      -0.00275016       0.00389705       0.00477238
Cl       2.89139777       3.91927013       5.00804811      -0.00275197       0.00389237      -0.00476600
Cl       4.65892229       1.41961323       8.06949128       0.00275460      -0.00388757       0.00477124
