9
Lattice="5.305459063050114 -3.804873127525733e-08 3.063108271961689 1.768486316130212 5.0020346553218396 3.0631082760270583 -4.126776515025539e-08 -2.420166511190653e-08 6.126216615401241" Properties=species:S:1:pos:R:3:forces:R:3 energy=-39.4753303527832 free_energy=-39.4753303527832 stress="-1.2820562915294431e-05 -3.0401253070522216e-08 -1.4211455123813721e-08 -3.0401253070522216e-08 -1.2820113624911755e-05 -3.5891281613409376e-10 -1.4211455123813721e-08 -3.5891281613409376e-10 -1.2841083844250534e-05" pbc="T T T"
Pt       1.76848558       1.25050828       3.06311010      -0.00000685      -0.00000277       0.00001384
Pt       5.30545714       3.75152509       9.18932668      -0.00001443      -0.00000522       0.00001292
Cr       0.00000023       0.00000011      -0.00000030       0.00000182       0.00000060       0.00000149
Se       1.95873603       1.38503535       6.12621583      -0.00085852      -0.00060901      -0.00000458
Se       5.11520956       3.61699934       6.12621552       0.00086394       0.00060973      -0.00000562
Se       4.32609104       1.38503579       4.75942290       0.00043148      -0.00060846      -0.00075173
Se       2.74785460       3.61699947       7.49300980      -0.00042684       0.00061002       0.00074390
Se       2.74785539       3.61699938       4.75942269      -0.00042534       0.00061141      -0.00075230
Se       4.32609178       1.38503552       7.49300945       0.00043495      -0.00060628       0.00074208
