9
Lattice="4.453931021116465 1.438878536297813e-09 2.571478263606984 1.484643669122784 4.199206434895345 2.571478273894138 -2.298377924462427e-08 -3.6528474734140668e-09 5.1429565670230435" Properties=species:S:1:pos:R:3:forces:R:3 energy=-36.481239318847656 free_energy=-36.481239318847656 stress="0.0003756872611120343 -1.2564951745730468e-08 2.6708484313076042e-08 -1.2564951745730468e-08 0.0003757405502256006 1.2107382874049222e-09 2.6708484313076042e-08 1.2107382874049222e-09 0.0003757547528948635" pbc="T T T"
Pt       1.48464360       1.04980159       2.57147833      -0.00000155      -0.00000085      -0.00000020
Pt       4.45393101       3.14940477       7.71443482       0.00000003      -0.00000016      -0.00000006
Co       0.00000001       0.00000001      -0.00000016      -0.00000091      -0.00000222       0.00000061
F        1.48085539       1.04712299       5.14295654      -0.00369391      -0.00261217      -0.00000015
F        4.45771911       3.15208338       5.14295655       0.00369549       0.00261283       0.00000064
F        3.71350330       1.04712302       3.85393672       0.00184774      -0.00261211      -0.00319967
F        2.22507145       3.15208355       6.43197631      -0.00184703       0.00261328       0.00320061
F        2.22507148       3.15208351       3.85393684      -0.00184892       0.00261492      -0.00320333
F        3.71350333       1.04712291       6.43197646       0.00184908      -0.00261356       0.00320159
