9
Lattice="6.334034176039392 -8.333519613869421e-08 3.6569562669069415 2.11134467234148 5.971784837118089 3.6569562226284953 5.541360733230942e-08 -1.504650741068073e-08 7.313912437834589" Properties=species:S:1:pos:R:3:forces:R:3 energy=-23.64287757873535 free_energy=-23.64287757873535 stress="-2.8017930162604898e-05 -2.6894452886949693e-08 -2.083283129339364e-10 -2.6894452886949693e-08 -2.7994195988867432e-05 -6.857666434711973e-09 -2.083283129339364e-10 -6.857666434711973e-09 -2.799969479383435e-05" pbc="T T T"
Pt       2.11134411       1.49294613       3.65695644      -0.00000230       0.00000087       0.00000077
Pt       6.33403446       4.47883884      10.97086906       0.00000074       0.00000054       0.00000107
Fe       0.00000033       0.00000026      -0.00000008      -0.00000346      -0.00000948       0.00000008
I        1.95854265       1.38489894       7.31391239      -0.00165005      -0.00116682       0.00000004
I        6.48683591       4.58688565       7.31391250       0.00165538       0.00117242       0.00000031
I        5.35476300       1.38489900       5.35310390       0.00082816      -0.00117154      -0.00143223
I        3.09061600       4.58688570       9.27472089      -0.00082717       0.00117129       0.00143180
I        3.09061621       4.58688547       5.35310387      -0.00082819       0.00117232      -0.00143297
I        5.35476289       1.38489896       9.27472085       0.00082684      -0.00116948       0.00143123
