9
Lattice="3.7634452352099723 6.889236324481575e-08 2.1728260834300217 1.254481817378481 3.5482101743832297 2.1728260706887847 1.05692845045496e-08 -8.131150858944116e-09 4.345652148553508" Properties=species:S:1:pos:R:3:forces:R:3 energy=-43.14277648925781 free_energy=-43.14277648925781 stress="0.00013646454317495227 -9.328181818091252e-07 -1.4263974890127429e-06 -9.328181818091252e-07 0.00014001161616761237 -1.0003514034906402e-06 -1.4263974890127429e-06 -1.0003514034906402e-06 0.00013737328117713332" pbc="T T T"
Pt       1.25448171       0.88705204       2.17282469       0.00008663       0.00020199       0.00053365
Pt       3.76344506       2.66115727       6.51847695       0.00005704       0.00012682       0.00047875
Fe       0.00000084       0.00000176       0.00000555      -0.00033510      -0.00073583      -0.00227471
O        1.27905752       0.90443069       4.34565405       0.00280619       0.00185840      -0.00075797
O        3.73886655       2.64377829       4.34565377      -0.00162682      -0.00133990      -0.00066254
O        3.12391854       0.90442853       3.28052155      -0.00218196       0.00268152       0.00281994
O        1.89401385       2.64377628       5.41077821       0.00006498      -0.00045213      -0.00096667
O        1.89401017       2.64378194       3.28052271       0.00163765      -0.00277168       0.00230469
O        3.12391406       0.90443419       5.41077954      -0.00050864       0.00043014      -0.00147736
