9
Lattice="5.641896930790688 1.0874325761093889e-07 3.2573509325006573 1.8806324136861527 5.319231428862033 3.2573509309444733 1.4260170287621583e-07 9.892871256487543e-08 6.514701618007925" Properties=species:S:1:pos:R:3:forces:R:3 energy=-27.36125946044922 free_energy=-27.36125946044922 stress="0.00013995671179145575 4.274620835076348e-08 -3.629057232501509e-08 4.274620835076348e-08 0.0001400398905389011 -4.149891541516126e-09 -3.629057232501509e-08 -4.149891541516126e-09 0.00014011490566190332" pbc="T T T"
Pt       1.88063168       1.32980718       3.25735094      -0.00000304      -0.00000551      -0.00000007
Pt       5.64189726       3.98942356       9.77205161       0.00000171      -0.00000103      -0.00000046
Fe       0.00000013      -0.00000011      -0.00000023      -0.00000130       0.00000236       0.00000298
Cl       1.81416107       1.28280561       6.51470150      -0.00223404      -0.00157845       0.00000064
Cl       5.70836846       4.03642633       6.51470144       0.00223547       0.00157884       0.00000233
Cl       4.73481656       1.28280549       4.82846112       0.00111753      -0.00158036      -0.00193870
Cl       2.78771280       4.03642674       8.20094333      -0.00111572       0.00157946       0.00193363
Cl       2.78771289       4.03642634       4.82846080      -0.00111699       0.00158051      -0.00193560
Cl       4.73481722       1.28280542       8.20094334       0.00111634      -0.00157550       0.00193527
