9
Lattice="4.963070832023317 -2.5150618834267795e-08 2.8654302984118245 1.6543569185415612 4.67922793406004 2.865430301449805 -3.8030818377537765e-08 -2.3171098065582533e-08 5.730860662694972" Properties=species:S:1:pos:R:3:forces:R:3 energy=-40.873233795166016 free_energy=-40.873233795166016 stress="0.0003150039410684258 -1.1790208809259184e-08 -9.316623916788558e-09 -1.1790208809259184e-08 0.00031504101934842765 -5.606057396079223e-09 -9.316623916788558e-09 -5.606057396079223e-09 0.00031499916804023087" pbc="T T T"
Pt       1.65435703       1.16980741       2.86542962       0.00000046       0.00000325      -0.00000547
Pt       4.96307088       3.50942107       8.59629052       0.00000071       0.00000222      -0.00000281
Fe       0.00000003       0.00000003       0.00000017       0.00000000      -0.00000038       0.00000221
S        1.74086809       1.23097975       5.73086061       0.00338507       0.00239244       0.00000004
S        4.87655959       3.44824799       5.73086058      -0.00338697      -0.00239535       0.00000097
S        4.09263671       1.23097954       4.37306685      -0.00169300       0.00239213       0.00293204
S        2.52479109       3.44824791       7.08865497       0.00169370      -0.00239408      -0.00293037
S        2.52479106       3.44824805       4.37306675       0.00169376      -0.00239311       0.00293386
S        4.09263636       1.23097978       7.08865491      -0.00169376       0.00239283      -0.00293049
