9
Lattice="5.460234536420374 3.044774445073911e-08 3.1524678969990005 1.8200781900646856 5.1479586820794 3.15246792722068 -2.4555913408230133e-08 1.9650201784631155e-08 6.304935836530091" Properties=species:S:1:pos:R:3:forces:R:3 energy=-34.024322509765625 free_energy=-34.024322509765625 stress="-0.0002890290634240955 -5.6182987151487396e-09 6.4333121052584374e-09 -5.6182987151487396e-09 -0.0002890503383241594 1.5138546416437748e-08 6.4333121052584374e-09 1.5138546416437748e-08 -0.0002889549941755831" pbc="T T T"
Pt       1.82007786       1.28699014       3.15246802      -0.00000259       0.00000354       0.00000029
Pt       5.46023422       3.86096844       9.45740244      -0.00000081      -0.00000271      -0.00000647
Ge       0.00000004       0.00000031       0.00000042       0.00000029      -0.00000275      -0.00000452
Se       2.09542930       1.48169261       6.30493597      -0.00566126      -0.00400363       0.00000166
Se       5.18488338       3.66626607       6.30493687       0.00566103       0.00400150       0.00000390
Se       4.41251991       1.48169248       4.96716293       0.00283086      -0.00400218      -0.00490177
Se       2.86779305       3.66626609       7.64270846      -0.00283070       0.00400504       0.00490570
Se       2.86779286       3.66626606       4.96716296      -0.00282928       0.00400293      -0.00490393
Se       4.41252018       1.48169270       7.64270857       0.00283249      -0.00400183       0.00490510
