9
Lattice="5.993805772055556 -3.301821646504451e-08 3.4605250680179367 1.9979352642166732 5.651013136545786 3.4605250022092333 2.1013221890849444e-07 6.79869914253811e-08 6.921049772076167" Properties=species:S:1:pos:R:3:forces:R:3 energy=-21.580257415771484 free_energy=-21.580257415771484 stress="0.0002466918667778373 2.009883992570849e-08 1.0743245404398749e-08 2.009883992570849e-08 0.0002464716089889407 1.1195786520090678e-09 1.0743245404398749e-08 1.1195786520090678e-09 0.00024656637106090784" pbc="T T T"
Pt       1.99793656       1.41275358       3.46052565       0.00000842      -0.00000119       0.00000180
Pt       5.99380882       4.23825885      10.38157499       0.00000875       0.00000070       0.00000079
Ge      -0.00000014       0.00000015      -0.00000022      -0.00000567       0.00000142       0.00000025
Br       1.97528651       1.39673873       6.92105025      -0.00795992      -0.00562136      -0.00000198
Br       6.01645383       4.25427512       6.92104969       0.00795567       0.00562433       0.00000163
Br       5.00616164       1.39673822       5.17117324       0.00397478      -0.00562294      -0.00688951
Br       2.98557789       4.25427481       8.67092668      -0.00397843       0.00562055       0.00688376
Br       2.98557818       4.25427532       5.17117294      -0.00398107       0.00562105      -0.00688560
Br       5.00616177       1.39673790       8.67092615       0.00397743      -0.00562274       0.00688869
