9
Lattice="4.492422680016123 1.190104217026124e-07 2.5937013679248895 1.4974742312683844 4.235497234860911 2.593701554306988 -1.7856718104812273e-07 1.0200443000983578e-07 5.187403045137331" Properties=species:S:1:pos:R:3:forces:R:3 energy=-41.94971466064453 free_energy=-41.94971466064453 stress="3.8217367546167225e-05 -1.8146127445106686e-07 -9.839573600345375e-09 -1.8146127445106686e-07 3.7793084629811347e-05 2.3013141614569577e-08 -9.839573600345375e-09 2.3013141614569577e-08 3.792606366914697e-05" pbc="T T T"
Pt       1.49746329       1.05888248       2.59370523      -0.00028059       0.00020017       0.00010234
Pt       4.49241582       3.17662703       7.78110720      -0.00018815       0.00011876       0.00007324
Ge      -0.00000055       0.00000025       0.00000004      -0.00000253       0.00001125       0.00000139
O        1.50475360       1.06401958       5.18740246      -0.00063717      -0.00055200      -0.00003332
O        4.48514842       3.17147156       5.18740202       0.00078392       0.00035715      -0.00003558
O        3.74004813       1.06402025       3.89685560       0.00041360      -0.00049990      -0.00057697
O        2.24985348       3.17147554       6.47795209      -0.00027686       0.00046515       0.00063288
O        2.24985318       3.17147462       3.89685274      -0.00026935       0.00043678      -0.00066495
O        3.74005144       1.06401853       6.47794625       0.00045800      -0.00053799       0.00050211
