9
Lattice="4.997373547603227 -1.2356877499055163e-08 2.885234944298662 1.6657911813029962 4.7115688358378405 2.8852349262528305 1.0557712620978575e-08 -1.4636102527666774e-08 5.77046987031082" Properties=species:S:1:pos:R:3:forces:R:3 energy=-34.4371223449707 free_energy=-34.4371223449707 stress="7.300536253751488e-06 -1.1920090692285612e-08 -1.3460467407355736e-08 -1.1920090692285612e-08 7.331074357352918e-06 -1.0000750449989937e-08 -1.3460467407355736e-08 -1.0000750449989937e-08 7.370491402980406e-06" pbc="T T T"
Pt       1.66579162       1.17789229       2.88523480       0.00000213       0.00000148      -0.00000345
Pt       4.99737367       3.53367668       8.65570400      -0.00000026       0.00000016      -0.00000684
Ge      -0.00000009       0.00000003      -0.00000004       0.00000007       0.00000124      -0.00000050
S        1.81898211       1.28621464       5.77046995       0.00004114       0.00003056       0.00000214
S        4.84418237       3.42535426       5.77047018      -0.00004366      -0.00003026       0.00000149
S        4.08788206       1.28621462       4.46051980      -0.00002335       0.00002988       0.00003721
S        2.57528277       3.42535404       7.08042026       0.00002409      -0.00003074      -0.00003396
S        2.57528226       3.42535392       4.46051993       0.00002171      -0.00003208       0.00003870
S        4.08788219       1.28621479       7.08042007      -0.00002161       0.00002992      -0.00003481
