9
Lattice="4.720253772854889 7.189645059590703e-08 2.7252396940957864 1.5734179660590317 4.450297940914045 2.7252397391473506 6.774030715325986e-08 1.0307635867912803e-07 5.450479270861939" Properties=species:S:1:pos:R:3:forces:R:3 energy=-35.63856506347656 free_energy=-35.63856506347656 stress="7.893776637502015e-05 -1.815537231664166e-08 -5.126834068391872e-08 -1.815537231664166e-08 7.897206523921341e-05 5.241549061452133e-08 -5.126834068391872e-08 5.241549061452133e-08 7.901221397332847e-05" pbc="T T T"
Pt       1.57341757       1.11257480       2.72523975      -0.00000391       0.00000211       0.00000071
Pt       4.72025419       3.33772243       8.17571807       0.00000534      -0.00000694      -0.00000429
Ge      -0.00000012       0.00000042       0.00000059       0.00000219      -0.00001077      -0.00001183
F        1.49905517       1.05999267       5.45047945      -0.00642672      -0.00454184       0.00000011
F        4.79461671       3.39030573       5.45047933       0.00642952       0.00454578       0.00000333
F        3.97072639       1.05999308       4.02345985       0.00321366      -0.00454298      -0.00556448
F        2.32294566       3.39030548       6.87749871      -0.00321877       0.00455201       0.00557548
F        2.32294543       3.39030575       4.02345976      -0.00321582       0.00454471      -0.00556478
F        3.97072629       1.05999208       6.87749929       0.00321443      -0.00454202       0.00556627
