9
Lattice="6.51907406160308 5.029012238831766e-08 3.7637891556697256 2.1730247646063954 6.1462417853652855 3.7637891037231226 6.824583473539553e-08 -1.5364235638562773e-08 7.527578193134174" Properties=species:S:1:pos:R:3:forces:R:3 energy=-18.80453872680664 free_energy=-18.80453872680664 stress="-5.0642403948586434e-05 3.090756983681331e-09 -5.166447269999708e-09 3.090756983681331e-09 -5.062524360255338e-05 9.147549384636022e-10 -5.166447269999708e-09 9.147549384636022e-10 -5.064747165306471e-05" pbc="T T T"
Pt       2.17302473       1.53656068       3.76378925      -0.00000039       0.00000051       0.00000041
Pt       6.51907378       4.60968140      11.29136642      -0.00000101       0.00000068      -0.00000256
Ge      -0.00000001      -0.00000001      -0.00000004       0.00000084      -0.00000052      -0.00000010
I        2.28193280       1.61356967       7.52757798      -0.00348297      -0.00246337       0.00000020
I        6.41016618       4.53267192       7.52757891       0.00348301       0.00246263       0.00000015
I        5.37810785       1.61357000       5.74000077       0.00174194      -0.00246246      -0.00301546
I        3.31399137       4.53267165       9.31515598      -0.00174165       0.00246289       0.00301725
I        3.31399104       4.53267166       5.74000075      -0.00174130       0.00246280      -0.00301644
I        5.37810788       1.61357026       9.31515583       0.00174150      -0.00246318       0.00301658
