9
Lattice="5.604751378779843 1.5641112566267537e-07 3.2359045742659185 1.868250590130661 5.284210349521743 3.2359046035868646 2.0719805219616175e-08 5.056180217472598e-08 6.471809112644082" Properties=species:S:1:pos:R:3:forces:R:3 energy=-25.072261810302734 free_energy=-25.072261810302734 stress="0.00020546920131891966 -2.034594359656694e-08 -5.696201910154741e-08 -2.034594359656694e-08 0.00020539233810268342 7.780823807479464e-08 -5.696201910154741e-08 7.780823807479464e-08 0.00020537911041174084" pbc="T T T"
Pt       1.86825043       1.32105168       3.23590408       0.00000165      -0.00000023      -0.00000356
Pt       5.60475174       3.96315721       9.70771363      -0.00000305      -0.00000061      -0.00000197
Ge       0.00000052       0.00000027       0.00000035      -0.00001459       0.00000361      -0.00000361
Cl       1.84820041       1.30687539       6.47180914      -0.00565255      -0.00399204       0.00000031
Cl       5.62480112       3.97733473       6.47180894       0.00566304       0.00400455       0.00000047
Cl       4.68065076       1.30687620       4.83649373       0.00283162      -0.00400625      -0.00490962
Cl       2.79235174       3.97733509       8.10712513      -0.00283190       0.00400174       0.00489867
Cl       2.79235068       3.97733588       4.83649353      -0.00282507       0.00399578      -0.00488836
Cl       4.68065058       1.30687591       8.10712458       0.00283094      -0.00400658       0.00490750
