9
Lattice="6.1523828302291985 -1.1837250237789082e-08 3.552079895231207 2.0507942403164994 5.800522136941264 3.552079938993794 -1.890643267077995e-09 5.226110500681868e-08 7.104159793737123" Properties=species:S:1:pos:R:3:forces:R:3 energy=-15.016688346862793 free_energy=-15.016688346862793 stress="5.778381455456838e-05 4.143251963739658e-09 2.7587787609917314e-09 4.143251963739658e-09 5.778026024927385e-05 -1.6383449263912553e-08 2.7587787609917314e-09 -1.6383449263912553e-08 5.777328260592185e-05" pbc="T T T"
Pt       2.05079386       1.45012999       3.55207996      -0.00000145      -0.00000247       0.00000060
Pt       6.15238278       4.35039174      10.65624000      -0.00000033      -0.00000088       0.00000267
Hg      -0.00000008      -0.00000027       0.00000035       0.00000282       0.00000196      -0.00000169
Br       2.16927350       1.53390810       7.10415958      -0.00012895      -0.00009188      -0.00000102
Br       6.03390376       4.26661428       7.10415977       0.00012428       0.00008947      -0.00000173
Br       5.06774605       1.53390827       5.43072575       0.00006394      -0.00008732      -0.00010997
Br       3.13543116       4.26661416       8.77759366      -0.00006388       0.00009161       0.00010985
Br       3.13543112       4.26661421       5.43072609      -0.00006190       0.00009081      -0.00010890
Br       5.06774613       1.53390819       8.77759330       0.00006552      -0.00009102       0.00011009
