9
Lattice="5.723490109971439 1.0846376376319726e-07 3.304458613412787 1.907830147609091 5.396157947336506 3.3044585983589188 7.494077873446589e-08 3.455403368962463e-08 6.608917097024314" Properties=species:S:1:pos:R:3:forces:R:3 energy=-17.130126953125 free_energy=-17.130126953125 stress="0.00012514456466306 -1.4418920279979375e-08 -2.752364203217894e-08 -1.4418920279979375e-08 0.00012514294940046966 -1.5926012508771237e-08 -2.752364203217894e-08 -1.5926012508771237e-08 0.00012517535651568323" pbc="T T T"
Pt       1.90782992       1.34903840       3.30445891       0.00000019      -0.00001093       0.00000625
Pt       5.72349098       4.04711912       9.91337586       0.00000222       0.00000522      -0.00000344
Hg       0.00000021       0.00000030      -0.00000087      -0.00000085      -0.00000419       0.00001588
Cl       2.04882556       1.44873873       6.60891624      -0.00566328      -0.00400338       0.00000012
Cl       5.58249415       3.94741956       6.60891660       0.00566649       0.00400722      -0.00000039
Cl       4.69907687       1.44873800       5.07879380       0.00283286      -0.00401154      -0.00490719
Cl       2.93224268       3.94742083       8.13904113      -0.00282863       0.00400263       0.00489840
Cl       2.93224320       3.94741962       5.07879412      -0.00283514       0.00401250      -0.00490871
Cl       4.69907774       1.44873781       8.13904151       0.00282620      -0.00399727       0.00489882
