9
Lattice="6.591316478441054 -6.193297568722909e-09 3.8054983134118405 2.197105494327018 6.214352566676219 3.8054983006770717 7.453652960874545e-08 3.7108465779840996e-08 7.610996497722627" Properties=species:S:1:pos:R:3:forces:R:3 energy=-13.900871276855469 free_energy=-13.900871276855469 stress="-0.00014349418052006513 -5.216967302601461e-09 1.2443190922084568e-09 -5.216967302601461e-09 -0.00014346453826874495 -9.26780607812816e-09 1.2443190922084568e-09 -9.26780607812816e-09 -0.0001434832374798134" pbc="T T T"
Pt       2.19710593       1.55358847       3.80549814       0.00000179       0.00000042      -0.00000093
Pt       6.59131656       4.66076431      11.41649489      -0.00000001      -0.00000116       0.00000099
Hg      -0.00000004       0.00000004       0.00000032      -0.00000082      -0.00000054      -0.00000071
I        2.37874463       1.68202662       7.61099664       0.00008297       0.00005932      -0.00000063
I        6.40967704       4.53232586       7.61099650      -0.00008181      -0.00005899      -0.00000107
I        5.40194404       1.68202664       5.86555148      -0.00004242       0.00005998       0.00007188
I        3.38647811       4.53232551       9.35644128       0.00003989      -0.00005792      -0.00007027
I        3.38647811       4.53232603       5.86555187       0.00004166      -0.00005819       0.00007129
I        5.40194381       1.68202689       9.35644143      -0.00004135       0.00005715      -0.00007042
