9
Lattice="4.619812266025763 1.7505129364513302e-08 2.667249877103915 1.5399374215196862 4.355601097706318 2.6672499065364663 -6.005591396853696e-09 3.1800772790861714e-08 5.334499764609811" Properties=species:S:1:pos:R:3:forces:R:3 energy=-33.21269607543945 free_energy=-33.21269607543945 stress="0.00035279421717859805 -1.8239437737932462e-09 -1.566841056899193e-08 -1.8239437737932462e-09 0.0003524412168189883 -1.828966134098664e-08 -1.566841056899193e-08 -1.828966134098664e-08 0.0003528523666318506" pbc="T T T"
Pt       1.53993705       1.08890113       2.66725028      -0.00000497       0.00001024       0.00000295
Pt       4.61981174       3.26669983       8.00175022      -0.00000580      -0.00001136       0.00000390
In       0.00000006       0.00000003       0.00000001      -0.00000989      -0.00000182      -0.00000052
F        1.64384448       1.16237374       5.33449965      -0.00107666      -0.00075935      -0.00000170
F        4.51590531       3.19322716       5.33449963       0.00108651       0.00076291       0.00000099
F        3.79789038       1.16237439       4.09086070       0.00054196      -0.00075783      -0.00094042
F        2.36185958       3.19322726       6.57813860      -0.00053766       0.00076040       0.00093606
F        2.36185976       3.19322702       4.09086061      -0.00053804       0.00075943      -0.00093839
F        3.79789043       1.16237395       6.57813858       0.00054459      -0.00076244       0.00093740
