9
Lattice="5.700318005922921 2.0895005835320625e-07 3.291080496631197 1.9001061283750544 5.374312211348829 3.2910806189127007 -4.815117117778034e-08 1.1571559982480853e-07 6.582161076662692" Properties=species:S:1:pos:R:3:forces:R:3 energy=-22.69593048095703 free_energy=-22.69593048095703 stress="6.648493581451476e-05 -1.9653604965697014e-08 5.7832313160588456e-08 -1.9653604965697014e-08 6.651017611147836e-05 3.91632255514196e-08 5.7832313160588456e-08 3.91632255514196e-08 6.658706115558743e-05" pbc="T T T"
Pt       1.90010690       1.34357837       3.29108090       0.00000080       0.00000384      -0.00000187
Pt       5.70031774       4.03073402       9.87324002      -0.00000350      -0.00000107      -0.00000167
In      -0.00000008      -0.00000010       0.00000047      -0.00000100       0.00000231      -0.00000568
Cl       2.00082455       1.41479730       6.58216154      -0.00200018      -0.00141318      -0.00000088
Cl       5.59959962       3.95951512       6.58216170       0.00200039       0.00141259       0.00000262
Cl       4.69990504       1.41479704       5.02384582       0.00099767      -0.00141624      -0.00173536
Cl       2.90051879       3.95951520       8.14047639      -0.00100127       0.00142010       0.00173505
Cl       2.90051861       3.95951534       5.02384556      -0.00099669       0.00141181      -0.00173211
Cl       4.69990512       1.41479790       8.14047643       0.00100381      -0.00142013       0.00173998
