9
Lattice="5.438212068746529 4.088384219614274e-08 3.1397532257603764 1.8127373871333652 5.127195593870407 3.139753239029847 2.856359928308105e-09 1.8271467181278956e-08 6.279506446573395" Properties=species:S:1:pos:R:3:forces:R:3 energy=-39.13878631591797 free_energy=-39.13878631591797 stress="-9.165241499431431e-05 -3.998646747049861e-08 -1.900468049598203e-08 -3.998646747049861e-08 -9.157615568256006e-05 3.034405438029353e-08 -1.900468049598203e-08 3.034405438029353e-08 -9.152605343842879e-05" pbc="T T T"
Pt       1.81273722       1.28179884       3.13975319      -0.00000048       0.00000055       0.00000057
Pt       5.43821244       3.84539646       9.41925967       0.00000168      -0.00000056       0.00000143
Ir      -0.00000006      -0.00000006       0.00000016       0.00000066       0.00000183      -0.00000088
Se       2.02977429       1.43526751       6.27950639      -0.00035873      -0.00025430      -0.00000063
Se       5.22117511       3.69192852       6.27950638       0.00035661       0.00025253      -0.00000104
Se       4.42332509       1.43526738       4.89758965       0.00018075      -0.00025401      -0.00031169
Se       2.82762436       3.69192825       7.66142344      -0.00018151       0.00025572       0.00031260
Se       2.82762441       3.69192827       4.89758943      -0.00017928       0.00025328      -0.00031275
Se       4.42332500       1.43526743       7.66142339       0.00018038      -0.00025502       0.00031219
