9
Lattice="6.63472069026245 3.105346500961781e-08 3.83055771892445 2.211573603398715 6.255274676979615 3.8305577003907603 3.388733436947656e-09 -2.0302847202054258e-08 7.661115431979474" Properties=species:S:1:pos:R:3:forces:R:3 energy=-17.78783416748047 free_energy=-17.78783416748047 stress="8.756112947594374e-05 7.424951320444961e-09 1.2041737607049185e-09 7.424951320444961e-09 8.755930321058258e-05 -4.722117807887116e-09 1.2041737607049185e-09 -4.722117807887116e-09 8.754446753300726e-05" pbc="T T T"
Pt       2.21157362       1.56381857       3.83055788       0.00000019      -0.00000041       0.00000106
Pt       6.63472080       4.69145634      11.49167308       0.00000003       0.00000123       0.00000011
In      -0.00000024       0.00000036      -0.00000015       0.00000078      -0.00000444      -0.00000046
I        2.34530894       1.65838401       7.66111539      -0.00605211      -0.00428009       0.00000042
I        6.50098532       4.59689059       7.66111546       0.00605361       0.00428100       0.00000006
I        5.46206636       1.65838369       5.86165461       0.00302521      -0.00427935      -0.00524071
I        3.38422786       4.59689092       9.46057597      -0.00302657       0.00428033       0.00524195
I        3.38422800       4.59689065       5.86165492      -0.00302648       0.00428104      -0.00524302
I        5.46206648       1.65838356       9.46057627       0.00302538      -0.00427939       0.00524071
