9
Lattice="5.148601080819847 -1.0138819181512934e-08 2.9725461779575673 1.716200363034807 4.854147611263121 2.9725461566178417 1.0324549223575559e-08 -1.883515837071031e-08 5.9450923380325245" Properties=species:S:1:pos:R:3:forces:R:3 energy=-41.14603042602539 free_energy=-41.14603042602539 stress="-0.00016877563029993325 -4.426472077767585e-09 1.906856716971106e-08 -4.426472077767585e-09 -0.00016873839194886386 -1.737496191367427e-08 1.906856716971106e-08 -1.737496191367427e-08 -0.00016880031034816056" pbc="T T T"
Pt       1.71620021       1.21353689       2.97254625      -0.00000105      -0.00000004       0.00000081
Pt       5.14860113       3.64061059       8.91763860      -0.00000058      -0.00000058       0.00000186
Ir       0.00000005      -0.00000009      -0.00000007      -0.00000052       0.00000028       0.00000111
S        1.85583807       1.31227571       5.94509244      -0.00767165      -0.00542325       0.00000005
S        5.00896339       3.54187188       5.94509233       0.00767052       0.00542444      -0.00000006
S        4.22068205       1.31227578       4.57974895       0.00383618      -0.00542426      -0.00664538
S        2.64411923       3.54187206       7.31043570      -0.00383401       0.00542337       0.00664151
S        2.64411941       3.54187182       4.57974896      -0.00383559       0.00542563      -0.00664341
S        4.22068230       1.31227568       7.31043550       0.00383672      -0.00542551       0.00664359
