9
Lattice="6.135864914001406 7.425688304315913e-08 3.542543270280713 2.0452883482475737 5.784949482175862 3.542543316058179 -9.29126218977059e-08 -9.633445229741938e-09 7.085086701490798" Properties=species:S:1:pos:R:3:forces:R:3 energy=-19.96710968017578 free_energy=-19.96710968017578 stress="5.461145337903872e-05 -4.8846531264246096e-09 1.3702640799806431e-08 -4.8846531264246096e-09 5.459148087538779e-05 1.2790850156818578e-08 1.3702640799806431e-08 1.2790850156818578e-08 5.4602678574156016e-05" pbc="T T T"
Pt       2.04528823       1.44623820       3.54254347      -0.00000061       0.00000284       0.00000010
Pt       6.13586486       4.33871180      10.62762962      -0.00000027      -0.00000149      -0.00000193
In      -0.00000010      -0.00000016       0.00000014      -0.00000163       0.00000073      -0.00000173
Br       2.14168537       1.51440029       7.08508684       0.00087023       0.00061417      -0.00000145
Br       6.03946780       4.27054903       7.08508706      -0.00086665      -0.00061382       0.00000116
Br       5.06502227       1.51440071       5.39729701      -0.00043495       0.00061588       0.00075296
Br       3.11613111       4.27054886       8.77287592       0.00043271      -0.00061360      -0.00075147
Br       3.11613106       4.27054895       5.39729706       0.00043407      -0.00061707       0.00075307
Br       5.06502203       1.51440054       8.77287603      -0.00043291       0.00061239      -0.00075069
