9
Lattice="4.5182008916385366 -2.9483271675186996e-08 2.6085845444405664 1.5060669397451918 4.259800696701114 2.608584538096468 6.571515564325142e-10 -7.305235991643461e-09 5.217169087742895" Properties=species:S:1:pos:R:3:forces:R:3 energy=-39.69975662231445 free_energy=-39.69975662231445 stress="8.507339225616306e-05 -6.549789333121225e-08 -1.9484369673250512e-08 -6.549789333121225e-08 8.498602983308956e-05 4.6384005969457576e-08 -1.9484369673250512e-08 4.6384005969457576e-08 8.510017505614087e-05" pbc="T T T"
Pt       1.50606708       1.06495015       2.60858460      -0.00000030       0.00000024       0.00000164
Pt       4.51820075       3.19485080       7.82575362       0.00000005       0.00000089       0.00000038
Mn       0.00000003      -0.00000015      -0.00000006       0.00000300       0.00000538      -0.00000502
F        1.48996959       1.05356774       5.21716902      -0.00056612      -0.00040105      -0.00000024
F        4.53429852       3.20623306       5.21716910       0.00056225       0.00039801      -0.00000014
F        3.77321595       1.05356771       3.89893616       0.00028451      -0.00040254      -0.00049242
F        2.25105166       3.20623274       6.53540215      -0.00028467       0.00040153       0.00049287
F        2.25105167       3.20623279       3.89893600      -0.00028239       0.00039974      -0.00048980
F        3.77321604       1.05356776       6.53540208       0.00028361      -0.00040209       0.00049266
