9
Lattice="6.355922751330444 2.1464185575436558e-07 3.6695937325409043 2.118641069232765 5.992421607850916 3.669593819565462 1.2910038644968199e-08 1.1571173254734949e-07 7.339187442720847" Properties=species:S:1:pos:R:3:forces:R:3 energy=-24.35809326171875 free_energy=-24.35809326171875 stress="-2.9445058316923678e-05 -1.3250185837421213e-08 1.4233365597249303e-09 -1.3250185837421213e-08 -2.944259176729247e-05 1.44756562292514e-09 1.4233365597249303e-09 1.44756562292514e-09 -2.9441902370308526e-05" pbc="T T T"
Pt       2.11864137       1.49810547       3.66959343       0.00000105      -0.00000013      -0.00000091
Pt       6.35592290       4.49431624      11.00878216      -0.00000004      -0.00000120       0.00000445
Mn      -0.00000018       0.00000015       0.00000002       0.00000091      -0.00000063      -0.00000537
I        2.08724764       1.47590754       7.33918749       0.00095518       0.00067580      -0.00000057
I        6.38731580       4.51651476       7.33918719      -0.00095534      -0.00067523      -0.00000114
I        5.31229909       1.47590758       5.47720354      -0.00047797       0.00067656       0.00082698
I        3.16226506       4.51651406       9.20117120       0.00047517      -0.00067285      -0.00082459
I        3.16226526       4.51651440       5.47720360       0.00047773      -0.00067586       0.00082614
I        5.31229844       1.47590759       9.20117139      -0.00047667       0.00067358      -0.00082499
