9
Lattice="4.407158332802292 -2.1445362202777283e-08 2.5444740659206055 1.4690527701559537 4.155108580169756 2.54447404379528 1.3123283229453743e-08 -1.7818309271644853e-08 5.088948109111016" Properties=species:S:1:pos:R:3:forces:R:3 energy=-34.93076705932617 free_energy=-34.93076705932617 stress="-6.272146856645122e-05 -8.607465673549086e-08 8.319904054587823e-08 -8.607465673549086e-08 -6.237665365915745e-05 5.822731097282485e-08 8.319904054587823e-08 5.822731097282485e-08 -6.254225445445627e-05" pbc="T T T"
Pt       1.46905239       1.03877629       2.54447397      -0.00000506      -0.00000940      -0.00000299
Pt       4.40715782       3.11633158       7.63342150      -0.00000531       0.00000356      -0.00000984
Mg       0.00000009      -0.00000003       0.00000010      -0.00000269       0.00000278       0.00000043
F        1.49461689       1.05685346       5.08894817      -0.00024463      -0.00017439       0.00000267
F        4.38159430       3.09825525       5.08894822       0.00024903       0.00017892       0.00000215
F        3.65984999       1.05685348       3.83885063       0.00012726      -0.00018097      -0.00021820
F        2.21636168       3.09825523       6.33904598      -0.00012286       0.00017947       0.00021814
F        2.21636133       3.09825496       3.83885024      -0.00012343       0.00017805      -0.00021420
F        3.65984999       1.05685394       6.33904603       0.00012755      -0.00017790       0.00022158
