9
Lattice="6.082561660129172 7.178043908686933e-08 3.511768697103039 2.0275206213657433 5.73469367766638 3.5117686965590003 -1.98157018080231e-07 -1.4078447258742676e-07 7.023537737424063" Properties=species:S:1:pos:R:3:forces:R:3 energy=-26.76340103149414 free_energy=-26.76340103149414 stress="0.00017729640239849687 4.369171691109841e-08 -9.448362980890579e-09 4.369171691109841e-08 0.000177444628207013 -2.5317799412505337e-08 -9.448362980890579e-09 -2.5317799412505337e-08 0.0001773559779394418" pbc="T T T"
Pt       2.02752247       1.43367290       3.51176955       0.00000906      -0.00000150       0.00001032
Pt       6.08256295       4.30101707      10.53530745       0.00000943      -0.00001008       0.00000778
Mn      -0.00000029       0.00000069       0.00000023      -0.00000012      -0.00000151      -0.00000461
Br       1.91620088       1.35495980       7.02353726      -0.00344998      -0.00243889      -0.00000201
Br       6.19388012       4.37973524       7.02353757       0.00344081       0.00243814      -0.00000477
Br       5.12446080       1.35495956       5.17124704       0.00171768      -0.00242917      -0.00298561
Br       2.98562061       4.37973494       8.87582602      -0.00172590       0.00243937       0.00298530
Br       2.98562036       4.37973487       5.17124815      -0.00172181       0.00243849      -0.00298863
Br       5.12446051       1.35495937       8.87582725       0.00172072      -0.00243478       0.00298205
