9
Lattice="5.580242675621172 5.038871515426347e-08 3.22175487720211 1.8600809517598715 5.261103645780497 3.2217548557606643 -5.388363383593239e-08 -6.43617498229053e-08 6.4435098477334485" Properties=species:S:1:pos:R:3:forces:R:3 energy=-22.11551284790039 free_energy=-22.11551284790039 stress="-6.47140113869682e-05 4.333474024065254e-09 3.1700196245765255e-08 4.333474024065254e-09 -6.47116030449979e-05 5.190570817603657e-08 3.1700196245765255e-08 5.190570817603657e-08 -6.47308916086331e-05" pbc="T T T"
Pt       1.86008065       1.31527477       3.22175552      -0.00000345      -0.00000938       0.00000461
Pt       5.58024226       3.94582710       9.66526393      -0.00000122      -0.00000551      -0.00000191
Mg       0.00000008       0.00000000      -0.00000009       0.00000093      -0.00000187       0.00000193
Cl       1.91989370       1.35757040       6.44351002      -0.00242010      -0.00171123      -0.00000102
Cl       5.52042970       3.90353369       6.44350998       0.00241989       0.00171401       0.00000266
Cl       4.62029607       1.35757012       4.88443189       0.00121018      -0.00171123      -0.00209668
Cl       2.82002746       3.90353474       8.00258713      -0.00120804       0.00171636       0.00209340
Cl       2.82002805       3.90353353       4.88443196      -0.00120974       0.00171401      -0.00209811
Cl       4.62029629       1.35757019       8.00258799       0.00121153      -0.00170512       0.00209504
