9
Lattice="5.349642707330535 -2.1543891006768348e-07 3.08861736913413 1.7832141315709633 5.043690665315286 3.0886171978137607 1.1469994351955088e-07 -1.2871862789459043e-07 6.1772345396021064" Properties=species:S:1:pos:R:3:forces:R:3 energy=-38.93698501586914 free_energy=-38.93698501586914 stress="1.4981405911385082e-05 -1.2995751141886558e-08 -4.669824527070432e-09 -1.2995751141886558e-08 1.4987007489253301e-05 -2.5041643425538496e-08 -4.669824527070432e-09 -2.5041643425538496e-08 1.504234296589857e-05" pbc="T T T"
Pt       1.78321536       1.26092267       3.08861708       0.00000858      -0.00000016      -0.00000364
Pt       5.34964404       3.78276844       9.26585046       0.00001000       0.00000662      -0.00001150
Mn      -0.00000041       0.00000070       0.00000024       0.00000086      -0.00000326       0.00000079
Se       1.97965184       1.39982511       6.17723442       0.00069296       0.00049242       0.00000069
Se       5.15320455       3.64386488       6.17723459      -0.00069430      -0.00049189       0.00000296
Se       4.35981604       1.39982452       4.80304692      -0.00035200       0.00048712       0.00060490
Se       2.77304104       3.64386524       7.55142252       0.00034687      -0.00048974      -0.00059888
Se       2.77304002       3.64386466       4.80304755       0.00033946      -0.00049037       0.00060353
Se       4.35981541       1.39982508       7.55142251      -0.00035246       0.00048894      -0.00059867
