9
Lattice="6.580329218602509 8.434069370530312e-08 3.799154935402317 2.193443165593962 6.203993910069318 3.7991549125231163 7.216901267186372e-08 2.3010061570159895e-08 7.598309745804123" Properties=species:S:1:pos:R:3:forces:R:3 energy=-17.286489486694336 free_energy=-17.286489486694336 stress="4.5457767555490136e-05 4.091313510201644e-09 -8.517266003593704e-09 4.091313510201644e-09 4.546290801954456e-05 -5.351398435493593e-09 -8.517266003593704e-09 -5.351398435493593e-09 4.546533091343008e-05" pbc="T T T"
Pt       2.19344311       1.55099859       3.79915517       0.00000016       0.00000062       0.00000145
Pt       6.58032932       4.65299546      11.39746450      -0.00000047       0.00000032       0.00000035
Mg       0.00000014       0.00000027      -0.00000001      -0.00000016      -0.00000073      -0.00000088
I        2.31807988       1.63912989       7.59830969       0.00293832       0.00207753      -0.00000110
I        6.45569215       4.56486382       7.59831008      -0.00293685      -0.00207698       0.00000023
I        5.42128954       1.63912997       5.80667087      -0.00146951       0.00207776       0.00254446
I        3.35248325       4.56486391       9.38994868       0.00146835      -0.00207750      -0.00254397
I        3.35248321       4.56486393       5.80667078       0.00146852      -0.00207821       0.00254460
I        5.42128923       1.63913022       9.38994863      -0.00146838       0.00207713      -0.00254507
