9
Lattice="5.978379665058833 3.6740151074652576e-07 3.4516195277694033 1.9927936169034837 5.636470373117837 3.4516194431972327 3.1199408886088546e-09 -1.0137318040426033e-07 6.9032390501349035" Properties=species:S:1:pos:R:3:forces:R:3 energy=-21.763214111328125 free_energy=-21.763214111328125 stress="-8.560539572499692e-05 -1.5792554819427096e-08 -4.319744206782161e-08 -1.5792554819427096e-08 -8.558203262509778e-05 -2.5788528645875886e-08 -4.319744206782161e-08 -2.5788528645875886e-08 -8.556003012927249e-05" pbc="T T T"
Pt       1.99279533       1.40911999       3.45162138       0.00000922       0.00001118       0.00000587
Pt       5.97837777       4.22735148      10.35486063      -0.00000739      -0.00000310       0.00000514
Ni      -0.00000029      -0.00000035      -0.00000044       0.00000422       0.00000224      -0.00000152
Br       1.93947400       1.37141475       6.90323852       0.00570601       0.00403389      -0.00000193
Br       6.03169926       4.26505571       6.90323847      -0.00570959      -0.00403896      -0.00000428
Br       5.00864257       1.37141582       5.13125194      -0.00285751       0.00404093       0.00493807
Br       2.96253049       4.26505529       8.67522468       0.00285409      -0.00404119      -0.00493822
Br       2.96253094       4.26505467       5.13125214       0.00285651      -0.00404152       0.00493762
Br       5.00864303       1.37141519       8.67522470      -0.00285572       0.00403640      -0.00494066
