9
Lattice="5.238025683221296 -1.3540237402771924e-08 3.0241751271485926 1.746008446549486 4.938457212919064 3.0241753033992906 -2.4606035163107943e-07 4.187127176739186e-08 6.048350680486088" Properties=species:S:1:pos:R:3:forces:R:3 energy=-45.215660095214844 free_energy=-45.215660095214844 stress="-2.3070108454703586e-06 3.757027133843849e-09 -4.437222500541793e-08 3.757027133843849e-09 -2.3519646674685646e-06 3.8746101438391634e-08 -4.437222500541793e-08 3.8746101438391634e-08 -2.2913511656952323e-06" pbc="T T T"
Pt       1.74601111       1.23461464       3.02417337       0.00000485      -0.00000047      -0.00000420
Pt       5.23802372       3.70384315       9.07252640      -0.00000621       0.00000141       0.00000087
Nb      -0.00000060      -0.00000019      -0.00000060       0.00000728       0.00000230       0.00000490
F        1.58814332       1.12298495       6.04835137      -0.00019147      -0.00013477       0.00000113
F        5.39589017       3.81547132       6.04835064       0.00018850       0.00013273       0.00000027
F        4.44395456       1.12298649       4.39954764       0.00009613      -0.00013490      -0.00016744
F        2.54007997       3.81546977       7.69715450      -0.00009646       0.00013249       0.00016679
F        2.54007966       3.81547136       4.39954803      -0.00009520       0.00013206      -0.00016427
F        4.44395391       1.12298680       7.69715383       0.00009263      -0.00013091       0.00016201
