9
Lattice="3.6854589834566736 3.092671021214496e-05 2.1277684711506524 1.2285163471084697 3.4746664750758978 2.1277669554158547 -3.2827946393351602e-06 -4.165201322147148e-06 4.255542719024053" Properties=species:S:1:pos:R:3:forces:R:3 energy=-48.045188903808594 free_energy=-48.045188903808594 stress="0.00023395702010020614 0.0001460502971895039 -2.5887584342854097e-05 0.0001460502971895039 8.479411917505786e-05 -2.5495244699413888e-05 -2.5887584342854097e-05 -2.5495244699413888e-05 -7.67879009799799e-06" pbc="T T T"
Pt       1.22849439       0.86867399       2.12776791      -0.00080524      -0.00046878      -0.00061509
Pt       3.68548241       2.60601790       6.38331362      -0.00009907      -0.00048738      -0.00090834
Ni      -0.00000819       0.00000569      -0.00000093       0.00156470      -0.00029166       0.00052291
O        1.23684192       0.87458954       4.25554637      -0.00147605      -0.00389504      -0.00154233
O        3.67711704       2.60012768       4.25555209       0.00233388      -0.00186563      -0.00177246
O        3.06704521       0.87461149       3.19890739       0.00023758      -0.00272584      -0.00314641
O        1.84694584       2.60009076       5.31218041      -0.00242817       0.00053954       0.00043559
O        1.84693661       2.60006918       3.19888422      -0.00101197       0.00617957       0.00179172
O        3.06703413       0.87458643       5.31216108       0.00168610       0.00302100       0.00523186
