9
Lattice="5.5539585316540885 -7.335997996184499e-08 3.206579356335702 1.8513194263736301 5.236322669477874 3.2065793823394184 -1.3637763520636447e-07 -6.458560907790278e-08 6.413158948884322" Properties=species:S:1:pos:R:3:forces:R:3 energy=-23.746477127075195 free_energy=-23.746477127075195 stress="-3.7427471397677436e-05 -2.7770761690248946e-08 -3.0079960744444634e-09 -2.7770761690248946e-08 -3.744170317077078e-05 -3.8907813859623275e-08 -3.0079960744444634e-09 -3.8907813859623275e-08 -3.7484052882064134e-05" pbc="T T T"
Pt       1.85131853       1.30907948       3.20657872      -0.00000436      -0.00000625      -0.00000310
Pt       5.55395859       3.92724295       9.61973919       0.00000038       0.00000412       0.00000575
Ni       0.00000070      -0.00000028      -0.00000009      -0.00000631       0.00000208      -0.00000167
Cl       1.83878602       1.30021763       6.41315902      -0.00333518      -0.00236042       0.00000215
Cl       5.56649180       3.93610447       6.41315833       0.00333783       0.00236289      -0.00000369
Cl       4.63456521       1.30021790       4.79901499       0.00167194      -0.00236258      -0.00288829
Cl       2.77071212       3.93610496       8.02730300      -0.00166939       0.00236118       0.00288543
Cl       2.77071299       3.93610470       4.79901460      -0.00166503       0.00236262      -0.00288811
Cl       4.63456539       1.30021828       8.02730296       0.00167018      -0.00236353       0.00289160
