9
Lattice="6.306547062940211 7.364244838866463e-09 3.6410866379200373 2.1021823560284227 5.945869467143745 3.6410866469752468 -4.485206706879319e-08 -2.06248921059542e-08 7.28217335352616" Properties=species:S:1:pos:R:3:forces:R:3 energy=-20.093273162841797 free_energy=-20.093273162841797 stress="0.00024234375450760126 -9.265927580770494e-09 -3.0960238817101526e-09 -9.265927580770494e-09 0.0002423706609988585 -4.1285808105584465e-10 -3.0960238817101526e-09 -4.1285808105584465e-10 0.00024237144680228084" pbc="T T T"
Pt       2.10218232       1.48646745       3.64108710       0.00000048      -0.00000023       0.00000179
Pt       6.30654684       4.45940192      10.92326023      -0.00000148      -0.00000027       0.00000350
Ni       0.00000002      -0.00000015       0.00000013      -0.00000006       0.00000116       0.00000007
I        2.13716482       1.51120351       7.28217301       0.00210333       0.00148730      -0.00000032
I        6.27156480       4.43466595       7.28217325      -0.00210416      -0.00148825      -0.00000146
I        5.23796464       1.51120387       5.49192536      -0.00105145       0.00148825       0.00182131
I        3.17076461       4.43466595       9.07242093       0.00105256      -0.00148742      -0.00182346
I        3.17076470       4.43466568       5.49192545       0.00105261      -0.00148776       0.00182176
I        5.23796477       1.51120358       9.07242104      -0.00105176       0.00148720      -0.00182316
