9
Lattice="6.131004338482063 7.701505977243359e-08 3.539737035321643 2.0436681797979546 5.780366184615918 3.5397370450902472 2.246974730605169e-08 2.785249990114826e-08 7.079474031724592" Properties=species:S:1:pos:R:3:forces:R:3 energy=-29.488069534301758 free_energy=-29.488069534301758 stress="6.342827691696584e-05 2.1764845925531517e-08 1.1688312540059087e-08 2.1764845925531517e-08 6.339484389172867e-05 -4.686633747752467e-09 1.1688312540059087e-08 -4.686633747752467e-09 6.337328522931784e-05" pbc="T T T"
Pt       2.04366860       1.44509160       3.53973718       0.00000141       0.00000053      -0.00000002
Pt       6.13100376       4.33527523      10.61921101      -0.00000171       0.00000058       0.00000011
Nb       0.00000002      -0.00000025      -0.00000011       0.00000055       0.00000088       0.00000238
Br       2.05151646       1.45064098       7.07947401      -0.00039979      -0.00028285       0.00000014
Br       6.12315632       4.32972545       7.07947410       0.00039813       0.00028101      -0.00000016
Br       5.10524608       1.45064079       5.31640215       0.00019790      -0.00027957      -0.00034209
Br       3.06942642       4.32972520       8.84254604      -0.00019706       0.00027897       0.00034088
Br       3.06942638       4.32972532       5.31640199      -0.00019741       0.00028047      -0.00034255
Br       5.10524617       1.45064084       8.84254609       0.00019802      -0.00027996       0.00034131
