9
Lattice="4.446894571489434 1.1401041379444007e-08 2.5674157548661576 1.4822982029544423 4.192572402734188 2.5674157519061582 1.9041027566784507e-08 9.838792963426424e-09 5.134831476752292" Properties=species:S:1:pos:R:3:forces:R:3 energy=-33.44664001464844 free_energy=-33.44664001464844 stress="0.0002971361973322928 4.9115293165868934e-08 -1.3012103394771657e-08 4.9115293165868934e-08 0.00029714603442698717 -1.3840594448311094e-08 -1.3012103394771657e-08 -1.3840594448311094e-08 0.00029699981678277254" pbc="T T T"
Pt       1.48229804       1.04814327       2.56741564       0.00000035       0.00000065       0.00000056
Pt       4.44689458       3.14442933       7.70224725      -0.00000090      -0.00000021       0.00000046
Ni       0.00000001       0.00000001      -0.00000002      -0.00000188      -0.00000408      -0.00000028
F        1.49637483       1.05809683       5.13483157      -0.00306809      -0.00217001      -0.00000113
F        4.43281801       3.13447555       5.13483148       0.00307111       0.00217117       0.00000085
F        3.69870729       1.05809677       3.86331446       0.00153276      -0.00216834      -0.00265530
F        2.23048564       3.13447555       6.40634864      -0.00153375       0.00217006       0.00265650
F        2.23048565       3.13447560       3.86331434      -0.00153419       0.00216877      -0.00265624
F        3.69870715       1.05809679       6.40634861       0.00153457      -0.00216806       0.00265460
