9
Lattice="6.606636797774055 2.243016430060999e-08 3.8143435124422584 2.202212282971526 6.228796882480069 3.814343519544565 -9.755277487429774e-09 1.800486839602187e-09 7.628687041781148" Properties=species:S:1:pos:R:3:forces:R:3 energy=-26.15276527404785 free_energy=-26.15276527404785 stress="-4.7998109948821366e-05 1.1756537077189932e-08 -8.753915925474587e-10 1.1756537077189932e-08 -4.802158218808472e-05 -1.2303938978774909e-09 -8.753915925474587e-10 -1.2303938978774909e-09 -4.801444447366521e-05" pbc="T T T"
Pt       2.20221222       1.55719927       3.81434355       0.00000048       0.00000018      -0.00000085
Pt       6.60663681       4.67159770      11.44303069       0.00000012      -0.00000069      -0.00000068
Nb       0.00000004       0.00000002      -0.00000026      -0.00000077      -0.00000073       0.00000412
I        2.23976707       1.58375438       7.62868701       0.00020210       0.00014317       0.00000035
I        6.56908194       4.64504241       7.62868697      -0.00020139      -0.00014224       0.00000060
I        5.48675327       1.58375447       5.75403867      -0.00010023       0.00014256       0.00017490
I        3.32209573       4.64504262       9.50333552       0.00010209      -0.00014480      -0.00017661
I        3.32209584       4.64504251       5.75403862       0.00010007      -0.00014249       0.00017488
I        5.48675337       1.58375425       9.50333555      -0.00010244       0.00014505      -0.00017668
