9
Lattice="5.342276175734296 -9.097292052741677e-08 3.084364420560736 1.780758774076355 5.036745033885144 3.0843641874237973 3.5417356081698964e-07 -3.509473294822154e-08 6.168728227674917" Properties=species:S:1:pos:R:3:forces:R:3 energy=-35.43900680541992 free_energy=-35.43900680541992 stress="0.00024385527649428695 8.023586417493789e-08 3.027701822588824e-08 8.023586417493789e-08 0.0002438786468701437 -7.860126061132178e-08 3.027701822588824e-08 -7.860126061132178e-08 0.00024383793061133474" pbc="T T T"
Pt       1.78075902       1.25918048       3.08436559       0.00000129      -0.00004748       0.00000535
Pt       5.34227759       3.77755133       9.25309200       0.00000721      -0.00005293      -0.00000584
Ni      -0.00000147      -0.00000075      -0.00000361       0.00001055       0.00001383       0.00002709
Se       1.99355867       1.40966024       6.16872898       0.00571281       0.00406227      -0.00000350
Se       5.12947692       3.62709086       6.16872955      -0.00574359      -0.00403780       0.00000363
Se       4.34549700       1.40965899       4.81083386      -0.00286537       0.00406724       0.00494841
Se       2.77753566       3.62708941       7.52662283       0.00286420      -0.00404358      -0.00497320
Se       2.77753778       3.62708953       4.81083702       0.00286433      -0.00403282       0.00496268
Se       4.34550015       1.40965944       7.52662115      -0.00285155       0.00407130      -0.00496483
