9
Lattice="4.677253640735006 -2.808133013019093e-07 2.7004131090428993 1.5590843428877865 4.409756010259638 2.7004130038564615 -2.2355614930255713e-07 -2.869046525613677e-07 5.400826605296474" Properties=species:S:1:pos:R:3:forces:R:3 energy=-49.53150177001953 free_energy=-49.53150177001953 stress="-0.0002857305225916207 1.9162524012017457e-08 2.71422759823281e-08 1.9162524012017457e-08 -0.00028545712120831013 -1.1273693445446042e-07 2.71422759823281e-08 -1.1273693445446042e-07 -0.00028553762240335345" pbc="T T T"
Pt       1.55908394       1.10244387       2.70042260      -0.00001781       0.00010048       0.00016297
Pt       4.67724391       3.30733121       8.10125479      -0.00013588       0.00022368       0.00023841
Os       0.00000058       0.00000044       0.00000042      -0.00000227       0.00001105       0.00000957
O        1.52637000       1.07929692       5.40082079       0.00132459       0.00078970      -0.00009411
O        4.70997380       3.33045067       5.40081843      -0.00123012      -0.00093764      -0.00011548
O        3.91406915       1.07930371       4.02228175      -0.00065467       0.00089383       0.00106668
O        2.32226841       3.33044998       6.77936985       0.00064334      -0.00091010      -0.00108308
O        2.32226971       3.33044978       4.02228062       0.00067693      -0.00094450       0.00100863
O        3.91407138       1.07929499       6.77936159      -0.00060439       0.00077403      -0.00119328
