9
Lattice="5.409569277360247 -1.0315083679431023e-08 3.1232162148748683 1.803189739126761 5.100190701794073 3.1232162326598534 1.811342904663024e-08 3.459022492017413e-08 6.246432398376328" Properties=species:S:1:pos:R:3:forces:R:3 energy=-40.7191162109375 free_energy=-40.7191162109375 stress="0.00013388374645728618 1.8226849363145448e-08 8.260322204023396e-09 1.8226849363145448e-08 0.00013386576029006392 2.0886663509855907e-09 8.260322204023396e-09 2.0886663509855907e-09 0.00013383434270508587" pbc="T T T"
Pt       1.80318954       1.27504760       3.12321606      -0.00000073      -0.00000027      -0.00000069
Pt       5.40956918       3.82514288       9.36964868      -0.00000122      -0.00000049       0.00000164
Os      -0.00000005       0.00000017      -0.00000021      -0.00000008      -0.00000036       0.00000300
Se       2.01777608       1.42678309       6.24643237      -0.00458950      -0.00324488      -0.00000007
Se       5.19498289       3.67340781       6.24643244       0.00458860       0.00324571      -0.00000129
Se       4.40068168       1.42678312       4.87066146       0.00229514      -0.00324291      -0.00397259
Se       2.81207764       3.67340763       7.62220371      -0.00229323       0.00324282       0.00397265
Se       2.81207778       3.67340763       4.87066137      -0.00229380       0.00324434      -0.00397453
Se       4.40068139       1.42678295       7.62220358       0.00229505      -0.00324389       0.00397184
