9
Lattice="5.098683282189757 4.445387737411941e-08 2.943726181687399 1.699561130888152 4.8070847472329685 2.9437261904977 1.6114965744402168e-08 2.2185369340157706e-08 5.887452335462858" Properties=species:S:1:pos:R:3:forces:R:3 energy=-43.166351318359375 free_energy=-43.166351318359375 stress="-0.00011522700515342876 -8.161874731626995e-09 1.9419267971443332e-08 -8.161874731626995e-09 -0.00011521714623086154 -1.3596246795088973e-08 1.9419267971443332e-08 -1.3596246795088973e-08 -0.00011515727965161204" pbc="T T T"
Pt       1.69956127       1.20177115       2.94372635       0.00000094       0.00000052       0.00000062
Pt       5.09868369       3.60531370       8.83117899       0.00000284       0.00000154       0.00000203
Os       0.00000010       0.00000007       0.00000005      -0.00000064       0.00000052      -0.00000344
S        1.85494021       1.31164089       5.88745219      -0.00167131      -0.00118023      -0.00000106
S        4.94330411       3.49544387       5.88745215       0.00166905       0.00118023      -0.00000154
S        4.17121305       1.31164090       4.55015156       0.00083542      -0.00118077      -0.00144649
S        2.62703134       3.49544393       7.22475293      -0.00083596       0.00118285       0.00144660
S        2.62703106       3.49544394       4.55015157      -0.00083512       0.00117898      -0.00144440
S        4.17121287       1.31164085       7.22475302       0.00083417      -0.00118339       0.00144780
