9
Lattice="1.7188458416225874 0.21668841731614413 1.9614513413420223 -0.9198420172366388 1.7695471671539422 2.3835680757857802 -0.3523593597880082 -0.710756082490787 2.7618200034771" Properties=species:S:1:pos:R:3:forces:R:3 energy=-27975553024.0 free_energy=-27975553024.0 stress="0.0 -247846832.0 -258463728.0 -247846832.0 0.0 -325407360.0 -258463728.0 -325407360.0 0.0" pbc="T T T"
Pt      -0.75797844       2.56258854       2.70902667 21181517824.00000000 33381455872.00000000 -4926392832.00000000
Pt       1.61063712       2.52335431       5.12629979 -10756564992.00000000 21005588480.00000000 -19650453504.00000000
P       -1.46598706       3.62929810       0.24687241 11004144640.00000000 -6025336832.00000000 14268894208.00000000
O        0.02614090       2.19571506       2.17728464 -15567020032.00000000 31864813568.00000000 22550079488.00000000
O        0.59100337       0.83206287       3.33111497 1481561344.00000000 297476864.00000000 -17427404800.00000000
O        1.75017784       1.64398452       2.89699875 -12746960896.00000000 -18114693120.00000000 -8254162944.00000000
O       -0.26615734       2.68766436       2.50800948 -1456386048.00000000 -37006999552.00000000 -12055202816.00000000
O       -0.49866392       0.45080605       2.51540264 5280609280.00000000 -27334455296.00000000 26825715712.00000000
O        1.78988494       1.04794365       0.54830643 1579119744.00000000 1932152960.00000000 -1331079808.00000000
