9
Lattice="5.470227619735724 2.3733712056116883e-08 3.158237358739881 1.8234092137895959 5.157380084536517 3.158237385007016 -2.7761300946328647e-08 1.2540338687567373e-08 6.316474765563745" Properties=species:S:1:pos:R:3:forces:R:3 energy=-33.89109802246094 free_energy=-33.89109802246094 stress="-0.00022868809173814952 -1.58725761423284e-08 -5.036471684150001e-09 -1.58725761423284e-08 -0.00022873334819450974 -2.8348148273238394e-09 -5.036471684150001e-09 -2.8348148273238394e-09 -0.00022872412228025496" pbc="T T T"
Pt       1.82340901       1.28934496       3.15823738      -0.00000282      -0.00000127      -0.00000042
Pt       5.47022745       3.86803500       9.47471231      -0.00000323       0.00000096       0.00000334
P        0.00000002      -0.00000009      -0.00000009      -0.00000307       0.00000210      -0.00000288
Se       1.89412876       1.33935136       6.31647474      -0.00224134      -0.00158525      -0.00000005
Se       5.39950813       3.81802880       6.31647464       0.00223997       0.00158435      -0.00000140
Se       4.52316332       1.33935134       4.79860095       0.00112256      -0.00158381      -0.00194260
Se       2.77047361       3.81802895       7.83434869      -0.00111866       0.00158593       0.00194106
Se       2.77047360       3.81802904       4.79860089      -0.00111689       0.00158271      -0.00193980
Se       4.52316331       1.33935114       7.83434856       0.00112323      -0.00158572       0.00194243
