9
Lattice="6.376668473373181 6.643549589502588e-08 3.6815711675535936 2.125556252423051 6.011980480378608 3.6815711121349257 4.153476516416429e-08 -3.8504281626041766e-08 7.363142263166895" Properties=species:S:1:pos:R:3:forces:R:3 energy=-20.232257843017578 free_energy=-20.232257843017578 stress="-0.0001452749565942213 1.4649886859174899e-09 5.451400220124469e-09 1.4649886859174899e-09 -0.0001452907599741593 2.606325821830069e-09 5.451400220124469e-09 2.606325821830069e-09 -0.0001452913274988532" pbc="T T T"
Pt       2.12555642       1.50299504       3.68157145       0.00000201      -0.00000050       0.00000202
Pt       6.37666880       4.50898547      11.04471392       0.00000179      -0.00000001       0.00000230
Pd       0.00000017       0.00000040       0.00000018      -0.00000286      -0.00000512      -0.00000247
I        2.18654570       1.54612112       7.36314209      -0.00361779      -0.00255767      -0.00000098
I        6.31567874       4.46585922       7.36314211       0.00362118       0.00256184      -0.00000106
I        5.28339568       1.54612115       5.57517472       0.00180827      -0.00255812      -0.00313371
I        3.21882893       4.46585928       9.15110935      -0.00181118       0.00256006       0.00313453
I        3.21882890       4.46585935       5.57517503      -0.00181050       0.00255917      -0.00313455
I        5.28339574       1.54612099       9.15110932       0.00180911      -0.00255965       0.00313401
