9
Lattice="6.039404252292743 -2.8252203356821806e-08 3.4868517384273607 2.0131346533415737 5.694004964032162 3.4868518610326804 -3.828131675057134e-08 1.2309128036133116e-07 6.9737035431599335" Properties=species:S:1:pos:R:3:forces:R:3 energy=-21.653461456298828 free_energy=-21.653461456298828 stress="0.00010940711945295334 -3.507373946831649e-09 -1.78716277332569e-08 -3.507373946831649e-09 0.00010943414963549003 1.6032993599424117e-08 -1.78716277332569e-08 1.6032993599424117e-08 0.00010943569941446185" pbc="T T T"
Pt       2.01313460       1.42350150       3.48685149       0.00000000       0.00000107      -0.00000146
Pt       6.03940431       4.27050314      10.46055450       0.00000018      -0.00000269      -0.00000479
Pd       0.00000009      -0.00000020       0.00000014       0.00000036       0.00000125       0.00000142
Br       2.01970239       1.42814555       6.97370368      -0.00194106      -0.00137260       0.00000030
Br       6.03283654       4.26585980       6.97370408       0.00194119       0.00137106       0.00000086
Br       5.02955294       1.42814527       5.23596582       0.00097087      -0.00137335      -0.00168067
Br       3.02298611       4.26585958       8.71144152      -0.00097163       0.00137462       0.00168400
Br       3.02298574       4.26585965       5.23596586      -0.00097051       0.00137101      -0.00168082
Br       5.02955276       1.42814593       8.71144153       0.00097071      -0.00137037       0.00168119
