9
Lattice="4.940234940486877 1.593239352915026e-09 2.852246135437929 1.6467450016037917 4.657698299480369 2.8522461009019158 -5.7309213802377435e-08 -8.28215562077212e-08 5.704492370138334" Properties=species:S:1:pos:R:3:forces:R:3 energy=-35.090415954589844 free_energy=-35.090415954589844 stress="4.848615935770795e-05 -1.1181038317431558e-08 8.360337488966252e-08 -1.1181038317431558e-08 4.8532820073887706e-05 -8.633809223113076e-09 8.360337488966252e-08 -8.633809223113076e-09 4.836078005610034e-05" pbc="T T T"
Pt       1.64674542       1.16442432       2.85225145       0.00000769      -0.00001285       0.00007751
Pt       4.94023458       3.49326937       8.55674561      -0.00000358      -0.00005025       0.00009889
P        0.00000020      -0.00000021       0.00000085       0.00000010      -0.00000410       0.00001360
S        1.76597612       1.24873501       5.70449183      -0.00011323      -0.00006390      -0.00001654
S        4.82100391       3.40896365       5.70448879       0.00011605       0.00006860      -0.00004194
S        4.05724695       1.24873773       4.38162327       0.00006077      -0.00002015      -0.00014345
S        2.52973322       3.40896703       7.02735516      -0.00005543       0.00011624       0.00005662
S        2.52973339       3.40896244       4.38162419      -0.00005534       0.00005228      -0.00012724
S        4.05724568       1.24873367       7.02735730       0.00004309      -0.00008611       0.00008251
