9
Lattice="4.095694455767688 -4.011384382472873e-08 2.3646503134674206 1.3652314311032763 3.861457998744945 2.3646503417568865 -4.121663943524557e-08 5.502801578852176e-09 4.729300698324156" Properties=species:S:1:pos:R:3:forces:R:3 energy=-39.07147979736328 free_energy=-39.07147979736328 stress="3.585858576116152e-05 3.859502442082885e-07 1.172370431845593e-07 3.859502442082885e-07 3.61955062544439e-05 4.187881472716981e-07 1.172370431845593e-07 4.187881472716981e-07 3.599728370318189e-05" pbc="T T T"
Pt       1.36523153       0.96536447       2.36465024       0.00001282       0.00001706       0.00001090
Pt       4.09569420       2.89609337       7.09395095       0.00002958       0.00001977       0.00002173
Pd       0.00000164       0.00000121       0.00000153      -0.00035951      -0.00028443      -0.00029120
O        1.46105306       1.03312072       4.72930069       0.00020397       0.00014216      -0.00001404
O        3.99987088       2.82833592       4.72930074       0.00023246       0.00015485      -0.00003104
O        3.36516773       1.03312085       3.62995974      -0.00007069       0.00005859       0.00008142
O        2.09575882       2.82833653       5.82864065      -0.00010097       0.00006568       0.00009274
O        2.09575824       2.82833700       3.62995992       0.00002396      -0.00007886       0.00006223
O        3.36516724       1.03312172       5.82864091       0.00002915      -0.00009513       0.00006557
