9
Lattice="4.596186899193394 -2.9479790260374685e-08 2.6536097116922193 1.5320622832526583 4.33332636162377 2.653609692093469 2.5712332595355994e-09 -2.218532230019609e-08 5.307219418930944" Properties=species:S:1:pos:R:3:forces:R:3 energy=-32.12384033203125 free_energy=-32.12384033203125 stress="0.000595995457842946 -2.4254275032831174e-08 2.0276081258430168e-08 -2.4254275032831174e-08 0.0005959814297966659 -4.8080486259038935e-09 2.0276081258430168e-08 -4.8080486259038935e-09 0.0005960653070360422" pbc="T T T"
Pt       1.53206262       1.08333191       2.65360972       0.00000146      -0.00000143       0.00000087
Pt       4.59618711       3.24999472       7.96082912      -0.00000079       0.00000196      -0.00000001
Pd      -0.00000003       0.00000014      -0.00000022       0.00000249      -0.00000766      -0.00000305
F        1.57650994       1.11476056       5.30721941      -0.00272748      -0.00192946      -0.00000021
F        4.55173919       3.21856564       5.30721951       0.00272882       0.00192988      -0.00000015
F        3.80793178       1.11476049       4.01890717       0.00136235      -0.00192645      -0.00235865
F        2.32031704       3.21856581       6.59553164      -0.00136442       0.00193065       0.00236478
F        2.32031709       3.21856553       4.01890715      -0.00136371       0.00192839      -0.00236347
F        3.80793203       1.11476050       6.59553183       0.00136112      -0.00192574       0.00235972
