9
Lattice="5.664875284474989 -4.8690781567390164e-08 3.2706174381286237 1.8882917470166583 5.340895890464585 3.2706173836883057 1.3460980730634797e-07 2.850803835530809e-08 6.541234643106209" Properties=species:S:1:pos:R:3:forces:R:3 energy=-23.65730857849121 free_energy=-23.65730857849121 stress="7.246618042699993e-05 4.97569985213886e-10 2.7286159109962682e-08 4.97569985213886e-10 7.237916724989191e-05 -1.1627299123517787e-09 2.7286159109962682e-08 -1.1627299123517787e-09 7.243452273542061e-05" pbc="T T T"
Pt       1.88829154       1.33522490       3.27061694       0.00000031       0.00000269       0.00000131
Pt       5.66487543       4.00567217       9.81185210      -0.00000046       0.00000056      -0.00000135
Pd       0.00000007       0.00000008      -0.00000041      -0.00000035      -0.00000301       0.00001172
Cl       1.89598154       1.34066116       6.54123494      -0.00115445      -0.00081483       0.00000141
Cl       5.65718594       4.00023425       6.54123514       0.00115514       0.00081456      -0.00000288
Cl       4.71688446       1.34066076       4.91258526       0.00057712      -0.00081459      -0.00099722
Cl       2.83628270       4.00023489       8.16988443      -0.00057516       0.00081003       0.00099415
Cl       2.83628217       4.00023414       4.91258531      -0.00057673       0.00081688      -0.00100133
Cl       4.71688484       1.34066106       8.16988423       0.00057448      -0.00081211       0.00099406
