9
Lattice="5.409627458925499 1.0235776194204486e-09 3.1232499239205436 1.8032091460606905 5.100245800472034 3.12324993756826 1.0157196294448613e-08 2.3897193655277854e-08 6.246499830248292" Properties=species:S:1:pos:R:3:forces:R:3 energy=-38.12317657470703 free_energy=-38.12317657470703 stress="-0.00010047841351479292 1.4989547381105695e-08 1.269645777401962e-10 1.4989547381105695e-08 -0.00010050155106000602 7.241951482939157e-10 1.269645777401962e-10 7.241951482939157e-10 -0.00010047369141830131" pbc="T T T"
Pt       1.80320844       1.27506079       3.12324997      -0.00000265      -0.00000235       0.00000071
Pt       5.40962730       3.82518407       9.36974968      -0.00000021      -0.00000072       0.00000056
Rh       0.00000002       0.00000006      -0.00000015       0.00000021      -0.00000080      -0.00000155
Se       2.03576657       1.43950450       6.24649965      -0.00085098      -0.00060207      -0.00000062
Se       5.17707002       3.66074166       6.24649969       0.00085130       0.00060219      -0.00000096
Se       4.39174456       1.43950428       4.88627574       0.00042644      -0.00060156      -0.00073576
Se       2.82109270       3.66074153       7.60672431      -0.00042434       0.00060198       0.00073761
Se       2.82109246       3.66074184       4.88627570      -0.00042574       0.00060359      -0.00073618
Se       4.39174439       1.43950453       7.60672418       0.00042585      -0.00060028       0.00073630
