9
Lattice="5.129913691277566 -6.458557351397054e-09 2.961757081415114 1.7099712446982445 4.8365290111483645 2.9617570461478273 1.6221179378753185e-08 -3.172330405160223e-08 5.923514134734313" Properties=species:S:1:pos:R:3:forces:R:3 energy=-39.372947692871094 free_energy=-39.372947692871094 stress="-8.51884251460433e-05 1.9021548780528974e-08 5.352274357051101e-08 1.9021548780528974e-08 -8.511723717674613e-05 -1.1198872051920716e-08 5.352274357051101e-08 -1.1198872051920716e-08 -8.520936535205692e-05" pbc="T T T"
Pt       1.70997095       1.20913217       2.96175710      -0.00000227      -0.00000001       0.00000062
Pt       5.12991353       3.62739699       8.88527092      -0.00000251       0.00000272      -0.00000132
Rh      -0.00000011      -0.00000003       0.00000005       0.00000123       0.00000134      -0.00000006
S        1.84146657       1.30211348       5.92351426      -0.00100785      -0.00071234      -0.00000054
S        4.99841846       3.53441550       5.92351425       0.00100738       0.00071114       0.00000110
S        4.20918046       1.30211334       4.55651398       0.00050202      -0.00071234      -0.00087184
S        2.63070468       3.53441555       7.29051430      -0.00050241       0.00071216       0.00087202
S        2.63070472       3.53441541       4.55651386      -0.00050095       0.00071210      -0.00087333
S        4.20918051       1.30211348       7.29051432       0.00050506      -0.00071502       0.00087303
