9
Lattice="5.382206984819649 -2.3466072895322937e-08 3.10741862401712 1.7940689840468054 5.074393385299713 3.1074186045645362 2.2696901196363413e-08 -7.775323890928596e-09 6.214837208722053" Properties=species:S:1:pos:R:3:forces:R:3 energy=-39.486045837402344 free_energy=-39.486045837402344 stress="0.00042996491538360715 -9.43920852591873e-09 -2.943663757193349e-09 -9.43920852591873e-09 0.00043000851292163134 3.7078347503438636e-08 -2.943663757193349e-09 3.7078347503438636e-08 0.00043002425809390843" pbc="T T T"
Pt       1.79406867       1.26859871       3.10741856      -0.00000238       0.00000077      -0.00000141
Pt       5.38220673       3.80579512       9.32225591      -0.00000048       0.00000089       0.00000144
Ru       0.00000009      -0.00000004      -0.00000003       0.00000023      -0.00000029      -0.00000118
Se       2.00102791       1.41494019       6.21483735       0.00264451       0.00186929       0.00000012
Se       5.17524805       3.65945303       6.21483724      -0.00264090      -0.00186840      -0.00000114
Se       4.38169318       1.41494025       4.84035952      -0.00132032       0.00186780       0.00228789
Se       2.79458320       3.65945282       7.58931504       0.00131886      -0.00186661      -0.00228611
Se       2.79458296       3.65945300       4.84035939       0.00132169      -0.00187029       0.00228867
Se       4.38169318       1.41494038       7.58931474      -0.00132103       0.00186695      -0.00228846
