9
Lattice="5.083324574012201 -9.165699873044547e-09 2.9348587388264646 1.6944415192593416 4.792604297399536 2.9348587332317586 -9.020183910025143e-09 -1.3230331292611856e-08 5.869717493276347" Properties=species:S:1:pos:R:3:forces:R:3 energy=-41.635841369628906 free_energy=-41.635841369628906 stress="-3.352597195771523e-05 -3.3539137689331255e-08 5.444983575131346e-09 -3.3539137689331255e-08 -3.3515480026835576e-05 -1.7201919888520933e-08 5.444983575131346e-09 -1.7201919888520933e-08 -3.3489512134110555e-05" pbc="T T T"
Pt       1.69444175       1.19815124       2.93485887       0.00000199       0.00000130       0.00000091
Pt       5.08332467       3.59445336       8.80457660       0.00000039       0.00000063       0.00000370
Ru      -0.00000000      -0.00000005      -0.00000016      -0.00000043      -0.00000187      -0.00000380
S        1.82247275       1.28868285       5.86971754      -0.00030059      -0.00021285      -0.00000030
S        4.95529325       3.50392148       5.86971742       0.00030208       0.00021452      -0.00000034
S        4.17208806       1.28868287       4.51316638       0.00014994      -0.00021237      -0.00026160
S        2.60567783       3.50392135       7.22626843      -0.00015482       0.00021589       0.00026488
S        2.60567788       3.50392131       4.51316631      -0.00015119       0.00021255      -0.00026464
S        4.17208810       1.28868272       7.22626838       0.00015253      -0.00021726       0.00026149
