9
Lattice="4.679883498693812 -1.202231402484009e-08 2.7019317538195673 1.559961191499797 4.41223615293621 2.701931690420863 1.1890992118566601e-07 6.434741104668531e-09 5.403863301681156" Properties=species:S:1:pos:R:3:forces:R:3 energy=-45.01035690307617 free_energy=-45.01035690307617 stress="0.00042903845314867795 2.6379109385743504e-07 -2.8949282082635364e-08 2.6379109385743504e-07 0.0004290497163310647 -4.841027489987937e-08 -2.8949282082635364e-08 -4.841027489987937e-08 0.0004295998369343579" pbc="T T T"
Pt       1.55996017       1.10305703       2.70193344      -0.00003191      -0.00004693       0.00004206
Pt       4.67987538       3.30917167       8.10579895      -0.00015671      -0.00010330       0.00007697
Ru      -0.00000188      -0.00000154       0.00000172      -0.00003834      -0.00003314       0.00002534
O        1.53890946       1.08817103       5.40386208      -0.00422716      -0.00301075      -0.00002663
O        4.70093507       3.32406674       5.40385963       0.00423157       0.00303560      -0.00005510
O        3.91043058       1.08817649       4.03466244       0.00215238      -0.00292546      -0.00372142
O        2.32941736       3.32406293       6.77306343      -0.00207239       0.00301105       0.00369388
O        2.32941860       3.32406480       4.03466410      -0.00205162       0.00302249      -0.00370508
O        3.91043457       1.08817541       6.77306104       0.00219387      -0.00294930       0.00366938
