9
Lattice="6.465903360334695 -6.064515073315391e-08 3.73309092726271 2.1553010843667364 6.096111974946762 3.733090890141376 2.6571350603227006e-08 -2.6675354279579797e-08 7.466181808502487" Properties=species:S:1:pos:R:3:forces:R:3 energy=-16.965953826904297 free_energy=-16.965953826904297 stress="-4.058975900989026e-05 2.105355223491756e-09 8.771032788956745e-09 2.105355223491756e-09 -4.0561531932326034e-05 7.348484043490089e-09 8.771032788956745e-09 7.348484043490089e-09 -4.0574301237938926e-05" pbc="T T T"
Pt       2.15530059       1.52402750       3.73309126      -0.00000211      -0.00000248       0.00000151
Pt       6.46590326       4.57208358      11.19927284      -0.00000009      -0.00000186       0.00000166
S        0.00000006      -0.00000027      -0.00000014      -0.00000058       0.00000125       0.00000153
I        2.31241409       1.63512385       7.46618174      -0.00195101      -0.00137892      -0.00000038
I        6.30879102       4.46098874       7.46618181       0.00195178       0.00138046      -0.00000186
I        5.30969635       1.63512357       5.73570037       0.00097631      -0.00137922      -0.00169003
I        3.31150808       4.46098858       9.19666307      -0.00097531       0.00138023       0.00168848
I        3.31150806       4.46098833       5.73570023      -0.00097562       0.00138021      -0.00169116
I        5.30969640       1.63512368       9.19666330       0.00097665      -0.00137968       0.00169009
