9
Lattice="4.664245791730474 2.23444477870639e-09 2.6929034856123577 1.5547486037607918 4.3974928364118275 2.6929034779729037 1.7201010915343113e-08 2.8065659333193877e-09 5.385806941431674" Properties=species:S:1:pos:R:3:forces:R:3 energy=-35.84992980957031 free_energy=-35.84992980957031 stress="0.0004937913035973907 4.013692489479581e-09 5.3406981059822556e-09 4.013692489479581e-09 0.000493784318678081 1.7916291783492966e-09 5.3406981059822556e-09 1.7916291783492966e-09 0.0004937701160088181" pbc="T T T"
Pt       1.55474871       1.09937316       2.69290335      -0.00000027      -0.00000007      -0.00000072
Pt       4.66424575       3.29811968       8.07871055      -0.00000092       0.00000022      -0.00000011
Sn       0.00000002      -0.00000008       0.00000021       0.00000653       0.00000511       0.00000051
F        1.62355613       1.14802750       5.38580692      -0.00447509      -0.00316427       0.00000007
F        4.59543827       3.24946549       5.38580689       0.00446692       0.00315832      -0.00000018
F        3.85246783       1.14802739       4.09894413       0.00223570      -0.00316075      -0.00387113
F        2.36652664       3.24946556       6.67266972      -0.00223488       0.00316110       0.00387122
F        2.36652668       3.24946529       4.09894419      -0.00223462       0.00316216      -0.00387181
F        3.85246764       1.14802742       6.67266969       0.00223650      -0.00316168       0.00387225
