9
Lattice="6.582524485702391 -6.046246298769359e-08 3.8004223290425765 2.1941747563486613 6.206063656738564 3.8004223553944154 6.688774778069693e-09 3.7003928222722935e-08 7.600844646499842" Properties=species:S:1:pos:R:3:forces:R:3 energy=-16.98140525817871 free_energy=-16.98140525817871 stress="-3.5927518183598295e-05 -5.1839346149051835e-09 6.5671215132567795e-09 -5.1839346149051835e-09 -3.594746522139758e-05 -6.185671530545278e-09 6.5671215132567795e-09 -6.185671530545278e-09 -3.593359360820614e-05" pbc="T T T"
Pt       2.19417475       1.55151587       3.80042219      -0.00000021      -0.00000051      -0.00000010
Pt       6.58252442       4.65454754      11.40126698      -0.00000010      -0.00000064       0.00000048
Se      -0.00000017      -0.00000002       0.00000033      -0.00000014       0.00000004      -0.00000011
I        2.33916303       1.65403807       7.60084469      -0.00471604      -0.00333460       0.00000045
I        6.43753632       4.55202557       7.60084459       0.00471589       0.00333475      -0.00000069
I        5.41294305       1.65403802       5.82619686       0.00235765      -0.00333424      -0.00408417
I        3.36375632       4.55202561       9.37549232      -0.00235774       0.00333497       0.00408429
I        3.36375636       4.55202570       5.82619702      -0.00235740       0.00333473      -0.00408398
I        5.41294293       1.65403820       9.37549232       0.00235803      -0.00333443       0.00408381
