9
Lattice="5.133083552684879 9.977505437796482e-09 2.9635871322515714 1.7110278675878934 4.839517515264989 2.963587119631775 4.127035887486579e-08 1.3726527245098103e-08 5.927174193020787" Properties=species:S:1:pos:R:3:forces:R:3 energy=-32.095008850097656 free_energy=-32.095008850097656 stress="1.8669554719963344e-06 3.436660067634989e-09 3.204138110390886e-08 3.436660067634989e-09 1.822046783672704e-06 -1.0263066840821011e-08 3.204138110390886e-08 -1.0263066840821011e-08 1.8745394072539057e-06" pbc="T T T"
Pt       1.71102827       1.20987912       2.96358657       0.00000159       0.00000039      -0.00000774
Pt       5.13308369       3.62963831       8.89076074       0.00000252       0.00000066      -0.00000658
Se      -0.00000000       0.00000022      -0.00000005       0.00000569      -0.00001005       0.00000151
S        1.73951110       1.23002006       5.92717451      -0.00265503      -0.00187767       0.00000281
S        5.10460031       3.60949730       5.92717447       0.00265798       0.00187796       0.00000391
S        4.26332794       1.23002007       4.47004793       0.00132702      -0.00187814      -0.00229558
S        2.58078343       3.60949735       7.38430062      -0.00132923       0.00187793       0.00230390
S        2.58078331       3.60949751       4.47004832      -0.00133398       0.00188527      -0.00230306
S        4.26332780       1.23002025       7.38430063       0.00132339      -0.00187638       0.00230092
