9
Lattice="5.613536588061242 -6.975744801928807e-08 3.240976849037473 1.8711787718067838 5.2924932371683 3.2409768925333218 -5.8752752375992867e-08 1.1726850352176472e-08 6.481953799837711" Properties=species:S:1:pos:R:3:forces:R:3 energy=-21.98164939880371 free_energy=-21.98164939880371 stress="-1.3242851309769321e-05 -3.2300646601868266e-09 -2.6291056443028538e-08 -3.2300646601868266e-09 -1.3302625120559242e-05 8.777163884587935e-09 -2.6291056443028538e-08 8.777163884587935e-09 -1.3250729352876078e-05" pbc="T T T"
Pt       1.87117889       1.32312296       3.24097696      -0.00000137      -0.00000073       0.00000061
Pt       5.61353632       3.96936972       9.72293097       0.00000031      -0.00000040      -0.00000062
S        0.00000017      -0.00000005       0.00000039      -0.00000171       0.00000010      -0.00000539
Cl       1.86716586       1.32028562       6.48195367       0.00129640       0.00091759      -0.00000042
Cl       5.61754951       3.97220778       6.48195360      -0.00129598      -0.00091589      -0.00000086
Cl       4.67995329       1.32028600       4.85798998      -0.00064683       0.00091581       0.00112210
Cl       2.80476212       3.97220725       8.10591722       0.00064545      -0.00091346      -0.00111929
Cl       2.80476177       3.97220741       4.85798993       0.00064819      -0.00091539       0.00112260
Cl       4.67995331       1.32028605       8.10591739      -0.00064458       0.00091250      -0.00111876
