9
Lattice="5.408457038887788 -2.7943834494478054e-08 3.1225739628552476 1.8028189741925313 5.099141640899901 3.122573984374825 6.001882724510571e-08 6.879575820178894e-08 6.245147821754839" Properties=species:S:1:pos:R:3:forces:R:3 energy=-35.016845703125 free_energy=-35.016845703125 stress="7.36242436687462e-05 -1.077745093169824e-08 -8.917210081449412e-09 -1.077745093169824e-08 7.359148730756715e-05 -8.210894186788664e-09 -8.917210081449412e-09 -8.210894186788664e-09 7.360566087299958e-05" pbc="T T T"
Pt       1.80281859       1.27478187       3.12257534      -0.00000262      -0.00001901       0.00000841
Pt       5.40845652       3.82435437       9.36772459      -0.00000301      -0.00000942       0.00001325
Si       0.00000030       0.00000052       0.00000015      -0.00000153       0.00000044      -0.00000160
Se       2.04893760       1.44881777       6.24514763       0.00036612       0.00026171      -0.00000231
Se       5.16233778       3.65032627       6.24514680      -0.00036933      -0.00025275      -0.00000454
Se       4.38398874       1.44881814       4.89700514      -0.00018065       0.00026409       0.00031249
Se       2.82728766       3.65032521       7.59328941       0.00018447      -0.00025322      -0.00032079
Se       2.82728810       3.65032490       4.89700515       0.00018537      -0.00025541       0.00031531
Se       4.38398912       1.44881768       7.59328886      -0.00017876       0.00026359      -0.00032015
