9
Lattice="5.993444895685346 -2.1652041569985513e-07 3.4603167030889925 1.9978146638901086 5.650674012925001 3.4603168714458854 -3.082456379750793e-07 -1.1768283175664605e-08 6.92063394007503" Properties=species:S:1:pos:R:3:forces:R:3 energy=-18.701934814453125 free_energy=-18.701934814453125 stress="7.83598588895984e-05 2.5129708092208602e-08 2.06688444137626e-08 2.5129708092208602e-08 7.831527182133868e-05 -4.2980776271406285e-08 2.06688444137626e-08 -4.2980776271406285e-08 7.837465091142803e-05" pbc="T T T"
Pt       1.99781409       1.41266864       3.46031600      -0.00000359       0.00000050      -0.00000478
Pt       5.99344513       4.23800553      10.38095157       0.00000220       0.00000102       0.00000500
S        0.00000000      -0.00000024      -0.00000008       0.00000134      -0.00000037      -0.00000049
Br       2.00921173       1.42072711       6.92063371      -0.00098940      -0.00070008       0.00000142
Br       5.98204747       4.22994656       6.92063314       0.00099109       0.00069785      -0.00000352
Br       4.98883885       1.42072710       5.20034578       0.00049684      -0.00070139      -0.00085833
Br       3.00242042       4.22994606       8.64092204      -0.00049698       0.00070239       0.00085959
Br       3.00242073       4.22994714       5.20034540      -0.00049503       0.00070075      -0.00085530
Br       4.98883863       1.42072730       8.64092248       0.00049365      -0.00070053       0.00085647
