9
Lattice="3.7713616034511435 7.541433748896039e-06 2.177428086804071 1.2572579377894124 3.5554859667148597 2.1772023953629054 0.00013735393959219672 -0.00017927078334928383 4.354618249129958" Properties=species:S:1:pos:R:3:forces:R:3 energy=-51.62849044799805 free_energy=-51.62849044799805 stress="-7.274284871527925e-05 0.00015647956752218306 0.0001626372686587274 0.00015647956752218306 -0.0001840114564402029 -0.00017014698823913932 0.0001626372686587274 -0.00017014698823913932 -5.5016342230373994e-05" pbc="T T T"
Pt       1.25721392       0.88884350       2.17735026      -0.00221656      -0.00164255      -0.00431397
Pt       3.77157280       2.66648719       6.53196647      -0.00127423      -0.00122167      -0.00367433
Si       0.00001163      -0.00000682       0.00000394      -0.00075991       0.00020280      -0.00024973
O        1.31844317       0.93199942       4.35463167       0.00114480       0.00045133       0.00151351
O        3.71031748       2.62331025       4.35463215      -0.00009626      -0.00061703       0.00121166
O        3.11227649       0.93210387       3.31904627       0.00075912       0.00106907       0.00239584
O        1.91649567       2.62319535       5.39020147       0.00093412       0.00017872       0.00128406
O        1.91640882       2.62331703       3.31891195       0.00109249       0.00040311       0.00155228
O        3.11235290       0.93199680       5.39034765       0.00041828       0.00117603       0.00027627
