9
Lattice="6.060519576482013 -4.136989178594818e-08 3.499042613588591 2.020173158631585 5.713912771669905 3.499042604105811 -6.004472519673534e-09 -1.5859696559504212e-08 6.998085237577268" Properties=species:S:1:pos:R:3:forces:R:3 energy=-21.960071563720703 free_energy=-21.960071563720703 stress="8.905203867470846e-05 -1.2462002096924607e-08 -9.631843100876836e-10 -1.2462002096924607e-08 8.908036397770047e-05 1.5508570427869017e-08 -9.631843100876836e-10 1.5508570427869017e-08 8.908265590434894e-05" pbc="T T T"
Pt       2.02017315       1.42847868       3.49904277      -0.00000021       0.00000262      -0.00000061
Pt       6.06051958       4.28543449      10.49712774       0.00000028       0.00000035      -0.00000004
Sn      -0.00000012      -0.00000018       0.00000011      -0.00000122       0.00000046       0.00000169
Br       2.07693172       1.46861258       6.99808539      -0.00342198      -0.00242022       0.00000016
Br       6.00376085       4.24530001       6.99808509       0.00342315       0.00242043       0.00000014
Br       5.02205381       1.46861263       5.29771838       0.00171258      -0.00242355      -0.00296618
Br       3.05863913       4.24529997       8.69845205      -0.00171175       0.00242090       0.00296493
Br       3.05863912       4.24530002       5.29771813      -0.00171226       0.00242008      -0.00296444
Br       5.02205371       1.46861262       8.69845218       0.00171143      -0.00242110       0.00296435
