9
Lattice="6.637494890260459 8.056099964189479e-08 3.832159468704987 2.212498390532181 6.257890108641303 3.8321594378310966 4.795667952781537e-08 -3.9021527545953745e-09 7.6643188543465435" Properties=species:S:1:pos:R:3:forces:R:3 energy=-18.824405670166016 free_energy=-18.824405670166016 stress="0.00020799324556719512 1.5107078255027773e-08 -3.5456451108473175e-09 1.5107078255027773e-08 0.0002079735422739759 3.1213160944787433e-09 -3.5456451108473175e-09 3.1213160944787433e-09 0.00020797111210413277" pbc="T T T"
Pt       2.21249841       1.56447259       3.83215945      -0.00000016       0.00000031       0.00000023
Pt       6.63749500       4.69341785      11.49647827      -0.00000012       0.00000093      -0.00000036
Sn       0.00000010       0.00000007      -0.00000007      -0.00000110      -0.00000223      -0.00000365
I        2.34183443       1.65592685       7.66431890      -0.00581490      -0.00411116       0.00000025
I        6.50815896       4.60196324       7.66431890       0.00581457       0.00411177      -0.00000032
I        5.46657783       1.65592667       5.86024732       0.00290737      -0.00411011      -0.00503376
I        3.38341542       4.60196334       9.46839053      -0.00290690       0.00411098       0.00503545
I        3.38341534       4.60196340       5.86024737      -0.00290614       0.00411045      -0.00503334
I        5.46657781       1.65592674       9.46839038       0.00290748      -0.00411098       0.00503552
