9
Lattice="4.322698851081292 7.847852846783319e-08 2.4957112780175525 1.4408997067400744 4.075479427060263 2.4957112507850527 1.3776454448193732e-07 6.406133646286753e-08 4.99142231741992" Properties=species:S:1:pos:R:3:forces:R:3 energy=-41.89848327636719 free_energy=-41.89848327636719 stress="5.1048333261860535e-05 4.574938827772712e-08 -3.7152073417701104e-08 4.574938827772712e-08 5.067514575785026e-05 6.899094184831256e-09 -3.7152073417701104e-08 6.899094184831256e-09 5.0801729230443016e-05" pbc="T T T"
Pt       1.44089958       1.01887122       2.49571379       0.00000356       0.00002466       0.00005377
Pt       4.32270023       3.05661011       7.48713813       0.00001639       0.00001245       0.00008423
S       -0.00000001       0.00000028       0.00000048       0.00000315       0.00000080       0.00002090
O        1.36451612       0.96485902       4.99142116      -0.00525975      -0.00371408      -0.00002528
O        4.39908276       3.11062005       4.99142066       0.00525725       0.00370497      -0.00004022
O        3.64044054       0.96485850       3.67741645       0.00262338      -0.00371909      -0.00456381
O        2.12315692       3.11062130       6.30542620      -0.00264114       0.00371671       0.00451934
O        2.12315833       3.11061974       3.67741533      -0.00262141       0.00369895      -0.00457644
O        3.64044045       0.96485842       6.30542723       0.00261825      -0.00372577       0.00452876
