9
Lattice="6.078110050429091 -1.260399933018412e-07 3.509198603043339 2.0260366101622895 5.730497205779246 3.509198524204557 7.794230025446009e-09 -9.104601494342357e-08 7.018397192586597" Properties=species:S:1:pos:R:3:forces:R:3 energy=-18.74690055847168 free_energy=-18.74690055847168 stress="0.00011582257138798013 -5.639056777084761e-09 1.933424442768228e-08 -5.639056777084761e-09 0.00011581641592783853 -9.1255785150679e-09 1.933424442768228e-08 -9.1255785150679e-09 0.00011584071035031229" pbc="T T T"
Pt       2.02603720       1.43262421       3.50919850       0.00000187      -0.00000080      -0.00000072
Pt       6.07810939       4.29787260      10.52759613      -0.00000225      -0.00000042       0.00000203
Se       0.00000002       0.00000017       0.00000061       0.00000097      -0.00000137      -0.00000311
Br       2.05701118       1.45452648       7.01839745      -0.00360744      -0.00255144      -0.00000045
Br       6.04713528       4.27597074       7.01839697       0.00360824       0.00255066      -0.00000133
Br       5.04960474       1.45452628       5.29062223       0.00180296      -0.00254838      -0.00312376
Br       3.05454251       4.27597037       8.74617101      -0.00180489       0.00255263       0.00312768
Br       3.05454245       4.27597039       5.29062299      -0.00180431       0.00255211      -0.00312807
Br       5.04960390       1.45452669       8.74617139       0.00180493      -0.00255305       0.00312784
