9
Lattice="4.431078872991636 4.483520802951657e-08 2.5582845490590684 1.4770263380964808 4.177661207587148 2.5582845406963313 3.481704788545694e-08 1.4377152154375527e-08 5.116569037813235" Properties=species:S:1:pos:R:3:forces:R:3 energy=-32.275474548339844 free_energy=-32.275474548339844 stress="2.378562930971384e-05 -3.7486875825720745e-09 3.7174512357296408e-09 -3.7486875825720745e-09 2.37750919040991e-05 -5.337307840136418e-08 3.7174512357296408e-09 -5.337307840136418e-08 2.3861965019023046e-05" pbc="T T T"
Pt       1.47702627       1.04441542       2.55828462      -0.00000036      -0.00000257      -0.00000102
Pt       4.43107883       3.13324556       7.67485368      -0.00000034      -0.00000116       0.00000081
S       -0.00000028      -0.00000033       0.00000018       0.00000377       0.00000040       0.00000131
F        1.56870470       1.10924188       5.11656887      -0.00148062      -0.00104569      -0.00000040
F        4.33940065       3.06841965       5.11656908       0.00147970       0.00104632       0.00000045
F        3.64672656       1.10924188       3.91682231       0.00073894      -0.00104652      -0.00128277
F        2.26137877       3.06841965       6.31631570      -0.00074035       0.00104831       0.00128253
F        2.26137882       3.06841961       3.91682250      -0.00074051       0.00104758      -0.00128242
F        3.64672665       1.10924172       6.31631567       0.00073985      -0.00104653       0.00128166
