9
Lattice="5.625703793737514 4.8675954731753686e-08 3.2480015083039735 1.8752346196605392 5.303964409369025 3.248001550122727 -2.801719773831429e-08 3.1406167018798586e-08 6.4960030651351754" Properties=species:S:1:pos:R:3:forces:R:3 energy=-22.260265350341797 free_energy=-22.260265350341797 stress="-0.00016754280659370124 2.1236376213096264e-08 7.029243298539711e-10 2.1236376213096264e-08 -0.00016753433737903833 -1.123837201078004e-08 7.029243298539711e-10 -1.123837201078004e-08 -0.00016755795513745397" pbc="T T T"
Pt       1.87523429       1.32599083       3.24800133      -0.00000122      -0.00000234      -0.00000056
Pt       5.62570371       3.97797312       9.74400421       0.00000163      -0.00000052      -0.00000097
Se       0.00000011      -0.00000041      -0.00000062      -0.00000011       0.00000790       0.00000966
Cl       1.90670050       1.34824080       6.49600304       0.00327821       0.00231938       0.00000080
Cl       5.59423822       3.95572410       6.49600322      -0.00328316      -0.00232206       0.00000152
Cl       4.67235366       1.34824073       4.89925236      -0.00163851       0.00231928       0.00283979
Cl       2.82858463       3.95572424       8.09275451       0.00164286      -0.00232390      -0.00284681
Cl       2.82858468       3.95572399       4.89925235       0.00164139      -0.00232019       0.00284139
Cl       4.67235373       1.34824061       8.09275413      -0.00164118       0.00232244      -0.00284488
