9
Lattice="4.470101543527664 1.9224262279283484e-07 2.5808143951627396 1.4900340697815766 4.214453044705727 2.5808143246839785 1.8689910473061946e-07 4.58391481413913e-08 5.1616284666067145" Properties=species:S:1:pos:R:3:forces:R:3 energy=-38.83763885498047 free_energy=-38.83763885498047 stress="-8.063230779953301e-05 -3.422888283921566e-08 -9.452458726855184e-08 -3.422888283921566e-08 -8.211811655201018e-05 -1.223791485926995e-07 -9.452458726855184e-08 -1.223791485926995e-07 -8.070179319474846e-05" pbc="T T T"
Pt       1.49002513       1.05362674       2.58080876      -0.00019914       0.00025879      -0.00011844
Pt       4.47009264       3.16084028       7.74243857      -0.00020435       0.00006027      -0.00009738
Se      -0.00000283       0.00000308      -0.00000182      -0.00006720       0.00004942      -0.00003426
O        1.48665171       1.05121464       5.16163129       0.00016069      -0.00002056       0.00005650
O        4.47349262       3.16322858       5.16163104       0.00000930      -0.00017679       0.00005087
O        3.72678231       1.05121883       3.86829049       0.00005686       0.00003666       0.00013208
O        2.23336028       3.16323005       6.45497216       0.00011212      -0.00015020       0.00001061
O        2.23336005       3.16323163       3.86828820       0.00009817      -0.00011510       0.00006235
O        3.72678167       1.05121970       6.45496932       0.00003403       0.00005794      -0.00006187
