9
Lattice="4.60404141697669 6.109549143980774e-08 2.658144522033086 1.534680497384339 4.340732164244314 2.6581445783985242 -8.071108287069327e-08 1.1961934046510206e-08 5.316289183861824" Properties=species:S:1:pos:R:3:forces:R:3 energy=-41.38856506347656 free_energy=-41.38856506347656 stress="0.0005211855168454349 -6.923053774698928e-08 1.9941518303312478e-07 -6.923053774698928e-08 0.0005209583905525506 -7.240241473027709e-08 1.9941518303312478e-07 -7.240241473027709e-08 0.000521174690220505" pbc="T T T"
Pt       1.53468048       1.08518426       2.65814514       0.00000289       0.00001488       0.00000903
Pt       4.60404192       3.25554866       7.97443265       0.00000720      -0.00000380      -0.00001392
Sc      -0.00000003      -0.00000006       0.00000011      -0.00000158       0.00000245       0.00000169
F        1.58548044       1.12110427       5.31628901      -0.00351515      -0.00248392      -0.00000159
F        4.55324131       3.21962783       5.31628958       0.00351427       0.00248313       0.00000457
F        3.81130093       1.12110420       4.03121097       0.00175315      -0.00248602      -0.00304432
F        2.32742065       3.21962780       6.60136730      -0.00175673       0.00247832       0.00304382
F        2.32742049       3.21962773       4.03121108      -0.00176313       0.00247802      -0.00304294
F        3.81130111       1.12110430       6.60136716       0.00175890      -0.00248307       0.00304398
