9
Lattice="4.972837803959958 -2.420213855408984e-08 2.8710692030389784 1.6576126009795211 4.688436631881764 2.8710691641067525 1.3941725664389584e-08 -3.782374530302384e-08 5.742138381930176" Properties=species:S:1:pos:R:3:forces:R:3 energy=-36.55718231201172 free_energy=-36.55718231201172 stress="-0.0006609802367165685 -1.1492028662019038e-08 -2.4787912167312243e-08 -1.1492028662019038e-08 -0.0006609483389183879 1.3263142584207799e-08 -2.4787912167312243e-08 1.3263142584207799e-08 -0.0006608894327655435" pbc="T T T"
Pt       1.65761283       1.17210898       2.87106889       0.00000284      -0.00000172       0.00000025
Pt       4.97283860       3.51632751       8.61320832       0.00000478       0.00000200       0.00000857
Si       0.00000005      -0.00000005       0.00000020      -0.00000156      -0.00000252       0.00000072
S        1.77054991       1.25196820       5.74213807       0.00435024       0.00307760      -0.00000330
S        4.85990020       3.43646847       5.74213761      -0.00434733      -0.00307485      -0.00000529
S        4.08756266       1.25196778       4.40441075      -0.00217625       0.00307097       0.00376821
S        2.54288709       3.43646855       7.07986605       0.00217183      -0.00307839      -0.00376684
S        2.54288788       3.43646890       4.40441074       0.00217401      -0.00307086       0.00376591
S        4.08756244       1.25196793       7.07986627      -0.00217838       0.00307770      -0.00376819
