9
Lattice="6.133456064482081 2.4085714472089353e-08 3.5411524441683753 2.044485360503734 5.782677920138443 3.5411524736684052 -1.7712153881050686e-08 2.3605659951301575e-08 7.08230491901508" Properties=species:S:1:pos:R:3:forces:R:3 energy=-27.068561553955078 free_energy=-27.068561553955078 stress="7.42438860470429e-05 -5.41558975442058e-09 -3.5713501045364637e-09 -5.41558975442058e-09 7.425822695950046e-05 1.3815705024455838e-08 -3.5713501045364637e-09 1.3815705024455838e-08 7.426048978231847e-05" pbc="T T T"
Pt       2.04448669       1.44566913       3.54115356       0.00000542      -0.00000250       0.00000570
Pt       6.13345608       4.33700820      10.62345873       0.00000126      -0.00000285       0.00000639
Sc      -0.00000027       0.00000014      -0.00000038       0.00000230      -0.00000092       0.00000049
Br       2.10512388       1.48854744       7.08230438      -0.00042631      -0.00030092      -0.00000273
Br       6.07281708       4.29413057       7.08230464       0.00042600       0.00030366      -0.00000335
Br       5.08089384       1.48854786       5.36424325       0.00021175      -0.00030087      -0.00037250
Br       3.09704714       4.29413023       8.80036585      -0.00021758       0.00030473       0.00037151
Br       3.09704722       4.29413046       5.36424299      -0.00021475       0.00030207      -0.00037365
Br       5.08089396       1.48854785       8.80036634       0.00021198      -0.00030236       0.00036824
