9
Lattice="6.073838936253484 -2.3635752771900686e-08 3.5067323429361794 2.024612929663595 5.726470249395974 3.5067323893613245 -7.617056589156319e-08 2.9982712086297476e-09 7.013464817803588" Properties=species:S:1:pos:R:3:forces:R:3 energy=-27.87147331237793 free_energy=-27.87147331237793 stress="0.00021721445955336094 3.714512430974537e-08 1.077653610792595e-08 3.714512430974537e-08 0.00021718746575061232 7.52909379286848e-09 1.077653610792595e-08 7.52909379286848e-09 0.00021719523647334427" pbc="T T T"
Pt       2.02461257       1.43161714       3.50673175      -0.00000119      -0.00000205      -0.00000171
Pt       6.07383921       4.29485258      10.52019780       0.00000165      -0.00000003       0.00000254
Ti      -0.00000007       0.00000018      -0.00000044      -0.00000012       0.00000024       0.00000530
Br       2.01965309       1.42811058       7.01346509      -0.00471827      -0.00333573       0.00000062
Br       6.07879870       4.29835975       7.01346460       0.00471708       0.00333667      -0.00000139
Br       5.06401244       1.42811022       5.25580314       0.00235944      -0.00333542      -0.00408474
Br       3.03443917       4.29836035       8.77112648      -0.00235731       0.00333430       0.00408126
Br       3.03443936       4.29836012       5.25580300      -0.00235794       0.00333612      -0.00408430
Br       5.06401270       1.42811001       8.77112680       0.00235658      -0.00333405       0.00408242
