9
Lattice="5.052087316749404 3.557601834065899e-08 2.9168238945763107 1.684029115747421 4.763153685827036 2.9168239350666645 -3.878222736273649e-08 2.2167149614308604e-08 5.833647856325423" Properties=species:S:1:pos:R:3:forces:R:3 energy=-40.34614562988281 free_energy=-40.34614562988281 stress="6.309515447355807e-05 6.140194130921373e-08 -3.886529142960171e-08 6.140194130921373e-08 6.297450454439968e-05 -1.2859969089618062e-08 -3.886529142960171e-08 -1.2859969089618062e-08 6.304728594841436e-05" pbc="T T T"
Pt       1.68402794       1.19078820       2.91682425      -0.00001320      -0.00000139       0.00000443
Pt       5.05208692       3.57236572       8.75047132      -0.00000622       0.00000415      -0.00000673
Ti      -0.00000011      -0.00000010       0.00000001       0.00000147       0.00000302       0.00000111
S        1.82413162       1.28985557       5.83364780       0.00062680       0.00044119      -0.00000015
S        4.91198515       3.47329803       5.83364798      -0.00062382      -0.00043964       0.00000212
S        4.14002197       1.28985536       4.49656834      -0.00031148       0.00044125       0.00054276
S        2.59609476       3.47329814       7.17072771       0.00031601      -0.00044602      -0.00054607
S        2.59609494       3.47329813       4.49656785       0.00031763      -0.00044551       0.00054583
S        4.14002237       1.28985597       7.17072748      -0.00030698       0.00044295      -0.00054350
