9
Lattice="5.4040393642203695 4.064514189040438e-08 3.120023591274235 1.8013464822513114 5.094977093713054 3.1200236099966836 -6.788883687454147e-08 -2.5074414397987215e-08 6.24004730013538" Properties=species:S:1:pos:R:3:forces:R:3 energy=-38.600711822509766 free_energy=-38.600711822509766 stress="-0.00016485757078044116 1.336268429241727e-08 -1.887394240895901e-08 1.336268429241727e-08 -0.0001646739401621744 -3.847830498671101e-08 -1.887394240895901e-08 -3.847830498671101e-08 -0.00016483082436025143" pbc="T T T"
Pt       1.80134624       1.27374528       3.12002421      -0.00000285       0.00000619       0.00000638
Pt       5.40403954       3.82123202       9.36007165       0.00000087      -0.00000578       0.00000391
Ti      -0.00000012      -0.00000011      -0.00000024      -0.00000072      -0.00000003       0.00000120
Se       2.00304539       1.41636730       6.24004661       0.00035569       0.00025395      -0.00000362
Se       5.20234047       3.67860982       6.24004672      -0.00035447      -0.00025275      -0.00000261
Se       4.40251678       1.41636706       4.85471217      -0.00017636       0.00025094       0.00030515
Se       2.80286906       3.67860998       7.62538259       0.00017759      -0.00025240      -0.00030929
Se       2.80286904       3.67860983       4.85471193       0.00017665      -0.00025335       0.00030556
Se       4.40251670       1.41636724       7.62538236      -0.00017641       0.00025320      -0.00030646
