9
Lattice="6.551630864698616 2.4712956450616547e-07 3.782585626979724 2.1838771322116295 6.176936722191535 3.782585723427113 -6.479686989023493e-08 7.230511550600349e-08 7.565171366190989" Properties=species:S:1:pos:R:3:forces:R:3 energy=-24.964975357055664 free_energy=-24.964975357055664 stress="1.584980964253191e-06 2.050934355679601e-08 -5.457688523335946e-09 2.050934355679601e-08 1.5775310657772934e-06 1.065746779715937e-08 -5.457688523335946e-09 1.065746779715937e-08 1.568697143738973e-06" pbc="T T T"
Pt       2.18387669       1.54423405       3.78258563      -0.00000019      -0.00000136       0.00000007
Pt       6.55163101       4.63270261      11.34775760      -0.00000026       0.00000013       0.00000132
Ti       0.00000014      -0.00000031       0.00000020      -0.00000105       0.00000193      -0.00000015
I        2.19217692       1.55010300       7.56517132      -0.00135095      -0.00095442      -0.00000053
I        6.54333109       4.62683383       7.56517091       0.00135110       0.00095541      -0.00000027
I        5.45554266       1.55010302       5.68106604       0.00067439      -0.00095431      -0.00116866
I        3.27996521       4.62683453       9.44927677      -0.00067345       0.00095318       0.00116624
I        3.27996520       4.62683472       5.68106553      -0.00067391       0.00095256      -0.00116588
I        5.45554276       1.55010270       9.44927691       0.00067424      -0.00095306       0.00116782
