9
Lattice="4.801322978524265 1.8182687092652417e-07 2.772045151691909 1.6004411620798156 4.52673116822446 2.7720451554845074 9.486725425059702e-08 7.172619313656157e-08 5.544090139068953" Properties=species:S:1:pos:R:3:forces:R:3 energy=-43.43976974487305 free_energy=-43.43976974487305 stress="-0.00015921363956294954 -4.55372131114018e-08 3.7086127502306e-09 -4.55372131114018e-08 -0.00015925097977742553 -9.268739109558055e-10 3.7086127502306e-09 -9.268739109558055e-10 -0.00015924718172755092" pbc="T T T"
Pt       1.60044003       1.13168364       2.77204507      -0.00000666       0.00000316       0.00000073
Pt       4.80132406       3.39504729       8.31613527       0.00000467      -0.00000741       0.00000033
Ti       0.00000006       0.00000004       0.00000001      -0.00000285      -0.00000062      -0.00000137
F        1.53489662       1.08533642       5.54408997       0.00216118       0.00153210      -0.00000049
F        4.86686711       3.44139487       5.54409032      -0.00215733      -0.00152830      -0.00000028
F        4.03387464       1.08533645       4.10130492      -0.00107683       0.00152693       0.00186844
F        2.36788992       3.44139508       6.98687571       0.00107715      -0.00152581      -0.00186882
F        2.36788980       3.44139529       4.10130496       0.00107795      -0.00152571       0.00186931
F        4.03387466       1.08533652       6.98687564      -0.00107733       0.00152566      -0.00186781
