9
Lattice="6.415806551718862 4.5095196970768135e-09 3.7041676352824466 2.1386022303219314 6.048880418114235 3.7041675622521772 2.1342860804631626e-08 -7.435175223486915e-08 7.408335233597972" Properties=species:S:1:pos:R:3:forces:R:3 energy=-24.695205688476562 free_energy=-24.695205688476562 stress="-0.00014743019710294902 1.828459517128067e-08 2.620563321897862e-09 1.828459517128067e-08 -0.0001474374730605632 -1.0042172426949492e-08 2.620563321897862e-09 -1.0042172426949492e-08 -0.0001474513701396063" pbc="T T T"
Pt       2.13860176       1.51222056       3.70416742      -0.00000155       0.00000172      -0.00000140
Pt       6.41580674       4.53665992      11.11250172       0.00000054      -0.00000174      -0.00000303
V        0.00000074      -0.00000019       0.00000025      -0.00000632       0.00000159      -0.00000340
I        2.14772500       1.51867119       7.40833550      -0.00305156      -0.00215595       0.00000066
I        6.40668365       4.53020890       7.40833579       0.00305483       0.00216061      -0.00000004
I        5.34194420       1.51867077       5.56415234       0.00152576      -0.00215746      -0.00264311
I        3.21246483       4.53020941       9.25251863      -0.00152545       0.00215680       0.00264256
I        3.21246433       4.53020964       5.56415199      -0.00152447       0.00215504      -0.00263897
I        5.34194399       1.51867118       9.25251812       0.00152816      -0.00216052       0.00264685
