9
Lattice="5.048061109495167 1.578355565714737e-08 2.9144993909300254 1.6826870449004905 4.759357649816302 2.9144994021515997 -2.9900827274648974e-09 1.1629256627425256e-08 5.828998787039035" Properties=species:S:1:pos:R:3:forces:R:3 energy=-41.65245056152344 free_energy=-41.65245056152344 stress="0.0006346058216877282 5.569088656898202e-08 -2.3443670116307658e-08 5.569088656898202e-08 0.0006345638539642096 2.596586945458057e-08 -2.3443670116307658e-08 2.596586945458057e-08 0.0006345721194520593" pbc="T T T"
Pt       1.68268646       1.18983970       2.91449927      -0.00000522       0.00000308      -0.00000454
Pt       5.04806114       3.56951827       8.74349734       0.00000081       0.00000093      -0.00001072
V        0.00000004      -0.00000004      -0.00000005      -0.00000080       0.00000243       0.00000290
S        1.79689711       1.27059821       5.82899883       0.00682080       0.00482434       0.00000257
S        4.93385125       3.48875954       5.82899892      -0.00682187      -0.00482199       0.00000222
S        4.14961267       1.27059802       4.47065821      -0.00340876       0.00482157       0.00591007
S        2.58113574       3.48875954       7.18734006       0.00341529      -0.00482690      -0.00590846
S        2.58113539       3.48875944       4.47065790       0.00341141      -0.00482845       0.00591367
S        4.14961285       1.27059802       7.18733981      -0.00341141       0.00482512      -0.00590825
