9
Lattice="5.630650683287513 1.7478086093710405e-07 3.2508577729675774 1.8768837216704082 5.308628401502208 3.2508577802602194 4.3739983644602526e-08 3.986048654320429e-08 6.501715470175296" Properties=species:S:1:pos:R:3:forces:R:3 energy=-30.95199966430664 free_energy=-30.95199966430664 stress="0.00012325920397415757 3.365280676348448e-08 -4.293151079082236e-08 3.365280676348448e-08 0.00012326246360316873 3.2128688598476174e-09 -4.293151079082236e-08 3.2128688598476174e-09 0.00012327023432590067" pbc="T T T"
Pt       1.87688330       1.32715684       3.25085890      -0.00000141      -0.00000186       0.00000271
Pt       5.63065165       3.98147094       9.75257416       0.00000195      -0.00000321       0.00000139
V       -0.00000021      -0.00000028      -0.00000064       0.00000255       0.00000289       0.00000629
Cl       1.85514545       1.31178646       6.50171510      -0.00387168      -0.00273854      -0.00000135
Cl       5.65238921       3.99684285       6.50171516       0.00386727       0.00273678      -0.00000005
Cl       4.70307821       1.31178610       4.85746054       0.00193502      -0.00273669      -0.00335270
Cl       2.80445591       3.99684258       8.14597020      -0.00193311       0.00273585       0.00334829
Cl       2.80445605       3.99684291       4.85746033      -0.00193472       0.00273672      -0.00335142
Cl       4.70307840       1.31178599       8.14597037       0.00193435      -0.00273228       0.00334695
