9
Lattice="4.124333170731736 1.6128472887240023e-06 2.381187160163501 1.374779926635617 3.8884636579457332 2.3811859781221507 -4.498227657779833e-08 -1.4795070117938316e-06 4.7623743982392215" Properties=species:S:1:pos:R:3:forces:R:3 energy=-45.17296600341797 free_energy=-45.17296600341797 stress="0.00015236523177009076 -3.875405127473641e-06 -2.6275384357177245e-07 -3.875405127473641e-06 0.00014800128701608628 -5.162539196135185e-07 -2.6275384357177245e-07 -5.162539196135185e-07 0.00014344279770739377" pbc="T T T"
Pt       1.37477661       0.97212694       2.38120401       0.00007799       0.00016376       0.00025526
Pt       4.12434452       2.91636284       7.14358499       0.00007906       0.00010767       0.00018994
V        0.00001039       0.00001234       0.00002095      -0.00002783      -0.00000266      -0.00001036
O        1.44576344       1.02230744       4.76235131       0.00015342      -0.00001154      -0.00009679
O        4.05335341       2.86615058       4.76236424      -0.00021904      -0.00012373      -0.00003392
O        3.40145512       1.02231134       3.63325386      -0.00006684       0.00010033       0.00003160
O        2.09764047       2.86614671       5.89148069       0.00001649      -0.00016351      -0.00015232
O        2.09764933       2.86614061       3.63325155       0.00008119      -0.00011744      -0.00001207
O        3.40145479       1.02229717       5.89147924      -0.00009436       0.00004710      -0.00017164
