9
Lattice="5.352197065246193 3.875542211315049e-08 3.090092403757521 1.7840657470305243 5.046099709391268 3.0900923655204697 1.0325122470120238e-07 2.61790259795415e-08 6.180184628678681" Properties=species:S:1:pos:R:3:forces:R:3 energy=-39.33688735961914 free_energy=-39.33688735961914 stress="-6.713324546581134e-05 -6.786446071771479e-09 -4.05654070334549e-08 -6.786446071771479e-09 -6.708400178467855e-05 -5.482613829599359e-08 -4.05654070334549e-08 -5.482613829599359e-08 -6.711189053021371e-05" pbc="T T T"
Pt       1.78406649       1.26152577       3.09009231       0.00000643       0.00000754       0.00000000
Pt       5.35219790       3.78457482       9.27027510       0.00000819       0.00000116      -0.00001409
V       -0.00000017      -0.00000008       0.00000006      -0.00000041      -0.00000009       0.00000008
Se       1.97418200       1.39595753       6.18018455       0.00341332       0.00241348      -0.00000157
Se       5.16208084       3.65014207       6.18018552      -0.00341511      -0.00241682       0.00000405
Se       4.36510576       1.39595703       4.79978439      -0.00171089       0.00241256       0.00295928
Se       2.77115683       3.65014199       7.56058556       0.00170597      -0.00241670      -0.00295398
Se       2.77115587       3.65014205       4.79978452       0.00170073      -0.00241610       0.00295964
Se       4.36510612       1.39595795       7.56058559      -0.00170839       0.00241506      -0.00295308
