9
Lattice="4.574740015182861 2.0646104119921967e-08 2.6412273979375605 1.5249133460426003 4.313106221059797 2.641227418405228 4.0452087549185685e-08 5.36716230416089e-08 5.282454725810053" Properties=species:S:1:pos:R:3:forces:R:3 energy=-40.4674072265625 free_energy=-40.4674072265625 stress="0.00045942890574224293 1.0581588938407549e-08 -3.681007854083873e-08 1.0581588938407549e-08 0.000459517992567271 1.3549407817947667e-08 -3.681007854083873e-08 1.3549407817947667e-08 0.00045946528553031385" pbc="T T T"
Pt       1.52491385       1.07827654       2.64122782       0.00000224      -0.00000098       0.00000091
Pt       4.57474006       3.23482989       7.92368253       0.00000038       0.00000245       0.00000426
V       -0.00000015       0.00000007      -0.00000019       0.00000169      -0.00000243      -0.00000170
F        1.53881414       1.08810590       5.28245475      -0.00026393      -0.00018674      -0.00000047
F        4.56083912       3.22500027       5.28245478       0.00026307       0.00018543      -0.00000166
F        3.80533289       1.08810583       3.97387947       0.00013009      -0.00018612      -0.00022891
F        2.29432047       3.22500045       6.59102981      -0.00013334       0.00018927       0.00022990
F        2.29432043       3.22500032       3.97387940      -0.00013061       0.00018504      -0.00022918
F        3.80533279       1.08810594       6.59102992       0.00013037      -0.00018585       0.00022680
