9
Lattice="4.452319181658694 1.5349781900260807e-08 2.5705477221958932 1.4841064138582758 4.197686774461293 2.570547712669392 2.7682197046054924e-08 7.906727913558634e-09 5.141095396444798" Properties=species:S:1:pos:R:3:forces:R:3 energy=-30.871023178100586 free_energy=-30.871023178100586 stress="0.00015406926104333252 -2.567217016746781e-08 -6.030295196524094e-08 -2.567217016746781e-08 0.00015415136294905096 -4.825501065397475e-08 -6.030295196524094e-08 -4.825501065397475e-08 0.0001541099336463958" pbc="T T T"
Pt       1.48410656       1.04942181       2.57054813       0.00000079       0.00000039       0.00000677
Pt       4.45231929       3.14826523       7.71164373       0.00000019       0.00000179       0.00001298
Zn      -0.00000012      -0.00000004       0.00000018       0.00000265       0.00000243       0.00000106
F        1.53574947       1.08593876       5.14109520      -0.00521165      -0.00368656      -0.00000340
F        4.40067618       3.11174807       5.14109490       0.00520845       0.00368416      -0.00000512
F        3.68444440       1.08593904       3.90054573       0.00260439      -0.00368361      -0.00451663
F        2.25198104       3.11174796       6.38164487      -0.00260561       0.00368519       0.00451034
F        2.25198124       3.11174786       3.90054572      -0.00260436       0.00368357      -0.00451533
F        3.68444442       1.08593848       6.38164483       0.00260496      -0.00368680       0.00450929
