9
Lattice="5.531191855187517 -6.787403187702675e-08 3.1934353942605016 1.843730591153491 5.214857718135047 3.193435330607771 1.7424091711687677e-08 -6.5637605066976e-08 6.386870758341554" Properties=species:S:1:pos:R:3:forces:R:3 energy=-20.088695526123047 free_energy=-20.088695526123047 stress="-9.152245911536738e-05 -2.1209443090697278e-08 -5.808361791537209e-08 -2.1209443090697278e-08 -9.158506145467982e-05 -1.8325041040156975e-08 -5.808361791537209e-08 -1.8325041040156975e-08 -9.151300764642656e-05" pbc="T T T"
Pt       1.84372982       1.30371511       3.19343569      -0.00000380       0.00000202       0.00000024
Pt       5.53119269       3.91114198       9.58030769       0.00000543      -0.00000832       0.00000766
Zn       0.00000011       0.00000024       0.00000006       0.00000112      -0.00000175       0.00000078
Cl       1.90445005       1.34665048       6.38687020      -0.00117558      -0.00082161       0.00000027
Cl       5.47047234       3.86820712       6.38686962       0.00117387       0.00082624      -0.00000565
Cl       4.57896656       1.34665006       4.84273765       0.00058816      -0.00082545      -0.00101650
Cl       2.79595570       3.86820783       7.93100330      -0.00059057       0.00082967       0.00101630
Cl       2.79595573       3.86820769       4.84273823      -0.00058604       0.00082909      -0.00101592
Cl       4.57896682       1.34664983       7.93100346       0.00058734      -0.00082976       0.00101289
