9
Lattice="6.014239071638655 1.8950227863717132e-07 3.4723226279773334 2.0047465722118925 5.670278983113609 3.472322565044073 -4.75242860638945e-08 -1.1068194237368529e-07 6.944645338269132" Properties=species:S:1:pos:R:3:forces:R:3 energy=-17.602617263793945 free_energy=-17.602617263793945 stress="0.00012093663826817647 -1.4123437530599858e-08 6.21889872931547e-09 -1.4123437530599858e-08 0.00012092800170648843 3.786988500564803e-09 6.21889872931547e-09 3.786988500564803e-09 0.0001209129550261423" pbc="T T T"
Pt       2.00474534       1.41756867       3.47232401      -0.00000792      -0.00000788       0.00000927
Pt       6.01423926       4.25270741      10.41696753       0.00000160      -0.00001501      -0.00000459
Zn       0.00000020       0.00000036      -0.00000039      -0.00000264      -0.00000315       0.00000165
Br       2.03409890       1.43832581       6.94464463      -0.00314416      -0.00221893      -0.00000253
Br       5.98488587       4.23195398       6.94464518       0.00315000       0.00223041       0.00000229
Br       4.99718991       1.43832646       5.23390426       0.00157562      -0.00222243      -0.00272670
Br       3.02179627       4.23195383       8.65538618      -0.00157250       0.00222759       0.00272495
Br       3.02179626       4.23195382       5.23390449      -0.00157589       0.00222990      -0.00272709
Br       4.99719035       1.43832591       8.65538628       0.00157580      -0.00222051       0.00272277
