9
Lattice="6.428157751850004 -3.117626463514592e-08 3.711298642574778 2.142719187277997 6.0605254087523095 3.711298701369965 3.6573989975462406e-08 9.787080408945123e-08 7.422597221801615" Properties=species:S:1:pos:R:3:forces:R:3 energy=-15.891286849975586 free_energy=-15.891286849975586 stress="-0.00015156809240579605 4.4420325751026724e-10 3.6472356246264326e-09 4.4420325751026724e-10 -0.00015161441115196794 7.135936730406911e-09 3.6472356246264326e-09 7.135936730406911e-09 -0.00015158845053520054" pbc="T T T"
Pt       2.14271935       1.51513203       3.71129795       0.00000048       0.00000232      -0.00000178
Pt       6.42815777       4.54539442      11.13389635       0.00000071       0.00000118       0.00000048
Zn      -0.00000018      -0.00000004       0.00000029      -0.00000009      -0.00000010      -0.00000020
I        2.22207188       1.57124208       7.42259754      -0.00383846      -0.00271472       0.00000119
I        6.34880516       4.48928302       7.42259702       0.00383914       0.00271359      -0.00000059
I        5.31712172       1.57124224       5.63566931       0.00191814      -0.00271422      -0.00332373
I        3.25375521       4.48928298       9.20952525      -0.00191955       0.00271383       0.00332533
I        3.25375534       4.48928320       5.63566937      -0.00191876       0.00271367      -0.00332445
I        5.31712162       1.57124200       9.20952522       0.00191844      -0.00271554       0.00332369
