9
Lattice="6.234219148622266 2.612295860677648e-07 3.599328096836353 2.078073350227509 5.877677771634177 3.5993280026175887 -3.924409999798425e-08 -1.431436432553226e-07 7.198656261645502" Properties=species:S:1:pos:R:3:forces:R:3 energy=-35.792236328125 free_energy=-35.792236328125 stress="5.0014350563287735e-06 7.892111142382419e-08 -7.141848445968435e-09 7.892111142382419e-08 5.009026153857121e-06 2.1450425435887155e-08 -7.141848445968435e-09 2.1450425435887155e-08 4.97571727464674e-06" pbc="T T T"
Rb       2.07807303       1.46942033       3.59932898       0.00000034      -0.00000063      -0.00000069
Rb       6.23421937       4.40825888      10.79798453      -0.00000014      -0.00000061      -0.00000033
Cr      -0.00000010       0.00000034       0.00000030       0.00000479      -0.00001588      -0.00000863
Cl       1.90588766       1.34766633       7.19865600       0.00273025       0.00192918      -0.00000050
Cl       6.40640454       4.53001128       7.19865616      -0.00272697      -0.00192623       0.00000006
Cl       5.28127612       1.34766557       5.24987483      -0.00137085       0.00193733       0.00237304
Cl       3.03101689       4.53001136       9.14743639       0.00136417      -0.00192665      -0.00235924
Cl       3.03101672       4.53001174       5.24987511       0.00136688      -0.00193159       0.00236529
Cl       5.28127569       1.34766541       9.14743699      -0.00136854       0.00193511      -0.00236903
