9
Lattice="5.453370209529557 3.2848336140188664e-07 3.1485051448052817 1.817790388248361 5.141488235054212 3.148505129722291 2.5682918420827617e-08 -3.1223081083605833e-10 6.297010245126374" Properties=species:S:1:pos:R:3:forces:R:3 energy=-38.48652267456055 free_energy=-38.48652267456055 stress="-0.00011117978283436969 2.4091228567613143e-08 -6.0590221728773486e-09 2.4091228567613143e-08 -0.00011096747766714543 5.9469261515232574e-08 -6.0590221728773486e-09 5.9469261515232574e-08 -0.00011088633618783206" pbc="T T T"
Rb       1.81778953       1.28537247       3.14850598       0.00000055      -0.00000217       0.00000052
Rb       5.45337015       3.85611618       9.44551559       0.00000032       0.00000115       0.00000115
Co       0.00000018      -0.00000038       0.00000022      -0.00000113       0.00000711      -0.00000639
F        1.50255764       1.06246906       6.29701029       0.00252442       0.00178356      -0.00000019
F        5.76860281       4.07901945       6.29701007      -0.00252448      -0.00178427       0.00000031
F        4.70209183       1.06246884       4.44975843      -0.00126316       0.00178769       0.00218543
F        2.56906899       4.07901989       8.14426144       0.00126419      -0.00178804      -0.00218461
F        2.56906920       4.07901986       4.44975835       0.00126301      -0.00178969       0.00218581
F        4.70209204       1.06246872       8.14426181      -0.00126360       0.00178431      -0.00218245
