9
Lattice="6.527993150498397 2.6183254684835647e-07 3.768938260130423 2.1759979501572597 6.154650918687919 3.7689382835715417 -5.282075857946141e-08 -8.640657220215862e-09 7.537876611749184" Properties=species:S:1:pos:R:3:forces:R:3 energy=-32.53181457519531 free_energy=-32.53181457519531 stress="-1.0612267033138778e-05 9.668847411603565e-08 9.057673500123542e-10 9.668847411603565e-08 -1.0674163604562636e-05 -3.358112954376935e-10 9.057673500123542e-10 -3.358112954376935e-10 -1.0810387720994186e-05" pbc="T T T"
Rb       2.17599767       1.53866277       3.76893803      -0.00000053      -0.00000062      -0.00000005
Rb       6.52799347       4.61598823      11.30681533       0.00000013       0.00000030      -0.00000010
Cr       0.00000086       0.00000059      -0.00000131      -0.00001227      -0.00000577       0.00001890
Br       2.03120193       1.43627707       7.53787620       0.00254050       0.00179592       0.00000031
Br       6.67278895       4.71837397       7.53787588      -0.00253170      -0.00178972       0.00000142
Br       5.51239263       1.43627610       5.52800855      -0.00127022       0.00179655       0.00220390
Br       3.19159792       4.71837530       9.54774562       0.00127741      -0.00180446      -0.00221495
Br       3.19159848       4.71837490       5.52800847       0.00127142      -0.00179631       0.00220440
Br       5.51239250       1.43627580       9.54774556      -0.00127462       0.00180411      -0.00221386
