9
Lattice="6.724240319456003 2.056249192062039e-07 3.8822424825646675 2.241413013863775 6.339678249300682 3.8822435561234703 -5.601692266845396e-07 9.187370538234836e-07 7.76448593537089" Properties=species:S:1:pos:R:3:forces:R:3 energy=-24.03505516052246 free_energy=-24.03505516052246 stress="-8.218317088903859e-05 -9.944998424771256e-08 -3.680920102056007e-08 -9.944998424771256e-08 -8.216176502173766e-05 4.436837386379011e-08 -3.680920102056007e-08 4.436837386379011e-08 -8.230676030507311e-05" pbc="T T T"
Rb       2.24141428       1.58491960       3.88224278      -0.00000017       0.00000027       0.00000045
Rb       6.72423847       4.75476111      11.64672932       0.00000032      -0.00000089      -0.00000054
C       -0.00000187       0.00000024       0.00000042       0.00000063       0.00000066       0.00000057
Br       1.93937685       1.37134497       7.76448532       0.00451377       0.00319907       0.00000079
Br       7.02628099       4.96833351       7.76448497      -0.00452843      -0.00320286       0.00000020
Br       5.75454865       1.37134774       5.56179011      -0.00224823       0.00318885       0.00391304
Br       3.21110312       4.96833017       9.96718319       0.00225466      -0.00318614      -0.00391951
Br       3.21110136       4.96833207       5.56178935       0.00225925      -0.00319314       0.00392544
Br       5.75454973       1.37134771       9.96718207      -0.00225174       0.00319430      -0.00392038
