9
Lattice="6.117623509114278 1.661881450045745e-07 3.532011541686281 2.039207844444208 5.767750475201596 3.5320117990881803 -2.6450276444807285e-07 1.2821995958311472e-07 7.064023541504865" Properties=species:S:1:pos:R:3:forces:R:3 energy=-30.31642723083496 free_energy=-30.31642723083496 stress="0.00010872276470763609 1.0863268506966506e-08 -5.722071261260453e-09 1.0863268506966506e-08 0.00010867372475331649 -7.128198586947576e-10 -5.722071261260453e-09 -7.128198586947576e-10 0.00010878047760343179" pbc="T T T"
Rb       2.03920736       1.44193795       3.53201195       0.00000084       0.00000065      -0.00000030
Rb       6.11762287       4.32581342      10.59603545       0.00000055      -0.00000087      -0.00000029
Co       0.00000021      -0.00000057      -0.00000020      -0.00000246       0.00000588      -0.00000106
Cl       1.84238626       1.30276338       7.06402366      -0.00292569      -0.00206643       0.00000007
Cl       6.31444518       4.46498660       7.06402373       0.00292557       0.00206739      -0.00000109
Cl       5.19643070       1.30276334       5.12756593       0.00146244      -0.00206757      -0.00253722
Cl       2.96040084       4.46498781       9.00048067      -0.00146234       0.00206456       0.00253531
Cl       2.96040096       4.46498790       5.12756536      -0.00146146       0.00206403      -0.00253353
Cl       5.19643022       1.30276350       9.00048056       0.00146244      -0.00206785       0.00253814
