9
Lattice="7.014199164854339 6.164374007144686e-08 4.0496496502692345 2.3380664327262526 6.613050330583037 4.049649673958205 -2.655783693819039e-08 1.023368738784567e-08 8.099299346537986" Properties=species:S:1:pos:R:3:forces:R:3 energy=-24.303268432617188 free_energy=-24.303268432617188 stress="0.000209541802178137 2.1191315369151198e-08 4.796104624560371e-10 2.1191315369151198e-08 0.0002095297968480736 -2.136750998360526e-09 4.796104624560371e-10 -2.136750998360526e-09 0.00020950846374034882" pbc="T T T"
Rb       2.33806626       1.65326249       4.04964954      -0.00000020      -0.00000011      -0.00000002
Rb       7.01419933       4.95978792      12.14894920       0.00000022      -0.00000007       0.00000007
Co       0.00000002      -0.00000013      -0.00000015       0.00000015       0.00000016       0.00000075
I        2.20008712       1.55569599       8.09929936       0.00207563       0.00146890      -0.00000028
I        7.15217860       5.05735446       8.09929928      -0.00207523      -0.00146921       0.00000045
I        5.91415578       1.55569604       5.95498108      -0.00103836       0.00146821       0.00179817
I        3.43810969       5.05735440      10.24361772       0.00103833      -0.00146848      -0.00179841
I        3.43810973       5.05735433       5.95498099       0.00103800      -0.00146820       0.00179794
I        5.91415574       1.55569611      10.24361764      -0.00103853       0.00146881      -0.00179873
