9
Lattice="6.4112767472747345 4.102763840099249e-08 3.7015526527324174 2.1370924185522493 6.044609584569713 3.701552426215626 1.392255393045168e-07 -1.7897784706219117e-07 7.40310506431905" Properties=species:S:1:pos:R:3:forces:R:3 energy=-27.222558975219727 free_energy=-27.222558975219727 stress="-0.00012823950964957476 9.13665765267524e-09 -1.0748627765622132e-08 9.13665765267524e-09 -0.00012822616554331034 1.014948480815292e-08 -1.0748627765622132e-08 1.014948480815292e-08 -0.00012822035932913423" pbc="T T T"
Rb       2.13709220       1.51115258       3.70155263       0.00000056      -0.00000019      -0.00000023
Rb       6.41127692       4.53345678      11.10465726      -0.00000020       0.00000047       0.00000058
Co       0.00000032      -0.00000046      -0.00000244      -0.00000230       0.00000154       0.00001143
Br       2.03105634       1.43617409       7.40310475       0.00520419       0.00367837       0.00000119
Br       6.51731261       4.60843537       7.40310536      -0.00520188      -0.00367747      -0.00000025
Br       5.39574913       1.43617422       5.46049961      -0.00260027       0.00367564       0.00450209
Br       3.15262037       4.60843594       9.34571184       0.00260307      -0.00368153      -0.00450920
Br       3.15262013       4.60843544       5.46049916       0.00260089      -0.00367711       0.00450437
Br       5.39574933       1.43617385       9.34571223      -0.00260408       0.00368024      -0.00450990
