9
Lattice="6.430625294237758 -6.873226418042122e-07 3.712724306932833 2.1435412790474073 6.062855252423551 3.7127240257952887 -7.73725615556676e-08 -3.9903288501794506e-07 7.425448747877933" Properties=species:S:1:pos:R:3:forces:R:3 energy=-26.41330909729004 free_energy=-26.41330909729004 stress="-1.3784451766696293e-05 9.564283232066373e-08 -2.4363620454437296e-08 9.564283232066373e-08 -1.3542289707402233e-05 3.344253229897731e-08 -2.4363620454437296e-08 3.344253229897731e-08 -1.3205906725488603e-05" pbc="T T T"
Rb       2.14354591       1.51571539       3.71272323      -0.00000101      -0.00000013      -0.00000002
Rb       6.43062872       4.54713903      11.13817320       0.00000043       0.00000017      -0.00000003
C        0.00000454       0.00000079      -0.00000366       0.00003383       0.00000154      -0.00001068
Cl       1.77613080       1.25591874       7.42544775       0.00050985       0.00035894       0.00000283
Cl       6.79802710       4.80692783       7.42544751      -0.00051066      -0.00033924       0.00000323
Cl       5.54255591       1.25592026       5.25091259      -0.00027023       0.00035022       0.00040582
Cl       3.03160978       4.80693826       9.59999160       0.00024662      -0.00035600      -0.00041732
Cl       3.03160854       4.80693885       5.25090838       0.00025687      -0.00036493       0.00042482
Cl       5.54255564       1.25591742       9.59998781      -0.00026575       0.00034948      -0.00040836
