9
Lattice="5.490965393933658 1.3639235455528175e-07 3.170209765846217 1.8303218962738408 5.176931738738861 3.170209818320329 -2.2814308216003603e-08 4.8135248027524356e-08 6.34041957120806" Properties=species:S:1:pos:R:3:forces:R:3 energy=-44.91469955444336 free_energy=-44.91469955444336 stress="-5.181080996408127e-05 -3.277633808806968e-08 -1.7890235071149618e-08 -3.277633808806968e-08 -5.178855644771829e-05 9.697179947920631e-09 -1.7890235071149618e-08 9.697179947920631e-09 -5.1845130656147376e-05" pbc="T T T"
Rb       1.83032206       1.29423374       3.17020972      -0.00000006       0.00000025       0.00000021
Rb       5.49096557       3.88269820       9.51062825      -0.00000063       0.00000078       0.00000069
Cr       0.00000004       0.00000038       0.00000032       0.00000054      -0.00000915      -0.00000849
F        1.52819015       1.08059355       6.34041955       0.00449079       0.00317496       0.00000029
F        5.79309745       4.09633803       6.34041982      -0.00449029      -0.00317185       0.00000034
F        4.72686996       1.08059398       4.49366091      -0.00224587       0.00317620       0.00389317
F        2.59441693       4.09633802       8.18717897       0.00224338      -0.00317128      -0.00388873
F        2.59441692       4.09633781       4.49366051       0.00224541      -0.00317398       0.00389153
F        4.72686996       1.08059418       8.18717864      -0.00224315       0.00317368      -0.00388852
