9
Lattice="7.075110153893907 -7.033474350195484e-07 4.084817280105536 2.3583694908849693 6.670477342946108 4.084817102207875 -5.958569174625675e-08 -2.600128667544951e-07 8.169634663416694" Properties=species:S:1:pos:R:3:forces:R:3 energy=-28.759384155273438 free_energy=-28.759384155273438 stress="-2.7827045414596796e-05 -2.167135804143072e-08 -5.469012354097913e-09 -2.167135804143072e-08 -2.7800691896118224e-05 -8.546376939477796e-10 -5.469012354097913e-09 -8.546376939477796e-10 -2.7797295842901804e-05" pbc="T T T"
Rb       2.35837010       1.66761897       4.08481761       0.00000069      -0.00000089       0.00000008
Rb       7.07510943       5.00285721      12.25445148      -0.00000047       0.00000063       0.00000021
Cr      -0.00000104       0.00000066       0.00000004       0.00000992      -0.00000312      -0.00000060
I        2.21446209       1.56586178       8.16963472       0.00311084       0.00219797       0.00000050
I        7.21901878       5.10461536       8.16963445      -0.00311801      -0.00220141      -0.00000153
I        5.96787830       1.56586017       6.00259771      -0.00155776       0.00220208       0.00269675
I        3.46560143       5.10461529      10.33667071       0.00155558      -0.00219780      -0.00269235
I        3.46560095       5.10461578       6.00259831       0.00155484      -0.00219836       0.00269188
I        5.96787831       1.56586036      10.33667115      -0.00155568       0.00220088      -0.00269488
