9
Lattice="5.02917163132365 -3.4413299871397735e-09 2.9035935868157554 1.676390630171406 4.741548426335943 2.903593431552284 8.719392467917822e-08 -1.2850266813037556e-07 5.807187022607085" Properties=species:S:1:pos:R:3:forces:R:3 energy=-38.583560943603516 free_energy=-38.583560943603516 stress="-5.2281761782069225e-06 -3.0267560902075274e-08 -8.531075934570254e-08 -3.0267560902075274e-08 -4.918799731967738e-06 -9.125862732162204e-08 -8.531075934570254e-08 -9.125862732162204e-08 -5.499402050190838e-06" pbc="T T T"
Rb       1.67638979       1.18538678       2.90359409       0.00000112      -0.00000137       0.00000016
Rb       5.02917209       3.55616049       8.71077976       0.00000019       0.00000253       0.00000466
C        0.00000016      -0.00000020       0.00000181      -0.00000252      -0.00000528       0.00001077
F        1.31485853       0.92974570       5.80718681      -0.00044584      -0.00032717       0.00000736
F        5.39070402       3.81180303       5.80718749       0.00044918       0.00032794      -0.00000962
F        4.37174327       0.92974468       4.04229270       0.00022888      -0.00032669      -0.00038218
F        2.33382076       3.81180268       7.57208107      -0.00023049       0.00032324       0.00037372
F        2.33381884       3.81180300       4.04229309      -0.00022203       0.00033778      -0.00038481
F        4.37174184       0.92974656       7.57207988       0.00022221      -0.00033188       0.00037861
