9
Lattice="6.166250345904857 3.6569200671965834e-08 3.560086110857781 2.0554168838384594 5.813596060231954 3.5600859941305347 6.648610785096914e-08 -9.59483227169053e-08 7.1201721065582415" Properties=species:S:1:pos:R:3:forces:R:3 energy=-32.38759994506836 free_energy=-32.38759994506836 stress="-4.4299423507254687e-07 -3.259320635606855e-08 -4.085590532554306e-09 -3.259320635606855e-08 -4.6226327299336845e-07 2.3899378476244237e-08 -4.085590532554306e-09 2.3899378476244237e-08 -5.038371000409825e-07" pbc="T T T"
Rb       2.05541751       1.45339815       3.56008586      -0.00000053       0.00000013       0.00000076
Rb       6.16624991       4.36019656      10.68025787       0.00000078       0.00000073       0.00000024
Fe      -0.00000409      -0.00000024      -0.00000093       0.00004156      -0.00000335       0.00001284
Cl       1.86879155       1.32143481       7.12017197       0.00204682       0.00144741       0.00000000
Cl       6.35287595       4.49216136       7.12017178      -0.00206316      -0.00145990       0.00000047
Cl       5.23185470       1.32143572       5.17850630      -0.00102997       0.00145191       0.00178459
Cl       2.98981436       4.49216061       9.06183674       0.00102052      -0.00144872      -0.00177622
Cl       2.98981389       4.49216142       5.17850717       0.00101876      -0.00144660       0.00177193
Cl       5.23185545       1.32143541       9.06183970      -0.00103477       0.00145835      -0.00179479
