9
Lattice="6.50667968159745 6.650486378149307e-07 3.7566329094513065 2.1688936099633693 6.134557509528888 3.7566333325036165 2.3463774458626815e-07 6.840455159660673e-07 7.513265412498133" Properties=species:S:1:pos:R:3:forces:R:3 energy=-29.757265090942383 free_energy=-29.757265090942383 stress="-6.161056808196008e-05 1.1124092935688168e-07 -1.8890780051350475e-09 1.1124092935688168e-07 -6.152458809083328e-05 1.3497376016857743e-07 -1.8890780051350475e-09 1.3497376016857743e-07 -6.185519305290654e-05" pbc="T T T"
Rb       2.16889373       1.53364046       3.75663299      -0.00000132      -0.00000238      -0.00000152
Rb       6.50668004       4.60091896      11.26989984      -0.00000045       0.00000006      -0.00000311
Fe       0.00000247       0.00000316       0.00000561      -0.00002293      -0.00004889      -0.00005383
Br       1.88089079       1.32999199       7.51326301       0.00547290       0.00386766       0.00001545
Br       6.79468753       4.80456893       7.51326053      -0.00547712      -0.00386214       0.00002749
Br       5.56623188       1.32999343       5.38552876      -0.00272563       0.00386419       0.00475839
Br       3.10933132       4.80456994       9.64100463       0.00276326      -0.00387011      -0.00474600
Br       3.10933892       4.80456393       5.38552710       0.00273938      -0.00385485       0.00476475
Br       5.56623749       1.32998473       9.64100450      -0.00274813       0.00390632      -0.00476135
