9
Lattice="6.9560200699709505 7.840003683045319e-07 4.016058247029462 2.318673355117933 6.558198701737073 4.016059529961992 -9.878816629490776e-07 8.727273731858199e-07 8.032118205120074" Properties=species:S:1:pos:R:3:forces:R:3 energy=-26.144786834716797 free_energy=-26.144786834716797 stress="-7.770430238451809e-05 9.195478867241036e-08 -1.683214776448949e-07 9.195478867241036e-08 -7.783066394040361e-05 1.9668310358156305e-07 -1.683214776448949e-07 1.9668310358156305e-07 -7.796931458869949e-05" pbc="T T T"
Rb       2.31867303       1.63954977       4.01605969      -0.00000100      -0.00000009      -0.00000096
Rb       6.95601938       4.91865053      12.04817707       0.00000053       0.00000015       0.00000009
Fe      -0.00000183       0.00000175       0.00000273       0.00003699      -0.00003562      -0.00003259
I        2.03285368       1.43744456       8.03211612       0.00575980       0.00407629       0.00000852
I        7.24183960       5.12075658       8.03211701      -0.00576988      -0.00408207       0.00000402
I        5.93959116       1.43744566       5.77655871      -0.00288495       0.00408694       0.00501386
I        3.33510033       5.12075535      10.28767535       0.00287270      -0.00406732      -0.00497974
I        3.33509895       5.12075538       5.77655759       0.00289072      -0.00408631       0.00501882
I        5.93959528       1.43744218      10.28767948      -0.00290487       0.00410804      -0.00503186
