9
Lattice="7.106573499574939 2.063055005678932e-07 4.102982032457787 2.3688579336213866 6.700141771286871 4.102982195403731 -1.0268650407827597e-07 1.2695690999809347e-07 8.205964242773785" Properties=species:S:1:pos:R:3:forces:R:3 energy=-22.989437103271484 free_energy=-22.989437103271484 stress="-0.00012552305997814983 -1.0834284580596432e-08 -1.1674897493207936e-08 -1.0834284580596432e-08 -0.00012550894462037832 1.8648298905077354e-08 -1.1674897493207936e-08 1.8648298905077354e-08 -0.00012552035332191736" pbc="T T T"
Rb       2.36885780       1.67503544       4.10298199       0.00000054       0.00000031       0.00000003
Rb       7.10657353       5.02510665      12.30894633      -0.00000035      -0.00000051      -0.00000022
Ge       0.00000013       0.00000003       0.00000050      -0.00000033      -0.00000005      -0.00000089
I        2.37067526       1.67632174       8.20596417      -0.00695108      -0.00491215       0.00000018
I        7.10475585       5.02382025       8.20596436       0.00695121       0.00491214      -0.00000031
I        5.92123509       1.67632148       6.15604724       0.00347321      -0.00491378      -0.00602022
I        3.55419637       5.02382056      10.25588105      -0.00347331       0.00491446       0.00602055
I        3.55419603       5.02382085       6.15604772      -0.00347377       0.00491485      -0.00601758
I        5.92123528       1.67632144      10.25588056       0.00347383      -0.00491527       0.00601834
