9
Lattice="6.277016900505665 -1.4231905426683862e-07 3.624037420620602 2.092338901787073 5.91802805979945 3.6240373008814104 -6.992337135385546e-08 -1.9609325502151808e-07 7.248074962351822" Properties=species:S:1:pos:R:3:forces:R:3 energy=-30.180511474609375 free_energy=-30.180511474609375 stress="1.8280194126418792e-05 -2.986499580970303e-08 2.049033298590075e-08 -2.986499580970303e-08 1.82601397682447e-05 -2.7590450812908784e-08 2.049033298590075e-08 -2.7590450812908784e-08 1.8340288079343736e-05" pbc="T T T"
Rb       2.09233866       1.47950708       3.62403756       0.00000023      -0.00000004      -0.00000003
Rb       6.27701662       4.43852063      10.87211226       0.00000016       0.00000016      -0.00000025
Ge       0.00000026      -0.00000018       0.00000039      -0.00000499       0.00000128      -0.00000765
Cl       1.90103888       1.34423725       7.24807515       0.00071838       0.00050928      -0.00000110
Cl       6.46831686       4.57379054       7.24807481      -0.00071701      -0.00050890      -0.00000103
Cl       5.32649771       1.34423718       5.27038585      -0.00035988       0.00051038       0.00062242
Cl       3.04285826       4.57379022       9.22576330       0.00035788      -0.00050569      -0.00061844
Cl       3.04285882       4.57379032       5.27038635       0.00035866      -0.00050876       0.00061961
Cl       5.32649683       1.34423767       9.22576296      -0.00035346       0.00050233      -0.00061364
