9
Lattice="7.2741126751574265 1.2682842358805045e-07 4.199710614530654 2.4247044465877896 6.858098866992472 4.19971043793023 1.2698898736598534e-07 -1.264957881862245e-07 8.399421009109894" Properties=species:S:1:pos:R:3:forces:R:3 energy=-32.057132720947266 free_energy=-32.057132720947266 stress="0.0001342041650786996 8.85312090304069e-08 -1.3838135970445364e-08 8.85312090304069e-08 0.00013414710701908916 2.773085228113814e-08 -1.3838135970445364e-08 2.773085228113814e-08 0.0001340661256108433" pbc="T T T"
Rb       2.42470400       1.71452487       4.19971071       0.00000164       0.00000155      -0.00000033
Rb       7.27411329       5.14357408      12.59913124      -0.00000145      -0.00000100      -0.00000037
Hf      -0.00000030      -0.00000002      -0.00000227       0.00000121       0.00000061       0.00001980
I        2.33630582       1.65201734       8.39942098      -0.00400108      -0.00282873      -0.00000003
I        7.36251185       5.20608172       8.39942105       0.00399923       0.00282747       0.00000107
I        6.10596058       1.65201648       6.22300899       0.00199711      -0.00282411      -0.00345740
I        3.59285613       5.20608305      10.57583435      -0.00199088       0.00281581       0.00344653
I        3.59285647       5.20608215       6.22300870      -0.00199729       0.00282416      -0.00345694
I        6.10596117       1.65201577      10.57583446       0.00199144      -0.00281578       0.00344758
