9
Lattice="6.360328873652746 2.710749328000003e-07 3.6721374940164284 2.1201099701808332 5.996575694985436 3.6721373380313476 1.1433007321584948e-07 -1.1019831019004356e-07 7.344274790007354" Properties=species:S:1:pos:R:3:forces:R:3 energy=-40.83088684082031 free_energy=-40.83088684082031 stress="-0.00013871287228539586 1.0634025926492541e-07 2.8713754929299284e-08 1.0634025926492541e-07 -0.0001387543888995424 -4.5806505255541197e-08 2.8713754929299284e-08 -4.5806505255541197e-08 -0.00013885957014281303" pbc="T T T"
Rb       2.12011008       1.49914405       3.67213735       0.00000024      -0.00000028      -0.00000041
Rb       6.36032903       4.49743165      11.01641218      -0.00000005      -0.00000002       0.00000084
Hf       0.00000151       0.00000168      -0.00000416      -0.00002306      -0.00002931       0.00006450
Cl       2.00808958       1.41993373       7.34427461       0.00656281       0.00463931       0.00000151
Cl       6.47234732       4.57664044       7.34427462      -0.00653148      -0.00461723       0.00000069
Cl       5.35628417       1.41993445       5.41119369      -0.00327239       0.00462635       0.00566848
Cl       3.12415354       4.57664339       9.27735811       0.00328871      -0.00465111      -0.00569645
Cl       3.12415530       4.57664106       5.41119433       0.00326612      -0.00461856       0.00565831
Cl       5.35628531       1.41993306       9.27735773      -0.00329076       0.00465091      -0.00569748
