9
Lattice="6.708718982874213 -3.152791840125184e-07 3.8732809207686314 2.2362394365314633 6.32504077772419 3.873280794638498 7.669113177378545e-08 -1.0024836510332452e-07 7.746561708704279" Properties=species:S:1:pos:R:3:forces:R:3 energy=-36.64618682861328 free_energy=-36.64618682861328 stress="4.63093638245482e-05 -1.1658075749210184e-07 1.8196245621382445e-09 -1.1658075749210184e-07 4.638434620574117e-05 -3.1514988396708077e-09 1.8196245621382445e-09 -3.1514988396708077e-09 4.6451608795905486e-05" pbc="T T T"
Rb       2.23623979       1.58126006       3.87328106       0.00000027      -0.00000010       0.00000004
Rb       6.70871869       4.74378048      11.61984234      -0.00000013       0.00000009      -0.00000033
Hf      -0.00000053      -0.00000001       0.00000052       0.00000794       0.00000104      -0.00000779
Br       2.14498406       1.51673210       7.74656159      -0.00016311      -0.00011489      -0.00000003
Br       6.79997493       4.80830843       7.74656164       0.00015697       0.00011031       0.00000019
Br       5.63622617       1.51673321       5.73089228       0.00008602      -0.00012037      -0.00014688
Br       3.30873247       4.80830660       9.76223078      -0.00008880       0.00012539       0.00015289
Br       3.30873232       4.80830701       5.73089252      -0.00008744       0.00012262      -0.00014943
Br       5.63622608       1.51673348       9.76223101       0.00008835      -0.00012407       0.00015138
