9
Lattice="5.569165824639105 -1.8688418757592553e-07 3.215359110421502 1.8563884623500173 5.250659322793232 3.2153590578831226 6.120650460061355e-08 -2.106656088794224e-08 6.430718114830389" Properties=species:S:1:pos:R:3:forces:R:3 energy=-54.01531219482422 free_energy=-54.01531219482422 stress="-1.1224923582631163e-05 -2.0088077867796983e-09 3.9874581858612146e-08 -2.0088077867796983e-09 -1.1199492291780189e-05 -9.671512479769717e-09 3.9874581858612146e-08 -9.671512479769717e-09 -1.1198208994755987e-05" pbc="T T T"
Rb       1.85638832       1.31266520       3.21535921       0.00000286      -0.00000252      -0.00000019
Rb       5.56916604       3.93799458       9.64607734      -0.00000199      -0.00000088       0.00000039
Hf       0.00000003       0.00000003      -0.00000032       0.00000618      -0.00000592       0.00000588
F        1.63863486       1.15868935       6.43071822       0.00179315       0.00126959      -0.00000085
F        5.78692010       4.09196968       6.43071841      -0.00179728      -0.00126962      -0.00000029
F        4.74984813       1.15868939       4.63445776      -0.00089800       0.00127118       0.00155881
F        2.67570576       4.09196958       8.22697848       0.00089868      -0.00126878      -0.00155746
F        2.67570604       4.09196920       4.63445778       0.00089379      -0.00126334       0.00155091
F        4.74984820       1.15868944       8.22697817      -0.00089728       0.00127012      -0.00155726
