9
Lattice="6.502630387191557 -4.059712335717307e-07 3.7542958113042344 2.1675432341559335 6.130738769684791 3.7542955436812373 1.1607076057257651e-07 -2.4569522257618025e-07 7.5085914215680845" Properties=species:S:1:pos:R:3:forces:R:3 energy=-29.552946090698242 free_energy=-29.552946090698242 stress="-2.9668464776477776e-05 -8.016928632059717e-08 2.8612674896066892e-08 -8.016928632059717e-08 -2.9606711905216798e-05 -5.2566953456789633e-08 2.8612674896066892e-08 -5.2566953456789633e-08 -2.95156569336541e-05" pbc="T T T"
Rb       2.16754328       1.53268471       3.75429584       0.00000056      -0.00000030      -0.00000022
Rb       6.50263042       4.59805339      11.26288699      -0.00000034      -0.00000009       0.00000027
Ir      -0.00000064       0.00000047       0.00000015       0.00001520      -0.00000653      -0.00000532
Br       2.04945937       1.44918636       7.50859125       0.00229298       0.00162204       0.00000039
Br       6.62071530       4.68155159       7.50859166      -0.00230067      -0.00162542      -0.00000046
Br       5.47790028       1.44918603       5.52918055      -0.00114817       0.00162424       0.00198656
Br       3.19227351       4.68155163       9.48800212       0.00114247      -0.00161655      -0.00197840
Br       3.19227339       4.68155147       5.52918114       0.00114225      -0.00161440       0.00197588
Br       5.47789998       1.44918665       9.48800166      -0.00114433       0.00161702      -0.00197876
