9
Lattice="5.385846273989148 -1.0629422449575495e-07 3.1095199690120054 1.7952819848597128 5.07782477853476 3.1095199798456234 -1.0289716547305898e-07 -5.949082034249803e-08 6.21904011624715" Properties=species:S:1:pos:R:3:forces:R:3 energy=-41.95269012451172 free_energy=-41.95269012451172 stress="-0.0003238690260332078 -1.4580176355138974e-07 2.3183684305649876e-08 -1.4580176355138974e-07 -0.0003238026692997664 -4.5823803418443276e-08 2.3183684305649876e-08 -4.5823803418443276e-08 -0.0003236663469579071" pbc="T T T"
Rb       1.79528182       1.26945641       3.10952018      -0.00000053       0.00000051      -0.00000049
Rb       5.38584584       3.80836828       9.32856073       0.00000049      -0.00000003      -0.00000089
Ir      -0.00000015       0.00000008      -0.00000007       0.00000998      -0.00000223       0.00000181
F        1.60859441       1.13744799       6.21904026       0.00379383       0.00268339      -0.00000054
F        5.57253414       3.94037661       6.21903979      -0.00379998      -0.00268655       0.00000009
F        4.58154875       1.13744865       4.50260422      -0.00189458       0.00267778       0.00328080
F        2.59957962       3.94037625       7.93547545       0.00189240      -0.00267614      -0.00327764
F        2.59957980       3.94037566       4.50260443       0.00188995      -0.00267277       0.00327376
F        4.58154840       1.13744858       7.93547527      -0.00189160       0.00267603      -0.00327700
