9
Lattice="6.2424357710171705 3.771045408165617e-08 3.6040721971846432 2.080811957094632 5.885425073925013 3.604072200876464 -5.7271579746662256e-08 -3.597543177591254e-08 7.208144493566571" Properties=species:S:1:pos:R:3:forces:R:3 energy=-32.88119888305664 free_energy=-32.88119888305664 stress="1.5795923900441267e-05 -1.5816935317047864e-08 -1.136709304461192e-08 -1.5816935317047864e-08 1.579723902978003e-05 -1.1030975022308098e-09 -1.136709304461192e-08 -1.1030975022308098e-09 1.5840505511732772e-05" pbc="T T T"
Rb       2.08081183       1.47135639       3.60407242       0.00000039       0.00000002      -0.00000004
Rb       6.24243569       4.41406872      10.81221665      -0.00000011       0.00000002      -0.00000018
Ir       0.00000024      -0.00000018      -0.00000038      -0.00000743      -0.00000065       0.00000138
Cl       1.91794331       1.35619127       7.20814489       0.00116479       0.00082265       0.00000006
Cl       6.40530414       4.52923407       7.20814487      -0.00116017      -0.00081997      -0.00000140
Cl       5.28346415       1.35619096       5.26506049      -0.00057890       0.00081991       0.00100216
Cl       3.03978364       4.52923413       9.15122803       0.00058067      -0.00082080      -0.00100356
Cl       3.03978345       4.52923411       5.26506051       0.00058192      -0.00082101       0.00100476
Cl       5.28346428       1.35619110       9.15122797      -0.00058116       0.00081992      -0.00100335
