9
Lattice="7.069607660866513 -1.8063085061572213e-08 4.081639865179837 2.3565358479801546 6.665290006392761 4.08163990318999 -3.984475816317321e-08 1.837845029298716e-08 8.163279799372635" Properties=species:S:1:pos:R:3:forces:R:3 energy=-28.066587448120117 free_energy=-28.066587448120117 stress="2.3032804165268317e-05 -4.740987158413645e-09 1.0592885679727715e-08 -4.740987158413645e-09 2.3001444787951186e-05 -9.963383007516313e-09 1.0592885679727715e-08 -9.963383007516313e-09 2.3010456061456352e-05" pbc="T T T"
Rb       2.35653578       1.66632251       4.08164002       0.00000013      -0.00000023      -0.00000021
Rb       7.06960758       4.99896760      12.24491955      -0.00000017      -0.00000012      -0.00000006
Mn      -0.00000032      -0.00000017      -0.00000033       0.00000073       0.00000089       0.00000266
I        2.30305035       1.62850073       8.16327982      -0.00034521      -0.00024188       0.00000053
I        7.12309348       5.03678947       8.16327970       0.00034402       0.00024144       0.00000122
I        5.91808191       1.62850153       6.07613946       0.00017140      -0.00024278      -0.00029819
I        3.50806149       5.03678837      10.25042036      -0.00016994       0.00024072       0.00029589
I        3.50806161       5.03678833       6.07613930      -0.00017302       0.00024286      -0.00029773
I        5.91808203       1.62850158      10.25042044       0.00017207      -0.00024089       0.00029594
