9
Lattice="5.470587808079039 -5.0369518737067946e-08 3.158445289733118 1.8235292412447424 5.1577197398954215 3.1584452561765395 -1.2690186659272788e-08 -5.0071543093234164e-08 6.316890601446223" Properties=species:S:1:pos:R:3:forces:R:3 energy=-44.95589065551758 free_energy=-44.95589065551758 stress="-5.477616014104569e-06 -1.841461916285425e-08 3.800075809579084e-09 -1.841461916285425e-08 -5.427734322438482e-06 -1.4726503572148886e-08 3.800075809579084e-09 -1.4726503572148886e-08 -5.439515462057898e-06" pbc="T T T"
Rb       1.82352920       1.28943012       3.15844564       0.00000005       0.00000006      -0.00000049
Rb       5.47058750       3.86828965       9.47533514       0.00000050       0.00000068       0.00000108
Mo       0.00000001       0.00000017       0.00000027       0.00000794      -0.00000267      -0.00001585
F        1.63965040       1.15940805       6.31689063       0.00024077       0.00017011      -0.00000006
F        5.65446704       3.99831164       6.31689082      -0.00024650      -0.00017357       0.00000018
F        4.65076241       1.15940784       4.57842410      -0.00012372       0.00017455       0.00021484
F        2.64335442       3.99831157       8.05535678       0.00011876      -0.00016689      -0.00020471
F        2.64335440       3.99831146       4.57842410       0.00012156      -0.00017154       0.00021115
F        4.65076263       1.15940807       8.05535684      -0.00011946       0.00016913      -0.00020620
