9
Lattice="6.317940752007999 6.343424730084327e-07 3.64766424647453 2.1059807034734193 5.956611724039876 3.6476644980717525 -2.8302986187371975e-10 3.0794228414803014e-07 7.2953284934391265" Properties=species:S:1:pos:R:3:forces:R:3 energy=-36.63340377807617 free_energy=-36.63340377807617 stress="0.0002733370929490775 1.9929653660710756e-07 -4.4731663706443214e-08 1.9929653660710756e-07 0.00027319492073729634 5.8234292055203696e-08 -4.4731663706443214e-08 5.8234292055203696e-08 0.0002730403211899102" pbc="T T T"
Rb       2.10598051       1.48915329       3.64766425       0.00000018      -0.00000031      -0.00000001
Rb       6.31794103       4.46745957      10.94299273      -0.00000006       0.00000020       0.00000002
Mo       0.00000185       0.00000026      -0.00000016      -0.00003740      -0.00000832      -0.00000825
Cl       1.96574231       1.38999028       7.29532850      -0.00786135      -0.00555934      -0.00000046
Cl       6.45817780       4.56662135       7.29532885       0.00789014       0.00557959       0.00000039
Cl       5.33507041       1.38998948       5.35004569       0.00392883      -0.00555699      -0.00680560
Cl       3.08885128       4.56662282       9.24061202      -0.00392775       0.00555582       0.00680225
Cl       3.08885025       4.56662419       5.35004463      -0.00392133       0.00554585      -0.00679179
Cl       5.33507069       1.38998963       9.24061249       0.00392883      -0.00555639       0.00680344
