9
Lattice="7.090045673881768 2.5794735618021105e-08 4.093439756909872 2.3633485853223655 6.684559150206803 4.093439751640515 2.6161730091270445e-09 -4.603705159712083e-09 8.186879509288401" Properties=species:S:1:pos:R:3:forces:R:3 energy=-29.071691513061523 free_energy=-29.071691513061523 stress="0.0001471074647270143 8.797772288460237e-09 -3.2716289677381383e-09 8.797772288460237e-09 0.0001471029536332935 2.1878405753739116e-09 -3.2716289677381383e-09 2.1878405753739116e-09 0.00014708418166264892" pbc="T T T"
Rb       2.36334856       1.67113979       4.09343983      -0.00000020      -0.00000047      -0.00000010
Rb       7.09004570       5.01341938      12.28031919       0.00000024       0.00000064       0.00000003
Mo       0.00000003      -0.00000001      -0.00000019       0.00000086      -0.00000107       0.00000391
I        2.28685686       1.61705198       8.18687952      -0.00009462      -0.00006700       0.00000020
I        7.16653736       5.06750721       8.18687949       0.00009465       0.00006691       0.00000008
I        5.94661725       1.61705197       6.07391576       0.00004859      -0.00006886      -0.00008196
I        3.50677698       5.06750724      10.29984335      -0.00004809       0.00006743       0.00008056
I        3.50677701       5.06750721       6.07391576      -0.00004862       0.00006898      -0.00008239
I        5.94661729       1.61705193      10.29984336       0.00004718      -0.00006653       0.00007966
