9
Lattice="6.542775448054315 4.319813729814433e-07 3.7774720885917796 2.1809253922961553 6.168587450352218 3.7774723732218884 -3.9298912117695414e-07 7.071375847885182e-08 7.55494485786086" Properties=species:S:1:pos:R:3:forces:R:3 energy=-31.62165641784668 free_energy=-31.62165641784668 stress="-2.7177784431842156e-05 8.412407481728224e-08 -7.891196140974444e-09 8.412407481728224e-08 -2.7208065148442984e-05 -1.0231472558075438e-08 -7.891196140974444e-09 -1.0231472558075438e-08 -2.7222164135309868e-05" pbc="T T T"
Rb       2.18092485       1.54214685       3.77747225       0.00000059       0.00000034      -0.00000001
Rb       6.54277567       4.62644104      11.33241691      -0.00000072      -0.00000033       0.00000050
Mn       0.00000038       0.00000257      -0.00000042      -0.00000618      -0.00003654       0.00000526
Br       1.96954275       1.39267787       7.55494479       0.00373482       0.00263909      -0.00000003
Br       6.75415595       4.77590976       7.55494476      -0.00371391      -0.00262503      -0.00000143
Br       5.55800565       1.39267612       5.48314587      -0.00187063       0.00264516       0.00323488
Br       3.16569535       4.77591070       9.62674334       0.00186413      -0.00263500      -0.00322455
Br       3.16569545       4.77591065       5.48314695       0.00186439      -0.00263333       0.00322288
Br       5.55800567       1.39267620       9.62674314      -0.00187237       0.00264565      -0.00323763
