9
Lattice="6.611968639250944 -5.853956793032324e-07 3.8174222371407227 2.2039891104880134 6.233823691175904 3.8174220362446674 2.1866863013048984e-07 -9.142443890860806e-08 7.634844095536106" Properties=species:S:1:pos:R:3:forces:R:3 energy=-32.87909698486328 free_energy=-32.87909698486328 stress="0.0002183899050578475 -1.57342313400477e-07 1.2958222939118968e-08 -1.57342313400477e-07 0.00021849684708286077 -2.55161758389022e-08 1.2958222939118968e-08 -2.55161758389022e-08 0.0002186174679081887" pbc="T T T"
Rb       2.20398987       1.55845592       3.81742220      -0.00000041      -0.00000013      -0.00000039
Rb       6.61196830       4.67536735      11.45226598       0.00000006       0.00000014       0.00000071
Mo      -0.00000095      -0.00000095       0.00000115       0.00001382       0.00001080      -0.00001690
Br       2.10296695       1.48702218       7.63484392      -0.00707191      -0.00500114       0.00000021
Br       6.71299152       4.74680168       7.63484428       0.00705816       0.00498965      -0.00000052
Br       5.56048431       1.48702254       5.63864620       0.00353869      -0.00500317      -0.00612803
Br       3.25547409       4.74680000       9.63104158      -0.00354385       0.00501114       0.00613697
Br       3.25547363       4.74679994       5.63864653      -0.00353923       0.00500602      -0.00613110
Br       5.56048413       1.48702340       9.63104163       0.00354487      -0.00501323       0.00613903
