9
Lattice="5.447159805844317 2.151571424422977e-07 3.1449189980870758 1.8157200237551405 5.135632206426906 3.144919196196444 -3.039703256588293e-07 2.7693936820355998e-08 6.289838522666414" Properties=species:S:1:pos:R:3:forces:R:3 energy=-44.16143035888672 free_energy=-44.16143035888672 stress="0.000116451941721607 -1.9700523878896092e-08 -4.179294066375405e-08 -1.9700523878896092e-08 0.0001166277943411842 1.503819291315267e-08 -4.179294066375405e-08 1.503819291315267e-08 0.00011644171900115907" pbc="T T T"
Rb       1.81572028       1.28390899       3.14491880       0.00000136      -0.00000044      -0.00000003
Rb       5.44715923       3.85172338       9.43475819      -0.00000102       0.00000109      -0.00000189
Mn      -0.00000012       0.00000014       0.00000015      -0.00000609       0.00000620      -0.00000014
F        1.51004700       1.06776522       6.28983829      -0.00600863      -0.00425056      -0.00000001
F        5.75283255       4.06786702       6.28983825       0.00600815       0.00425102      -0.00000064
F        4.69213574       1.06776630       4.45265785       0.00300600      -0.00425358      -0.00520167
F        2.57074334       4.06786650       8.12701892      -0.00300188       0.00424926       0.00519650
F        2.57074406       4.06786647       4.45265789      -0.00300574       0.00425248      -0.00519918
F        4.69213540       1.06776582       8.12701828       0.00300826      -0.00425564       0.00520709
