9
Lattice="6.292548617653964 2.610975439366545e-07 3.6330042209197653 2.0975163236100363 5.932670877588408 3.6330044433834825 -2.9730593362199823e-07 6.223472480231745e-08 7.26600895678806" Properties=species:S:1:pos:R:3:forces:R:3 energy=-25.89246368408203 free_energy=-25.89246368408203 stress="-1.2813412467949092e-05 4.1633938963059336e-08 -2.2418618073061225e-08 4.1633938963059336e-08 -1.2847865036746953e-05 6.067301661083491e-10 -2.2418618073061225e-08 6.067301661083491e-10 -1.282359880860895e-05" pbc="T T T"
Rb       2.09751529       1.48316777       3.63300436       0.00000120       0.00000029      -0.00000023
Rb       6.29254931       4.44950395      10.89901266      -0.00000184      -0.00000045       0.00000072
Ni       0.00000085       0.00000064       0.00000211      -0.00000956      -0.00001107      -0.00001949
Br       2.00190160       1.41556022       7.26600889       0.00063282       0.00044388       0.00000109
Br       6.38816122       4.51711158       7.26600912      -0.00061908      -0.00043908      -0.00000229
Br       5.29159798       1.41555724       5.36670247      -0.00031804       0.00045121       0.00054893
Br       3.09846758       4.51711253       9.16531404       0.00031081      -0.00044033      -0.00053447
Br       3.09846639       4.51711274       5.36670254       0.00031868      -0.00044736       0.00054586
Br       5.29159808       1.41555791       9.16531501      -0.00031480       0.00044298      -0.00053990
