9
Lattice="7.210687348630332 -1.231463896010851e-07 4.16309259881964 2.4035623304546716 6.798301491727635 4.1630926039899 6.996065579551386e-08 5.58020075879402e-08 8.32618507646383" Properties=species:S:1:pos:R:3:forces:R:3 energy=-29.773313522338867 free_energy=-29.773313522338867 stress="4.2503677832428366e-05 1.976927777036508e-08 4.584599810897316e-09 1.976927777036508e-08 4.250095662428066e-05 -1.8673764756726996e-08 4.584599810897316e-09 -1.8673764756726996e-08 4.2476935050217435e-05" pbc="T T T"
Rb       2.40356291       1.69957588       4.16309298       0.00000063       0.00000055      -0.00000066
Rb       7.21068688       5.09872570      12.48927720      -0.00000092      -0.00000049       0.00000086
Nb       0.00000051       0.00000007      -0.00000110      -0.00000405      -0.00000044       0.00000873
I        2.30803724       1.63202888       8.32618497      -0.00129788      -0.00091809       0.00000006
I        7.30621189       5.16627236       8.32618511       0.00130091       0.00092047       0.00000008
I        6.05666860       1.63202899       6.16191197       0.00065040      -0.00092000      -0.00112683
I        3.55758098       5.16627304      10.49045903      -0.00064695       0.00091500       0.00112089
I        3.55758101       5.16627219       6.16191207      -0.00065068       0.00092142      -0.00112747
I        6.05666892       1.63202860      10.49045894       0.00064861      -0.00091842       0.00112444
