9
Lattice="5.398959722559529 1.8455185036500154e-07 3.117090858839987 1.7996533667698202 5.090188497334815 3.117090942117813 -5.5357408881367654e-08 6.285049303286905e-08 6.234181813561803" Properties=species:S:1:pos:R:3:forces:R:3 energy=-49.516902923583984 free_energy=-49.516902923583984 stress="0.0001503879320807755 9.789317800823483e-08 3.4869625409328364e-08 9.789317800823483e-08 0.00015033563249744475 -7.00656732632865e-09 3.4869625409328364e-08 -7.00656732632865e-09 0.00015020975843071938" pbc="T T T"
Rb       1.79965328       1.27254697       3.11709101       0.00000022       0.00000023      -0.00000022
Rb       5.39895986       3.81764139       9.35127305       0.00000005      -0.00000027       0.00000079
Nb      -0.00000004       0.00000004      -0.00000008      -0.00000366      -0.00000280       0.00000227
F        1.64242229       1.16136785       6.23418181      -0.00329369      -0.00232905      -0.00000023
F        5.55619004       3.92882057       6.23418173       0.00329846       0.00233194      -0.00000023
F        4.57774887       1.16136776       4.53946999       0.00164348      -0.00232494      -0.00284785
F        2.62086438       3.92882137       7.92889344      -0.00164333       0.00232396       0.00284648
F        2.62086439       3.92882092       4.53947022      -0.00164574       0.00232697      -0.00285000
F        4.57774857       1.16136815       7.92889303       0.00164419      -0.00232625       0.00284892
