9
Lattice="5.437094520941929 1.0211226167540568e-06 3.1391106928547963 1.8123657045333437 5.126140993358151 3.1391108634691545 4.4186486327842653e-07 5.214047206250263e-07 6.278220620377185" Properties=species:S:1:pos:R:3:forces:R:3 energy=-34.84648895263672 free_energy=-34.84648895263672 stress="9.262511753149738e-07 1.637225324202518e-07 -2.563224832385913e-08 1.637225324202518e-07 8.342539103978197e-07 -3.6810863690561746e-08 -2.563224832385913e-08 -3.6810863690561746e-08 1.2190232610009843e-06" pbc="T T T"
Rb       1.81236292       1.28153544       3.13911171      -0.00000116       0.00000124       0.00000129
Rb       5.43709490       3.84460879       9.41732853      -0.00000022       0.00000318       0.00000176
Ni      -0.00000040       0.00000036       0.00000055       0.00000125      -0.00000716      -0.00001380
F        1.46777857       1.03787457       6.27822014       0.00001571       0.00001334       0.00000288
F        5.78168268       4.08826625       6.27822259      -0.00001276      -0.00000790      -0.00000049
F        4.70320722       1.03787500       4.41024608      -0.00000980       0.00001620       0.00000340
F        2.54625402       4.08826820       8.14619818       0.00000919      -0.00001432      -0.00000477
F        2.54625265       4.08826794       4.41024553       0.00000957      -0.00001808       0.00000948
F        4.70320955       1.03787482       8.14619563      -0.00001155       0.00001352       0.00000036
