9
Lattice="6.073231835847326 -2.6194401700646998e-08 3.5063820440757754 2.024410573262564 5.725897964137835 3.5063820683075635 -3.9139941822106855e-08 2.001629923767602e-09 7.012764155943916" Properties=species:S:1:pos:R:3:forces:R:3 energy=-28.501720428466797 free_energy=-28.501720428466797 stress="-0.00015523144975304604 -7.98900767762234e-09 1.1339407635091447e-08 -7.98900767762234e-09 -0.0001552267058286816 -1.2949160854702768e-08 1.1339407635091447e-08 -1.2949160854702768e-08 -0.0001552052126498893" pbc="T T T"
Rb       2.02441061       1.43147451       3.50638204      -0.00000054      -0.00000004      -0.00000001
Rb       6.07323172       4.29442341      10.51914617       0.00000094      -0.00000001      -0.00000022
Ni      -0.00000009       0.00000007      -0.00000005       0.00000076       0.00000165       0.00000165
Cl       1.88804425       1.33504894       7.01276413      -0.00095657      -0.00067589       0.00000023
Cl       6.20959810       4.39084899       7.01276408       0.00095475       0.00067508       0.00000037
Cl       5.12920960       1.33504903       5.14147636       0.00047901      -0.00067717      -0.00082833
Cl       2.96843271       4.39084893       8.88405198      -0.00047790       0.00067583       0.00082657
Cl       2.96843287       4.39084894       5.14147636      -0.00047898       0.00067687      -0.00082797
Cl       5.12920968       1.33504899       8.88405198       0.00047854      -0.00067639       0.00082740
