9
Lattice="6.310545341659718 2.4474816203623796e-08 3.6433948423604474 2.1035153114204985 5.949638848152929 3.643394540188825 1.8461087705999417e-07 -2.3954355237315645e-07 7.286789364965404" Properties=species:S:1:pos:R:3:forces:R:3 energy=-37.66941452026367 free_energy=-37.66941452026367 stress="5.907099330215715e-05 8.502873072302464e-08 7.54505791178417e-08 8.502873072302464e-08 5.899887401028536e-05 -1.1256304333073786e-07 7.54505791178417e-08 -1.1256304333073786e-07 5.888596933800727e-05" pbc="T T T"
Rb       2.10351518       1.48740975       3.64339487      -0.00000008       0.00000023       0.00000021
Rb       6.31054548       4.46222914      10.93018350       0.00000012      -0.00000024       0.00000040
Nb       0.00000045       0.00000021      -0.00000308      -0.00000895       0.00000338       0.00004666
Cl       1.98913675       1.40653124       7.28678913      -0.00124937      -0.00088249       0.00000141
Cl       6.42492443       4.54310683       7.28678925       0.00125226       0.00088601       0.00000069
Cl       5.31597751       1.40653133       5.36603648       0.00062601      -0.00088432      -0.00108117
Cl       3.09808240       4.54310875       9.20754488      -0.00060818       0.00085975       0.00105059
Cl       3.09808368       4.54310634       5.36603690      -0.00062995       0.00089160      -0.00108825
Cl       5.31597764       1.40653086       9.20754325       0.00061816      -0.00087394       0.00106935
