9
Lattice="6.6445175076509715 -1.7671041286687145e-07 3.8362144618841905 2.2148392614936947 6.2645106611728005 3.8362140134892497 3.8985249427270253e-07 -2.735020023407888e-07 7.672428248524189" Properties=species:S:1:pos:R:3:forces:R:3 energy=-33.87938690185547 free_energy=-33.87938690185547 stress="-0.00026176930987276137 -3.968451522951e-08 4.6712148815686305e-08 -3.968451522951e-08 -0.0002617581922095269 -4.725616520317999e-08 4.6712148815686305e-08 -4.725616520317999e-08 -0.00026166593306697905" pbc="T T T"
Rb       2.21483966       1.56612762       3.83621362       0.00000016      -0.00000024       0.00000047
Rb       6.64451760       4.69838306      11.50864299      -0.00000027       0.00000004      -0.00000038
Nb       0.00000045      -0.00000041       0.00000076      -0.00000708       0.00000675      -0.00000999
Br       2.12498816       1.50259222       7.67242840      -0.00646617      -0.00457053      -0.00000069
Br       6.73436940       4.76191771       7.67242818       0.00646643       0.00457259       0.00000101
Br       5.58202374       1.50259239       5.67650883       0.00323383      -0.00457288      -0.00560370
Br       3.27733305       4.76191759       9.66834812      -0.00323309       0.00457295       0.00560237
Br       3.27733361       4.76191736       5.67650907      -0.00323510       0.00457324      -0.00560409
Br       5.58202297       1.50259334       9.66834698       0.00324129      -0.00458191       0.00561495
