9
Lattice="5.299909924220192 9.641635846058732e-08 3.059904514636227 1.7666367162973502 4.996802980248834 3.0599045423690514 1.7021297710834327e-08 4.600150786755785e-08 6.119808999790698" Properties=species:S:1:pos:R:3:forces:R:3 energy=-45.08012390136719 free_energy=-45.08012390136719 stress="0.0005524877342395484 4.104550299643961e-08 -4.852791946063917e-09 4.104550299643961e-08 0.0005524220177903771 3.8994887319177e-09 -4.852791946063917e-09 3.8994887319177e-09 0.0005524303996935487" pbc="T T T"
Rb       1.76663689       1.24920080       3.05990458      -0.00000073      -0.00000040      -0.00000001
Rb       5.29990976       3.74760228       9.17971316       0.00000060       0.00000041       0.00000069
Os       0.00000018      -0.00000016       0.00000002      -0.00000657       0.00000949      -0.00000576
F        1.62409794       1.14841072       6.11980916      -0.00577733      -0.00408541      -0.00000007
F        5.44244855       3.84839246       6.11980917       0.00577774       0.00408435      -0.00000005
F        4.48786125       1.14841043       4.46641446       0.00288803      -0.00408367      -0.00500129
F        2.57868539       3.84839281       7.77320367      -0.00288611       0.00408130       0.00499981
F        2.57868540       3.84839284       4.46641429      -0.00288452       0.00407904      -0.00499661
F        4.48786125       1.14841031       7.77320371       0.00288900      -0.00408510       0.00500327
