9
Lattice="7.051871078474096 1.2104588929480654e-07 4.071399582174549 2.350623782391297 6.6485678641807615 4.071399624707764 -3.229034031676144e-08 2.9259623538770147e-08 8.142799220277604" Properties=species:S:1:pos:R:3:forces:R:3 energy=-27.765663146972656 free_energy=-27.765663146972656 stress="0.00017050743917934597 1.1458532789276887e-08 1.7758728931838164e-09 1.1458532789276887e-08 0.00017049525922629982 -3.577974805324402e-09 1.7758728931838164e-09 -3.577974805324402e-09 0.00017050262249540538" pbc="T T T"
Rb       2.35062373       1.66214194       4.07139961      -0.00000026       0.00000014       0.00000018
Rb       7.05187110       4.98642607      12.21419879       0.00000021       0.00000001      -0.00000008
Os      -0.00000003       0.00000006       0.00000028      -0.00000155       0.00000110      -0.00000364
I        2.22178077       1.57103630       8.14279923       0.00204128       0.00144331      -0.00000009
I        7.18071416       5.07753172       8.14279930      -0.00204042      -0.00144323       0.00000030
I        5.94098068       1.57103631       5.99551812      -0.00102175       0.00144389       0.00176923
I        3.46151417       5.07753159      10.29008013       0.00102096      -0.00144326      -0.00176823
I        3.46151408       5.07753167       5.99551811       0.00102180      -0.00144507       0.00176965
I        5.94098068       1.57103639      10.29008014      -0.00102029       0.00144317      -0.00176749
