9
Lattice="6.209627178186943 2.9266988789282477e-07 3.5851293817898022 2.069875902251338 5.854492916065682 3.585129554549601 -4.934364406193359e-08 1.7669531919970533e-07 7.17025884904533" Properties=species:S:1:pos:R:3:forces:R:3 energy=-34.874149322509766 free_energy=-34.874149322509766 stress="-2.8217625640536426e-06 8.187972611040095e-08 -7.74977859663295e-09 8.187972611040095e-08 -2.874000529118348e-06 4.151797572404803e-09 -7.74977859663295e-09 4.151797572404803e-09 -2.9757579795841593e-06" pbc="T T T"
Rb       2.06987603       1.46362325       3.58512946      -0.00000060      -0.00000010       0.00000014
Rb       6.20962721       4.39087008      10.75538898      -0.00000002      -0.00000007      -0.00000096
Os       0.00000056      -0.00000022      -0.00000007      -0.00001136      -0.00000024       0.00000222
Cl       1.92890780       1.36394397       7.17025855       0.00233653       0.00165161      -0.00000032
Cl       6.35059512       4.49054975       7.17025864      -0.00233153      -0.00164819       0.00000080
Cl       5.24517349       1.36394382       5.25561143      -0.00116871       0.00165409       0.00202727
Cl       3.03432903       4.49054953       9.08490621       0.00117360      -0.00165632      -0.00203136
Cl       3.03432936       4.49054999       5.25561140       0.00117224      -0.00165701       0.00203142
Cl       5.24517353       1.36394342       9.08490645      -0.00117028       0.00165650      -0.00202942
