9
Lattice="6.547786727534192 -4.315980390352582e-08 3.780366317030773 2.1825955335194243 6.173312033952401 3.7803663198606245 4.769144994462408e-08 3.7188783337225306e-08 7.560732551457651" Properties=species:S:1:pos:R:3:forces:R:3 energy=-31.246074676513672 free_energy=-31.246074676513672 stress="-1.5865919067437062e-06 1.785546110966152e-08 5.8547002801390136e-09 1.785546110966152e-08 -1.602931774868921e-06 -9.533246414505925e-10 5.8547002801390136e-09 -9.533246414505925e-10 -1.6330732250935398e-06" pbc="T T T"
Rb       2.18259531       1.54332800       3.78036630       0.00000010       0.00000022      -0.00000006
Rb       6.54778685       4.62998395      11.34109896       0.00000001      -0.00000016      -0.00000001
Os      -0.00000022      -0.00000001      -0.00000111       0.00000027      -0.00000126       0.00001668
Br       2.05145355       1.45059668       7.56073259       0.00139524       0.00098661      -0.00000019
Br       6.67892811       4.72271528       7.56073247      -0.00139289      -0.00098564       0.00000047
Br       5.52206005       1.45059678       5.55697727      -0.00069671       0.00098436       0.00120659
Br       3.20832252       4.72271564       9.56448841       0.00070028      -0.00099105      -0.00121409
Br       3.20832281       4.72271533       5.55697729       0.00069468      -0.00098442       0.00120552
Br       5.52206026       1.45059628       9.56448858      -0.00070095       0.00099130      -0.00121480
