9
Lattice="5.305586871172433 1.5751297835451557e-07 3.0631820225085415 1.7685290511862621 5.002155464017276 3.063182116690312 -3.225532274773447e-08 9.254072396516083e-08 6.1263641008849925" Properties=species:S:1:pos:R:3:forces:R:3 energy=-37.123329162597656 free_energy=-37.123329162597656 stress="-0.00024895640672184527 -7.86001930208613e-09 2.7673619840129504e-08 -7.86001930208613e-09 -0.0002489418548066169 -2.1608030920106103e-08 2.7673619840129504e-08 -2.1608030920106103e-08 -0.00024892116198316216" pbc="T T T"
Rb       1.76852879       1.25053852       3.06318216       0.00000025       0.00000079       0.00000041
Rb       5.30558687       3.75161713       9.18954655       0.00000070      -0.00000126      -0.00000009
Pd      -0.00000014      -0.00000002       0.00000011       0.00000348       0.00000282      -0.00001557
F        1.59392695       1.12707624       6.12636405       0.00042035       0.00029818       0.00000017
F        5.48018904       3.87507928       6.12636397      -0.00042248      -0.00029961       0.00000080
F        4.50862367       1.12707618       4.44356317      -0.00021365       0.00030211       0.00036920
F        2.56549239       3.87507944       7.80916492       0.00020953      -0.00029731      -0.00036201
F        2.56549232       3.87507962       4.44356329       0.00021065      -0.00030050       0.00036631
F        4.50862361       1.12707647       7.80916475      -0.00020884       0.00029488      -0.00035921
