9
Lattice="6.4849919309082225 -2.388424553379411e-07 3.744111862992647 2.1616639195833707 6.114108584610074 3.744111572360386 3.4270805588861376e-07 -1.1361929141196002e-07 7.488223132397492" Properties=species:S:1:pos:R:3:forces:R:3 energy=-28.36329460144043 free_energy=-28.36329460144043 stress="0.00024748139549046755 -3.112987201348005e-08 1.324723264417571e-08 -3.112987201348005e-08 0.00024748477153480053 -5.76659653361844e-09 1.324723264417571e-08 -5.76659653361844e-09 0.0002474782522767782" pbc="T T T"
Rb       2.16166424       1.52852728       3.74411187      -0.00000016       0.00000004       0.00000039
Rb       6.48499180       4.58558122      11.23233468      -0.00000011      -0.00000027      -0.00000025
Pb       0.00000055       0.00000021      -0.00000238      -0.00000681       0.00000320       0.00004346
Cl       2.10256684       1.48673772       7.48822326      -0.00529227      -0.00373958       0.00000112
Cl       6.54408970       4.62736996       7.48822277       0.00529424       0.00374193       0.00000239
Cl       5.43370749       1.48673918       5.56498843       0.00265705      -0.00375464      -0.00459915
Cl       3.21294697       4.62737034       9.41145981      -0.00263937       0.00373095       0.00457074
Cl       3.21294807       4.62736925       5.56498816      -0.00265502       0.00375285      -0.00459544
Cl       5.43370917       1.48673770       9.41145959       0.00264237      -0.00373454       0.00457675
