9
Lattice="7.039818452093404 1.1253698899930462e-06 4.064440214389319 2.346607209845799 6.63720359224838 4.064440217612816 3.798843008402107e-08 3.080972366874712e-08 8.128880362980771" Properties=species:S:1:pos:R:3:forces:R:3 energy=-22.546100616455078 free_energy=-22.546100616455078 stress="-8.431569585809484e-05 4.7790223334231996e-08 1.7929430384810985e-08 4.7790223334231996e-08 -8.431333117187023e-05 -1.032461849348465e-08 1.7929430384810985e-08 -1.032461849348465e-08 -8.433408220298588e-05" pbc="T T T"
Rb       2.34660623       1.65930116       4.06444025       0.00000032      -0.00000005       0.00000007
Rb       7.03981956       4.97790366      12.19332070      -0.00000043       0.00000013       0.00000009
P       -0.00000015       0.00000009       0.00000029       0.00000028      -0.00000033      -0.00000096
I        2.27658898       1.60979348       8.12888128       0.00535847       0.00378653      -0.00000081
I        7.10983674       5.02741109       8.12887993      -0.00535764      -0.00378612       0.00000081
I        5.90152542       1.60979203       6.03602370      -0.00268178       0.00379077       0.00464103
I        3.48490038       5.02741227      10.22173634       0.00268113      -0.00379018      -0.00464004
I        3.48490089       5.02741243       6.03602464       0.00267979      -0.00378944       0.00463943
I        5.90152482       1.60979274      10.22173592      -0.00268012       0.00378874      -0.00463957
