9
Lattice="5.468678988828462 1.347471557483351e-07 3.1573432701500193 1.822893043165978 5.155920536445705 3.157343408975956 4.9863343054619326e-08 2.0528499453428113e-07 6.314686453934258" Properties=species:S:1:pos:R:3:forces:R:3 energy=-38.68024826049805 free_energy=-38.68024826049805 stress="4.292536323191598e-05 -3.8650458833444645e-08 4.437402978396676e-08 -3.8650458833444645e-08 4.2940082494169474e-05 -5.6652378788157876e-08 4.437402978396676e-08 -5.6652378788157876e-08 4.292483572498895e-05" pbc="T T T"
Rb       1.82289314       1.28898004       3.15734289      -0.00000003      -0.00000006      -0.00000061
Rb       5.46867860       3.86694019       9.47202918       0.00000051      -0.00000062       0.00000143
Pt      -0.00000005       0.00000001       0.00000015       0.00000198       0.00000231      -0.00000572
F        1.61444986       1.14158857       6.31468658      -0.00032157      -0.00022759      -0.00000098
F        5.67712198       4.01433235       6.31468651       0.00032099       0.00022716       0.00000077
F        4.66145451       1.14158919       4.55549776       0.00015877      -0.00022798      -0.00027686
F        2.63011871       4.01433186       8.07387566      -0.00016396       0.00023053       0.00028039
F        2.63011807       4.01433194       4.55549798      -0.00016309       0.00023017      -0.00028203
F        4.66145337       1.14158949       8.07387589       0.00016645      -0.00023385       0.00028361
