9
Lattice="6.903999819230808 2.5557604862287566e-08 3.9860261931763095 2.3013331984074368 6.509153646694156 3.9860263642428673 -2.1551612200974165e-07 5.712001832830304e-08 7.972052759637354" Properties=species:S:1:pos:R:3:forces:R:3 energy=-25.454620361328125 free_energy=-25.454620361328125 stress="0.00016575133486185223 2.722192071757945e-08 -1.676645311476932e-08 2.722192071757945e-08 0.00016574304027017206 2.0068849693188895e-08 -1.676645311476932e-08 2.0068849693188895e-08 0.00016569379658903927" pbc="T T T"
Rb       2.30133304       1.62728842       3.98602632      -0.00000010       0.00000004      -0.00000004
Rb       6.90399954       4.88186530      11.95807918      -0.00000013      -0.00000031      -0.00000045
Pb      -0.00000149      -0.00000170      -0.00000242       0.00001032       0.00001113       0.00001861
Br       2.32216958       1.64202302       7.97205302      -0.00218493      -0.00154597       0.00000002
Br       6.88316511       4.86713209       7.97205250       0.00217280       0.00153735      -0.00000077
Br       5.74291474       1.64202230       5.99708405       0.00109211      -0.00154403      -0.00189082
Br       3.46241730       4.86713284       9.94702249      -0.00108644       0.00153577       0.00188070
Br       3.46241798       4.86713203       5.99708376      -0.00108980       0.00154100      -0.00188550
Br       5.74291539       1.64202065       9.94702237       0.00108609      -0.00153498       0.00187834
