9
Lattice="5.259567772397597 2.491698482424899e-07 3.0366131541766053 1.75318943617922 4.958768471748591 3.036613251528734 5.301691070835021e-08 1.5672013744403697e-07 6.073226216525133" Properties=species:S:1:pos:R:3:forces:R:3 energy=-43.09980392456055 free_energy=-43.09980392456055 stress="-0.00019462744239717722 1.0002619177384986e-07 -1.705893559744709e-08 1.0002619177384986e-07 -0.00019452741253189743 3.127627579146974e-08 -1.705893559744709e-08 3.127627579146974e-08 -0.0001945296098710969" pbc="T T T"
Rb       1.75318975       1.23969221       3.03661358       0.00000096       0.00000125      -0.00000146
Rb       5.25956811       3.71907673       9.10983970      -0.00000158       0.00000074       0.00000004
P       -0.00000006       0.00000014      -0.00000012      -0.00000090      -0.00000697      -0.00000166
F        1.35991190       0.96160384       6.07322621       0.00331646       0.00234166       0.00000244
F        5.65284575       3.99716548       6.07322648      -0.00332195      -0.00234616      -0.00000139
F        4.57961162       0.96160307       4.21433126      -0.00165966       0.00235087       0.00287652
F        2.43314524       3.99716542       7.93212074       0.00166196      -0.00234279      -0.00287008
F        2.43314493       3.99716570       4.21433143       0.00166634      -0.00234702       0.00287396
F        4.57961187       0.96160333       7.93212114      -0.00166145       0.00234830      -0.00287825
