9
Lattice="6.39594593075224 1.3302638202399562e-07 3.692700537107871 2.131982123538302 6.030155217026382 3.6927005003838422 -1.0448490043006477e-07 -1.1885947895241657e-07 7.38540125518882" Properties=species:S:1:pos:R:3:forces:R:3 energy=-25.759614944458008 free_energy=-25.759614944458008 stress="-6.20758073637262e-05 1.4981793583501712e-07 -1.7420889175667753e-09 1.4981793583501712e-07 -6.219193892320618e-05 4.81697481902188e-09 -1.7420889175667753e-09 4.81697481902188e-09 -6.227329868124798e-05" pbc="T T T"
Rb       2.13198199       1.50753891       3.69270051       0.00000019       0.00000018       0.00000023
Rb       6.39594591       4.52261658      11.07810112      -0.00000030      -0.00000031       0.00000035
Pd       0.00000038       0.00000024      -0.00000139      -0.00001230      -0.00000508       0.00002824
Br       2.05389026       1.45231948       7.38540109       0.00186229       0.00131698      -0.00000046
Br       6.47403702       4.57783571       7.38540090      -0.00185282      -0.00131101      -0.00000079
Br       5.36900183       1.45231762       5.47142054      -0.00093269       0.00132058       0.00161364
Br       3.15892565       4.57783776       9.29938318       0.00094128      -0.00133086      -0.00162968
Br       3.15892632       4.57783707       5.47141985       0.00093417      -0.00132076       0.00161621
Br       5.36900222       1.45231743       9.29938353      -0.00093978       0.00133019      -0.00162772
