9
Lattice="7.441281073653353 1.1523478202018779e-07 4.296225824053021 2.480427078635753 7.0157074536043265 4.29622591855365 -1.0854982154626076e-07 3.898268202243236e-08 8.592451836119997" Properties=species:S:1:pos:R:3:forces:R:3 energy=-22.797073364257812 free_energy=-22.797073364257812 stress="0.00013978881179355085 -8.512465399235225e-09 -5.040526662725142e-09 -8.512465399235225e-09 0.00013980265066493303 -7.82956988132355e-09 -5.040526662725142e-09 -7.82956988132355e-09 0.0001398169988533482" pbc="T T T"
Rb       2.48042714       1.75392679       4.29622620      -0.00000046      -0.00000037       0.00000005
Rb       7.44128107       5.26178099      12.88867770       0.00000058      -0.00000047      -0.00000024
Pb      -0.00000139      -0.00000089      -0.00000017       0.00000583       0.00000278       0.00000059
I        2.59084204       1.83200234       8.59245152      -0.00419119      -0.00296390       0.00000164
I        7.33086626       5.18370604       8.59245154       0.00418648       0.00296144      -0.00000051
I        6.14586027       1.83200153       6.53996275       0.00209563      -0.00296402      -0.00363103
I        3.77584814       5.18370646      10.64494031      -0.00209563       0.00296317       0.00363120
I        3.77584658       5.18370446       6.53996343      -0.00209580       0.00296447      -0.00363186
I        6.14586214       1.83200270      10.64494116       0.00209454      -0.00296310       0.00363021
