9
Lattice="7.044171721764224 1.6694308397358167e-08 4.066954433238644 2.348057263877085 6.641308805241171 4.0669544201626 -1.326128542453934e-09 -1.695252169828128e-08 8.1339088687742" Properties=species:S:1:pos:R:3:forces:R:3 energy=-23.999570846557617 free_energy=-23.999570846557617 stress="0.00018939941946882755 4.283098320456702e-09 -3.8332537144469825e-09 4.283098320456702e-09 0.00018939301662612706 6.109543981835941e-09 -3.8332537144469825e-09 6.109543981835941e-09 0.0001893922599265352" pbc="T T T"
Rb       2.34805717       1.66032722       4.06695440       0.00000040      -0.00000024      -0.00000011
Rb       7.04417178       4.98098164      12.20086332      -0.00000016       0.00000016       0.00000033
Pt       0.00000017       0.00000010       0.00000030      -0.00000237      -0.00000027      -0.00000441
I        2.21699969       1.56765551       8.13390885       0.00090387       0.00063932      -0.00000004
I        7.17522911       5.07365320       8.13390881      -0.00090262      -0.00063862      -0.00000049
I        5.93567191       1.56765562       5.98693261      -0.00045200       0.00063914       0.00078243
I        3.45655713       5.07365312      10.28088504       0.00045109      -0.00063758      -0.00078055
I        3.45655704       5.07365317       5.98693253       0.00045250      -0.00063938       0.00078341
I        5.93567192       1.56765564      10.28088502      -0.00045072       0.00063749      -0.00078045
