9
Lattice="5.615674636580951 -3.3030813798611505e-08 3.242211459232648 1.8718915027578038 5.294509205595514 3.2422114793719587 6.406768050191822e-08 6.996820851453379e-08 6.484422807496809" Properties=species:S:1:pos:R:3:forces:R:3 energy=-38.524959564208984 free_energy=-38.524959564208984 stress="0.00028673329507000744 -8.029386577845798e-08 -1.8423671477307835e-09 -8.029386577845798e-08 0.00028694039792753756 4.0036837845036644e-08 -1.8423671477307835e-09 4.0036837845036644e-08 0.0002869043964892626" pbc="T T T"
Rb       1.87189181       1.32362724       3.24221200       0.00000019      -0.00000002      -0.00000021
Rb       5.61567460       3.97088167       9.72663339      -0.00000056       0.00000079       0.00000024
Pb       0.00000005       0.00000008       0.00000013      -0.00000185       0.00000760      -0.00000526
F        1.71896295       1.21549089       6.48442303      -0.00134411      -0.00095129      -0.00000159
F        5.76860358       4.07901833       6.48442320       0.00133911       0.00095113       0.00000006
F        4.75619277       1.21549101       4.73087788       0.00067717      -0.00095756      -0.00117354
F        2.73137348       4.07901779       8.23796804      -0.00067574       0.00095804       0.00117035
F        2.73137283       4.07901854       4.73087761      -0.00067233       0.00095077      -0.00116429
F        4.75619262       1.21549136       8.23796797       0.00067799      -0.00095923       0.00117433
