9
Lattice="7.101734601155096 -1.3172370949743057e-06 4.1001897241084455 2.367243832149024 6.695580133186867 4.100189365573023 2.403235899531553e-07 -2.6917985677933584e-07 8.20037903196417" Properties=species:S:1:pos:R:3:forces:R:3 energy=-23.05379295349121 free_energy=-23.05379295349121 stress="-2.7616217266768217e-05 -1.0912690839859351e-07 2.0613018847370768e-08 -1.0912690839859351e-07 -2.752177715592552e-05 -1.9967320241676134e-08 2.0613018847370768e-08 -1.9967320241676134e-08 -2.7442501959740184e-05" pbc="T T T"
Rb       2.36724466       1.67389456       4.10019020      -0.00000014       0.00000027       0.00000028
Rb       7.10173367       5.02168423      12.30056856       0.00000049      -0.00000027       0.00000022
Pd       0.00000277       0.00000100       0.00000489      -0.00002738      -0.00001058      -0.00005789
I        2.22969021       1.57662880       8.20038036       0.00220105       0.00155711      -0.00000051
I        7.23928670       5.11894880       8.20037919      -0.00217891      -0.00154196      -0.00000022
I        5.98688924       1.57663063       6.03116055      -0.00109862       0.00155047       0.00189936
I        3.48209047       5.11894571      10.36959382       0.00108443      -0.00152920      -0.00187303
I        3.48209150       5.11894776       6.03116110       0.00109542      -0.00155173       0.00189843
I        5.98688551       1.57663255      10.36959391      -0.00107642       0.00152587      -0.00186670
