9
Lattice="6.4135943284301495 -2.6294144026299016e-08 3.702890663029849 2.1378647846845813 6.046794731968297 3.7028906052978856 1.870545159252723e-07 6.156075557511004e-08 7.40578100207168" Properties=species:S:1:pos:R:3:forces:R:3 energy=-26.879850387573242 free_energy=-26.879850387573242 stress="-4.574369449983351e-05 -1.5996295843478947e-08 -3.688928273959391e-09 -1.5996295843478947e-08 -4.5739197958027944e-05 -1.2745208222142423e-09 -3.688928273959391e-09 -1.2745208222142423e-09 -4.5708573452429846e-05" pbc="T T T"
Rb       2.13786490       1.51169853       3.70289056      -0.00000012       0.00000038      -0.00000018
Rb       6.41359430       4.53509612      11.10867170      -0.00000003      -0.00000018       0.00000019
Pt       0.00000054      -0.00000018      -0.00000025      -0.00000637      -0.00000217       0.00000731
Br       2.04642344       1.44703981       7.40578076       0.00109271       0.00077235       0.00000004
Br       6.50503580       4.59975545       7.40578152      -0.00108819      -0.00077085      -0.00000136
Br       5.39038265       1.44703930       5.47514576      -0.00054324       0.00077069       0.00094124
Br       3.16107694       4.59975535       9.33641664       0.00054450      -0.00077149      -0.00094284
Br       3.16107639       4.59975486       5.47514575       0.00054507      -0.00076936       0.00094028
Br       5.39038235       1.44703981       9.33641679      -0.00054432       0.00077073      -0.00094469
