9
Lattice="6.189054002887048 -1.1562538083078287e-07 3.5732518771525257 2.0630178362722758 5.83509609072341 3.5732519735887576 -6.555180369748739e-08 7.175780681933853e-08 7.146503867843787" Properties=species:S:1:pos:R:3:forces:R:3 energy=-30.08172607421875 free_energy=-30.08172607421875 stress="-8.176541086868383e-06 -5.528559299250446e-08 -1.206966970812573e-08 -5.528559299250446e-08 -8.163138772943057e-06 3.75785269568496e-09 -1.206966970812573e-08 3.75785269568496e-09 -8.097564204945229e-06" pbc="T T T"
Rb       2.06301797       1.45877375       3.57325189      -0.00000049       0.00000050      -0.00000005
Rb       6.18905417       4.37632228      10.71975631      -0.00000007      -0.00000048       0.00000002
Pt       0.00000008      -0.00000034      -0.00000090      -0.00000230       0.00001091       0.00001443
Cl       1.91832402       1.35645966       7.14650408       0.00250222       0.00177117      -0.00000133
Cl       6.33374758       4.47863643       7.14650399      -0.00250371      -0.00177282      -0.00000095
Cl       5.22989140       1.35645997       5.23456958      -0.00124631       0.00176356       0.00215887
Cl       3.02218030       4.47863623       9.05843809       0.00125077      -0.00177185      -0.00216828
Cl       3.02218007       4.47863637       5.23456961       0.00124875      -0.00176879       0.00216284
Cl       5.22989144       1.35645990       9.05843846      -0.00124887       0.00176789      -0.00216555
