9
Lattice="6.563090151558405 -2.5055536337092383e-07 3.789202099507288 2.1876965686232936 6.187740549657005 3.7892019476705654 4.266194414569798e-08 -1.557946600404335e-07 7.578404125121829" Properties=species:S:1:pos:R:3:forces:R:3 energy=-33.34825134277344 free_energy=-33.34825134277344 stress="-7.807682777638547e-06 -7.345008157244592e-08 1.924209946935207e-08 -7.345008157244592e-08 -7.772192475385964e-06 -2.168724222428864e-08 1.924209946935207e-08 -2.168724222428864e-08 -7.71878785599256e-06" pbc="T T T"
Rb       2.18769668       1.54693514       3.78920212       0.00000024      -0.00000001      -0.00000028
Rb       6.56308996       4.64080489      11.36760595      -0.00000010      -0.00000006       0.00000015
Re      -0.00000073      -0.00000016      -0.00000017       0.00001047       0.00000466       0.00000238
Br       2.06520562       1.46032069       7.57840413       0.00268459       0.00189898       0.00000072
Br       6.68558177       4.72741977       7.57840400      -0.00269419      -0.00190502       0.00000096
Br       5.53048720       1.46032127       5.57772346      -0.00134057       0.00189595       0.00232200
Br       3.22029934       4.72741933       9.57908492       0.00134195      -0.00189807      -0.00232426
Br       3.22029999       4.72741857       5.57772373       0.00133834      -0.00189288       0.00231940
Br       5.53048726       1.46032096       9.57908465      -0.00134080       0.00189645      -0.00232102
