9
Lattice="5.403315514554457 3.960693651331387e-08 3.119605510073607 1.8011051714992867 5.094294796467879 3.1196055747841633 -1.0060552080595021e-07 8.115067342868907e-09 6.239211194401054" Properties=species:S:1:pos:R:3:forces:R:3 energy=-43.510013580322266 free_energy=-43.510013580322266 stress="-6.210690480656922e-05 9.159560931948363e-08 6.149614151240712e-09 9.159560931948363e-08 -6.21539875282906e-05 1.417319239749304e-08 6.149614151240712e-09 1.417319239749304e-08 -6.228558777365834e-05" pbc="T T T"
Rb       1.80110495       1.27357374       3.11960540       0.00000038       0.00000002      -0.00000009
Rb       5.40331572       3.82072134       9.35881748       0.00000001      -0.00000021      -0.00000078
Ru      -0.00000009      -0.00000006      -0.00000031      -0.00000151      -0.00000205       0.00001773
F        1.59847490       1.13029271       6.23921127      -0.00227929      -0.00161215      -0.00000067
F        5.60594571       3.96400211       6.23921080       0.00228099       0.00161345       0.00000009
F        4.60407837       1.13029227       4.50392481       0.00113571      -0.00160723      -0.00196808
F        2.60034207       3.96400269       7.97449726      -0.00113228       0.00160227       0.00196059
F        2.60034224       3.96400250       4.50392494      -0.00113633       0.00160727      -0.00196832
F        4.60407840       1.13029205       7.97449742       0.00113230      -0.00160138       0.00195976
