9
Lattice="7.06797859715125 2.4572327885720808e-08 4.08069934157231 2.3559928889895185 6.66375413643884 4.080699341389729 -3.346095049867328e-09 -2.5896620503710903e-09 8.161398688940222" Properties=species:S:1:pos:R:3:forces:R:3 energy=-29.56638526916504 free_energy=-29.56638526916504 stress="-0.00019496613822411746 1.3812482269059956e-09 -4.04529831854461e-09 1.3812482269059956e-09 -0.0001949587749550119 7.158027948150902e-09 -4.04529831854461e-09 7.158027948150902e-09 -0.00019496105960570276" pbc="T T T"
Rb       2.35599288       1.66593850       4.08069936      -0.00000036       0.00000025      -0.00000002
Rb       7.06797860       4.99781565      12.24209808       0.00000048      -0.00000015       0.00000011
Re       0.00000007       0.00000003       0.00000014       0.00000073      -0.00000035      -0.00000082
I        2.24401764       1.58676008       8.16139865      -0.00236230      -0.00167078      -0.00000011
I        7.17995375       5.07699403       8.16139862       0.00236271       0.00167069      -0.00000015
I        5.94596983       1.58676007       6.02407567       0.00118075      -0.00166953      -0.00204547
I        3.47800165       5.07699414      10.29872163      -0.00118165       0.00167006       0.00204634
I        3.47800167       5.07699413       6.02407567      -0.00118156       0.00166994      -0.00204594
I        5.94596983       1.58676001      10.29872165       0.00118122      -0.00167026       0.00204606
