9
Lattice="5.419019432734488 8.204897612916939e-08 3.128672158964417 1.8063399177607722 5.109100153522631 3.128672107881446 5.67639529165281e-08 -2.242541981334775e-08 6.257344219610812" Properties=species:S:1:pos:R:3:forces:R:3 energy=-40.579105377197266 free_energy=-40.579105377197266 stress="-5.5420819990104064e-05 1.6358541188310483e-08 -4.170595246932862e-08 1.6358541188310483e-08 -5.545876774704084e-05 6.215121572950011e-08 -4.170595246932862e-08 6.215121572950011e-08 -5.5528620578115806e-05" pbc="T T T"
Rb       1.80634003       1.27727527       3.12867192      -0.00000017       0.00000050       0.00000030
Rb       5.41901988       3.83182483       9.38601673      -0.00000003      -0.00000001      -0.00000071
Rh       0.00000016      -0.00000008       0.00000017       0.00000997      -0.00000183      -0.00000296
F        1.59478001       1.12767990       6.25734426      -0.00114185      -0.00080785       0.00000077
F        5.63057948       3.98142090       6.25734401       0.00113517       0.00080161       0.00000112
F        4.62162915       1.12767955       4.50979126       0.00056744      -0.00080232      -0.00098105
F        2.60372981       3.98142039       8.00489696      -0.00056931       0.00080733       0.00098662
F        2.60372974       3.98142068       4.50979124      -0.00056708       0.00080261      -0.00098173
F        4.62162951       1.12767933       8.00489763       0.00056614      -0.00079978       0.00097704
