9
Lattice="6.236870206355754 2.2994827791392855e-08 3.6008588711243426 2.07895680870338 5.880177845867111 3.600858781799522 1.4066192891087053e-07 -9.937122447910502e-09 7.201717498615087" Properties=species:S:1:pos:R:3:forces:R:3 energy=-33.45949935913086 free_energy=-33.45949935913086 stress="-5.91232947044773e-06 9.847993531764132e-09 1.6817464754126377e-08 9.847993531764132e-09 -5.885967311769491e-06 -1.3466418202767727e-08 1.6817464754126377e-08 -1.3466418202767727e-08 -5.92674450672348e-06" pbc="T T T"
Rb       2.07895670       1.47004445       3.60085906       0.00000014      -0.00000035      -0.00000016
Rb       6.23687024       4.41013341      10.80257645      -0.00000006       0.00000021       0.00000012
Ru       0.00000030       0.00000053       0.00000071      -0.00000688      -0.00001030      -0.00001523
Cl       1.92248358       1.35940168       7.20171799       0.00304189       0.00214896      -0.00000103
Cl       6.39334358       4.52077609       7.20171777      -0.00303370      -0.00214404      -0.00000041
Cl       5.27562915       1.35940112       5.26577807      -0.00152351       0.00215304       0.00263754
Cl       3.04019857       4.52077621       9.13765633       0.00151734      -0.00214365      -0.00262648
Cl       3.04019830       4.52077642       5.26577799       0.00152119      -0.00214931       0.00263360
Cl       5.27562832       1.35940137       9.13765623      -0.00151654       0.00214541      -0.00262767
