9
Lattice="6.5294140680953605 2.197858987089051e-07 3.7697591214833386 2.1764715307122255 6.15599094161015 3.7697591778368715 1.3095522629540486e-08 7.827840878482184e-08 7.539518220284766" Properties=species:S:1:pos:R:3:forces:R:3 energy=-28.496091842651367 free_energy=-28.496091842651367 stress="-5.311335371516179e-06 5.4271186655796555e-08 1.6364568367066568e-08 5.4271186655796555e-08 -5.362564479582943e-06 -3.02337710422762e-08 1.6364568367066568e-08 -3.02337710422762e-08 -5.375769887905335e-06" pbc="T T T"
Rb       2.17647174       1.53899782       3.76975931       0.00000016       0.00000021      -0.00000004
Rb       6.52941401       4.61699315      11.30927732       0.00000001      -0.00000026       0.00000025
Rh       0.00000055       0.00000019       0.00000124      -0.00000891      -0.00000307      -0.00002615
Br       2.04955998       1.44925711       7.53951889       0.00119014       0.00084252      -0.00000064
Br       6.65632485       4.70673382       7.53951934      -0.00118202      -0.00083737      -0.00000156
Br       5.50463511       1.44925651       5.54472895      -0.00060097       0.00085090       0.00104041
Br       3.20125130       4.70673377       9.53430616       0.00059300      -0.00084010      -0.00102742
Br       3.20125056       4.70673467       5.54472905       0.00060024      -0.00084956       0.00103905
Br       5.50463416       1.44925795       9.53430594      -0.00059167       0.00083670      -0.00102383
