9
Lattice="6.253777289534907 -8.685983375596619e-08 3.610620157239834 2.0845922836376953 5.896118029625257 3.610620268636701 -4.048435138052167e-08 1.0780609168158772e-07 7.2212403846005175" Properties=species:S:1:pos:R:3:forces:R:3 energy=-37.22373580932617 free_energy=-37.22373580932617 stress="-6.188530096551403e-05 -1.1421084877838439e-07 -1.6944733616242047e-08 -1.1421084877838439e-07 -6.177920295158401e-05 2.259533538051528e-08 -1.6944733616242047e-08 2.259533538051528e-08 -6.172042049001902e-05" pbc="T T T"
Rb       2.08459245       1.47402956       3.61062015       0.00000043      -0.00000010      -0.00000009
Rb       6.25377706       4.42208841      10.83186076      -0.00000008      -0.00000004       0.00000023
Re      -0.00000079       0.00000089       0.00000021       0.00001476      -0.00001075      -0.00000118
Cl       1.94069432       1.37227819       7.22124060       0.00325140       0.00230004      -0.00000050
Cl       6.39767585       4.52383968       7.22124053      -0.00325906      -0.00230178       0.00000002
Cl       5.28342981       1.37227906       5.29131218      -0.00162332       0.00229503       0.00280926
Cl       3.05494009       4.52383873       9.15116836       0.00161874      -0.00228775      -0.00280368
Cl       3.05493967       4.52383892       5.29131178       0.00162092      -0.00229113       0.00280708
Cl       5.28342971       1.37227884       9.15116848      -0.00162379       0.00229642      -0.00281075
