9
Lattice="6.250844784487355 1.6304648636231372e-07 3.6089270416043173 2.083615106551611 5.893353041013919 3.6089269988789696 -2.7564406381134722e-08 -7.181846562896825e-08 7.217854130951701" Properties=species:S:1:pos:R:3:forces:R:3 energy=-31.582645416259766 free_energy=-31.582645416259766 stress="6.580969511560397e-07 6.3111059489529e-08 1.949130812306521e-08 6.3111059489529e-08 5.730817633775587e-07 -9.120233457338145e-09 1.949130812306521e-08 -9.120233457338145e-09 5.966963385617419e-07" pbc="T T T"
Rb       2.08361509       1.47333806       3.60892717      -0.00000003       0.00000005      -0.00000034
Rb       6.25084487       4.42001517      10.82678101      -0.00000009      -0.00000031       0.00000010
Rh       0.00000025      -0.00000031      -0.00000018      -0.00000895       0.00000272      -0.00000040
Cl       1.91844849       1.35654804       7.21785431       0.00321800       0.00227596      -0.00000037
Cl       6.41601070       4.53680479       7.21785420      -0.00321278      -0.00227325      -0.00000034
Cl       5.29162086       1.35654750       5.27035205      -0.00161085       0.00227842       0.00278936
Cl       3.04283914       4.53680613       9.16535610       0.00161248      -0.00228104      -0.00279073
Cl       3.04283910       4.53680584       5.27035221       0.00161166      -0.00228024       0.00278991
Cl       5.29162077       1.35654728       9.16535560      -0.00160955       0.00227758      -0.00278729
