9
Lattice="6.966062112701055 2.538762495718876e-07 4.021857992692929 2.3220208025568927 6.567666629374859 4.021858236970274 -1.8477951415630196e-07 1.6851856367371315e-07 8.04371630543337" Properties=species:S:1:pos:R:3:forces:R:3 energy=-26.376462936401367 free_energy=-26.376462936401367 stress="-3.367404860910028e-05 3.5777304674411425e-08 -1.174226760269903e-08 3.5777304674411425e-08 -3.368868783582002e-05 1.0819251272664587e-08 -1.174226760269903e-08 1.0819251272664587e-08 -3.3718475606292486e-05" pbc="T T T"
Rb       2.32202059       1.64191701       4.02185832       0.00000003      -0.00000043      -0.00000012
Rb       6.96606236       4.92575006      12.06557391       0.00000015       0.00000038       0.00000095
Ru       0.00000086      -0.00000007       0.00000105      -0.00000947       0.00000124      -0.00001035
I        2.22247243       1.57152646       8.04371670       0.00089624       0.00063338      -0.00000081
I        7.06560942       4.99613999       8.04371650      -0.00089014      -0.00062800      -0.00000139
I        5.85482519       1.57152541       5.94657558      -0.00044890       0.00063556       0.00077820
I        3.43325766       4.99614095      10.14085682       0.00044623      -0.00063318      -0.00077691
I        3.43325659       4.99614076       5.94657484       0.00045155      -0.00063695       0.00078198
I        5.85482571       1.57152752      10.14085664      -0.00044567       0.00062800      -0.00077163
