9
Lattice="5.408955555633942 -2.9537192443831543e-08 3.1228620720655993 1.802985098123969 5.099612608421831 3.1228621746713 4.6228373091872756e-09 1.2893454427652134e-07 6.245724136124578" Properties=species:S:1:pos:R:3:forces:R:3 energy=-47.837310791015625 free_energy=-47.837310791015625 stress="-0.00019728404004126787 -7.328831941322278e-08 -3.045805740953256e-08 -7.328831941322278e-08 -0.00019724028243217617 2.467317905541222e-08 -3.045805740953256e-08 2.467317905541222e-08 -0.0001971930469153449" pbc="T T T"
Rb       1.80298505       1.27490324       3.12286219       0.00000064      -0.00000036      -0.00000062
Rb       5.40895553       3.82470844       9.36858617       0.00000015       0.00000090      -0.00000080
Re       0.00000013       0.00000007      -0.00000011       0.00000246       0.00000364      -0.00000646
F        1.62225154       1.14710541       6.24572399      -0.00029314      -0.00020746       0.00000015
F        5.58968970       3.95250767       6.24572436       0.00028763       0.00020358       0.00000003
F        4.59782918       1.14710559       4.52777313       0.00014869      -0.00020953      -0.00025532
F        2.61411136       3.95250730       7.96367547      -0.00014968       0.00021241       0.00025886
F        2.61411067       3.95250735       4.52777310      -0.00014559       0.00020695      -0.00025183
F        4.59782937       1.14710553       7.96367532       0.00014885      -0.00021018       0.00025601
