9
Lattice="6.342404127059996 -2.6287259397869713e-07 3.661788832189862 2.114134521134403 5.979675681956503 3.661788728348058 2.751251272843403e-08 -1.0772538038789446e-07 7.323577616726458" Properties=species:S:1:pos:R:3:forces:R:3 energy=-26.644271850585938 free_energy=-26.644271850585938 stress="-4.559861190500669e-05 -2.2929985021846733e-08 1.3579406044073039e-08 -2.2929985021846733e-08 -4.559450826491229e-05 -3.086654132289368e-08 1.3579406044073039e-08 -3.086654132289368e-08 -4.557909051072784e-05" pbc="T T T"
Rb       2.11413484       1.49491889       3.66178895       0.00000013      -0.00000013       0.00000002
Rb       6.34240399       4.48475667      10.98536559       0.00000007      -0.00000003       0.00000036
Se      -0.00000011      -0.00000020      -0.00000005       0.00000086       0.00000106       0.00000316
Cl       1.98503756       1.40363294       7.32357783      -0.00007397      -0.00005189      -0.00000015
Cl       6.47150100       4.57604210       7.32357813       0.00007336       0.00005163      -0.00000049
Cl       5.34988517       1.40363302       5.38088214       0.00003725      -0.00005266      -0.00006464
Cl       3.10665368       4.57604215       9.26627304      -0.00003729       0.00005201       0.00006278
Cl       3.10665351       4.57604187       5.38088213      -0.00003927       0.00005515      -0.00006789
Cl       5.34988505       1.40363383       9.26627308       0.00003881      -0.00005520       0.00006681
