9
Lattice="6.404224869206441 -3.016728541922679e-07 3.697481058119983 2.1347413366119947 6.037961072495384 3.6974810616481877 -1.1682791187332166e-07 -7.828859198552862e-08 7.39496231859186" Properties=species:S:1:pos:R:3:forces:R:3 energy=-30.272567749023438 free_energy=-30.272567749023438 stress="0.0001635051448829472 -3.790423264149467e-08 7.934174206525313e-09 -3.790423264149467e-08 0.00016352836973965168 -1.750072264883329e-08 7.934174206525313e-09 -1.750072264883329e-08 0.00016355358820874244" pbc="T T T"
Rb       2.13474148       1.50949011       3.69748114      -0.00000018      -0.00000010      -0.00000004
Rb       6.40422507       4.52847027      11.09244363      -0.00000009       0.00000033      -0.00000011
Sn      -0.00000020       0.00000005       0.00000017       0.00000114       0.00000023       0.00000064
Cl       2.01863134       1.42738774       7.39496213      -0.00129250      -0.00091413       0.00000034
Cl       6.52033473       4.61057303       7.39496226       0.00129141       0.00091271      -0.00000001
Cl       5.39490846       1.42738844       5.44566744       0.00064860      -0.00091673      -0.00112138
Cl       3.14405711       4.61057296       9.34425677      -0.00064717       0.00091537       0.00112203
Cl       3.14405749       4.61057209       5.44566786      -0.00064933       0.00091880      -0.00112376
Cl       5.39490884       1.42738800       9.34425644       0.00064808      -0.00091646       0.00112227
