9
Lattice="5.280907429566477 1.9311868008523833e-07 3.0489334745718595 1.760302687585311 4.9788873542151535 3.048933424361233 1.4630831338071615e-07 4.196043349409206e-08 6.097866695730332" Properties=species:S:1:pos:R:3:forces:R:3 energy=-46.98954391479492 free_energy=-46.98954391479492 stress="-0.0001574144116602838 5.704750449808671e-08 5.676952952171632e-08 5.704750449808671e-08 -0.00015733680629637092 3.944522575238807e-08 5.676952952171632e-08 3.944522575238807e-08 -0.0001573407935211435" pbc="T T T"
Rb       1.76030336       1.24472193       3.04893364      -0.00000013      -0.00000019      -0.00000071
Rb       5.28090748       3.73416599       9.14679910      -0.00000034      -0.00000127       0.00000086
Si       0.00000023       0.00000011      -0.00000010      -0.00000564      -0.00000366       0.00000156
F        1.40379809       0.99263531       6.09786705      -0.00039715      -0.00028333      -0.00000317
F        5.63741222       3.98625260       6.09786688       0.00039619       0.00028116       0.00000044
F        4.57900855       0.99263507       4.26465808       0.00019807      -0.00027937      -0.00034016
F        2.46220097       3.98625210       7.93107553      -0.00019413       0.00028408       0.00034225
F        2.46220133       3.98625233       4.26465796      -0.00019628       0.00028127      -0.00034136
F        4.57900875       0.99263504       7.93107572       0.00019944      -0.00027874       0.00034034
