9
Lattice="7.259358102317063 6.506810161969974e-08 4.191192270314315 2.419786098758751 6.844188408962625 4.191192264587956 -5.8375416897383496e-08 -4.829112892447658e-08 8.382384641737666" Properties=species:S:1:pos:R:3:forces:R:3 energy=-23.127017974853516 free_energy=-23.127017974853516 stress="9.364855941385031e-05 1.8315645666788782e-09 -2.6866697311334065e-08 1.8315645666788782e-09 9.365160804009065e-05 4.6342929493903284e-08 -2.6866697311334065e-08 4.6342929493903284e-08 9.36462965910323e-05" pbc="T T T"
Rb       2.41978589       1.71104677       4.19119197       0.00000181       0.00000011      -0.00000047
Rb       7.25935801       5.13314141      12.57357684      -0.00000191       0.00000036       0.00000050
Sn       0.00000143       0.00000177       0.00000011      -0.00000728      -0.00000909       0.00000049
I        2.45193981       1.73378262       8.38238522      -0.00299889      -0.00212173      -0.00000042
I        7.22720224       5.11040412       8.38238441       0.00300923       0.00212845      -0.00000028
I        6.03338844       1.73378394       6.31463437       0.00149851      -0.00212216      -0.00260057
I        3.64575619       5.11040411      10.45013442      -0.00150041       0.00212467       0.00260264
I        3.64575577       5.11040529       6.31463420      -0.00150356       0.00212169      -0.00260076
I        6.03338884       1.73378363      10.45013518       0.00150253      -0.00212228       0.00259882
