9
Lattice="7.016444189109465 4.178402137900751e-07 4.050945355074832 2.338815113949552 6.6151666383607965 4.050945371870707 1.0136676486459103e-07 9.224771288954816e-08 8.101890534577306" Properties=species:S:1:pos:R:3:forces:R:3 energy=-23.6580810546875 free_energy=-23.6580810546875 stress="-0.00010664593719411641 4.595949576469138e-08 -1.1404772237710858e-08 4.595949576469138e-08 -0.00010669300536392257 5.887596632447867e-09 -1.1404772237710858e-08 5.887596632447867e-09 -0.00010673639189917594" pbc="T T T"
Rb       2.33881480       1.65379165       4.05094557       0.00000013       0.00000029      -0.00000002
Rb       7.01644466       4.96137551      12.15283578      -0.00000006      -0.00000023      -0.00000022
Si       0.00000032      -0.00000089      -0.00000065      -0.00000099       0.00000278       0.00000219
I        2.23299689       1.57896678       8.10189088       0.00532950       0.00376908       0.00000029
I        7.12226247       5.03620048       8.10189083      -0.00533019      -0.00376967      -0.00000019
I        5.89994604       1.57896686       5.98477563      -0.00266606       0.00377098       0.00461947
I        3.45531336       5.03620078      10.21900599       0.00266735      -0.00377282      -0.00462127
I        3.45531231       5.03620013       5.98477566       0.00266826      -0.00377223       0.00461949
I        5.89994676       1.57896722      10.21900535      -0.00266802       0.00377175      -0.00461978
