9
Lattice="7.178750387859417 8.520319703492032e-07 4.1446527396305965 2.392917910957089 6.76818987548899 4.144652199748923 4.82126427437425e-07 -3.203023348647207e-07 8.289304644193415" Properties=species:S:1:pos:R:3:forces:R:3 energy=-20.238460540771484 free_energy=-20.238460540771484 stress="0.00018784399435389787 1.114323833206754e-08 1.1701357216509223e-08 1.114323833206754e-08 0.00018784239364322275 -1.0581739928738898e-09 1.1701357216509223e-08 -1.0581739928738898e-09 0.00018783099949359894" pbc="T T T"
Rb       2.39291701       1.69204750       4.14465191      -0.00000020      -0.00000066      -0.00000033
Rb       7.17875153       5.07614302      12.43395767      -0.00000001       0.00000070       0.00000045
Se       0.00000074       0.00000062      -0.00000025      -0.00000105      -0.00000134      -0.00000072
I        2.34282737       1.65663229       8.28930474      -0.00703528      -0.00497499      -0.00000146
I        7.22884013       5.11155730       8.28930456       0.00703781       0.00497594       0.00000118
I        6.00733648       1.65663007       6.17360028       0.00351656      -0.00497394      -0.00608940
I        3.56433288       5.11156089      10.40500919      -0.00351751       0.00497380       0.00609066
I        3.56433334       5.11156088       6.17360093      -0.00351741       0.00497549      -0.00609221
I        6.00733562       1.65662908      10.40500942       0.00351708      -0.00497500       0.00609180
