9
Lattice="6.502380316152146 6.234217100413624e-07 3.7541499390709894 2.167460772759041 6.130502232529634 3.754149801187348 4.136511851790277e-07 1.2362259515343177e-07 7.5082991616775026" Properties=species:S:1:pos:R:3:forces:R:3 energy=-22.858293533325195 free_energy=-22.858293533325195 stress="8.624867768958211e-05 -1.073643129956281e-08 7.635861942745237e-10 -1.073643129956281e-08 8.623229223303497e-05 -1.310189912118176e-08 7.635861942745237e-10 -1.310189912118176e-08 8.624211477581412e-05" pbc="T T T"
Rb       2.16745991       1.53262589       3.75414900       0.00000066       0.00000018       0.00000080
Rb       6.50238131       4.59787743      11.26244740      -0.00000068      -0.00000058       0.00000186
S        0.00000178      -0.00000074      -0.00000083      -0.00000140       0.00000332       0.00000140
Br       2.08727755       1.47592740       7.50829969      -0.00317304      -0.00224274      -0.00000080
Br       6.58256318       4.65457423       7.50830027       0.00317364       0.00224548      -0.00000008
Br       5.45874213       1.47592864       5.56178609       0.00158694      -0.00224603      -0.00275208
Br       3.21109918       4.65457587       9.45481470      -0.00158595       0.00224171       0.00274695
Br       3.21109946       4.65457418       5.56178640      -0.00158799       0.00224404      -0.00275090
Br       5.45874169       1.47592905       9.45481269       0.00158772      -0.00224536       0.00275289
