9
Lattice="5.5585489659436975 -1.132955311538169e-07 3.209229906443523 1.852849568478918 5.240650114752028 3.2092298718363983 -5.994615675823874e-08 -8.477313859350815e-08 6.418459916716746" Properties=species:S:1:pos:R:3:forces:R:3 energy=-41.762123107910156 free_energy=-41.762123107910156 stress="5.58782703592442e-05 4.034535816543894e-09 -3.3329378368307516e-08 4.034535816543894e-09 5.583047095569782e-05 4.0630297348798194e-08 -3.3329378368307516e-08 4.0630297348798194e-08 5.585624239756726e-05" pbc="T T T"
Rb       1.85284971       1.31016293       3.20923005      -0.00000004       0.00000091       0.00000100
Rb       5.55854905       3.93048693       9.62769171       0.00000129      -0.00000001       0.00000087
Sn       0.00000017       0.00000005       0.00000006      -0.00000281      -0.00000219      -0.00000461
F        1.63641161       1.15711805       6.41845970      -0.00231373      -0.00163797      -0.00000054
F        5.77498640       4.08353188       6.41845947       0.00231785       0.00164008       0.00000050
F        4.74034352       1.15711808       4.62640389       0.00115469      -0.00163519      -0.00200275
F        2.67105529       4.08353187       8.21051513      -0.00115758       0.00163698       0.00200555
F        2.67105548       4.08353217       4.62640409      -0.00115675       0.00163415      -0.00200430
F        4.74034301       1.15711772       8.21051496       0.00115702      -0.00163671       0.00200433
