9
Lattice="6.261995996090632 1.0233885176394799e-07 3.615364902174041 2.087332127517524 5.903866210486574 3.615364846168944 -4.826132773698602e-08 -1.0271787694634432e-07 7.230729887938952" Properties=species:S:1:pos:R:3:forces:R:3 energy=-25.989757537841797 free_energy=-25.989757537841797 stress="2.348523776163347e-05 4.741589876289254e-08 2.5648766666108713e-08 4.741589876289254e-08 2.347344889130909e-05 -4.200089875894264e-08 2.5648766666108713e-08 -4.200089875894264e-08 2.340545688639395e-05" pbc="T T T"
Rb       2.08733244       1.47596666       3.61536464      -0.00000047      -0.00000009       0.00000058
Rb       6.26199595       4.42789925      10.84609471      -0.00000008       0.00000021      -0.00000015
S        0.00000198       0.00000092      -0.00000158      -0.00002118      -0.00000997       0.00001719
Cl       1.93962700       1.37152367       7.23072975      -0.00268070      -0.00189647      -0.00000140
Cl       6.40970064       4.53234272       7.23072949       0.00268798       0.00189975      -0.00000156
Cl       5.29218294       1.37152259       5.29512983       0.00134125      -0.00189015      -0.00231908
Cl       3.05714413       4.53234363       9.16633105      -0.00133265       0.00189181       0.00231071
Cl       3.05714495       4.53234282       5.29513028      -0.00133707       0.00189744      -0.00232305
Cl       5.29218225       1.37152261       9.16633053       0.00134305      -0.00189242       0.00231673
