9
Lattice="7.026423130148321 3.726477653174722e-08 4.056707252810408 2.3421410697320066 6.624575235188307 4.0567072680253125 -9.863216882114165e-09 1.166004699186761e-08 8.113414522704383" Properties=species:S:1:pos:R:3:forces:R:3 energy=-19.783245086669922 free_energy=-19.783245086669922 stress="-0.0001808034285204485 -6.851793799000916e-09 -1.0011833584400165e-09 -6.851793799000916e-09 -0.0001807962398743257 -1.0698378849482992e-09 -1.0011833584400165e-09 -1.0698378849482992e-09 -0.0001807928638299927" pbc="T T T"
Rb       2.34214106       1.65614382       4.05670728       0.00000002      -0.00000005      -0.00000003
Rb       7.02642315       4.96843151      12.17012180      -0.00000017      -0.00000006      -0.00000014
S       -0.00000001      -0.00000008      -0.00000022       0.00000021       0.00000016      -0.00000006
I        2.30202228       1.62777565       8.11341455      -0.00154961      -0.00109541       0.00000000
I        7.06654194       4.99679959       8.11341459       0.00154938       0.00109559      -0.00000009
I        5.87541198       1.62777564       6.05031695       0.00077425      -0.00109587      -0.00134175
I        3.49315218       4.99679969      10.17651218      -0.00077429       0.00109562       0.00134174
I        3.49315221       4.99679969       6.05031698      -0.00077435       0.00109612      -0.00134176
I        5.87541198       1.62777564      10.17651206       0.00077453      -0.00109610       0.00134215
