9
Lattice="5.387001127999922 2.1636580020353986e-08 3.1101866790344785 1.7956670656108302 5.078913589564201 3.11018667462635 -2.863450386588208e-08 -2.564649545418376e-08 6.220373407665364" Properties=species:S:1:pos:R:3:forces:R:3 energy=-37.4940071105957 free_energy=-37.4940071105957 stress="5.9757956478279084e-05 -8.394248851573138e-08 -1.2797436887979075e-08 -8.394248851573138e-08 5.983615483273752e-05 1.6788824552804726e-08 -1.2797436887979075e-08 1.6788824552804726e-08 5.989480632706545e-05" pbc="T T T"
Rb       1.79566724       1.26972817       3.11018673      -0.00000057       0.00000034      -0.00000003
Rb       5.38700145       3.80918560       9.33056079      -0.00000017      -0.00000027      -0.00000073
Se       0.00000010       0.00000008       0.00000004      -0.00000207      -0.00000223      -0.00001133
F        1.59537446       1.12809954       6.22037350       0.00134549       0.00095236       0.00000049
F        5.58729423       3.95081384       6.22037310      -0.00134456      -0.00095075       0.00000090
F        4.58931340       1.12810005       4.49182156      -0.00066896       0.00094739       0.00116068
F        2.59335415       3.95081352       7.94892500       0.00066832      -0.00094417      -0.00115600
F        2.59335439       3.95081357       4.49182143       0.00066948      -0.00094697       0.00116113
F        4.58931345       1.12810010       7.94892507      -0.00066692       0.00094438      -0.00115532
