9
Lattice="5.23742311913181 -5.221765057648668e-08 3.023827609659679 1.745807676336152 4.937889817697693 3.0238275764214415 3.0834540028141e-08 -1.8905078231164097e-08 6.047655165912299" Properties=species:S:1:pos:R:3:forces:R:3 energy=-36.8392448425293 free_energy=-36.8392448425293 stress="0.00011487328447401524 -6.859656309643469e-08 1.6632030475083326e-10 -6.859656309643469e-08 0.00011490032920846716 -1.300791918623645e-08 1.6632030475083326e-10 -1.300791918623645e-08 0.00011495307990116999" pbc="T T T"
Rb       1.74580758       1.23447254       3.02382788      -0.00000004      -0.00000027      -0.00000038
Rb       5.23742359       3.70341742       9.07148299      -0.00000032      -0.00000007      -0.00000006
S        0.00000008      -0.00000006      -0.00000002       0.00000259      -0.00000055       0.00000012
F        1.55191987       1.09737283       6.04765543       0.00093782       0.00066385      -0.00000119
F        5.43131117       3.84051664       6.04765548      -0.00094093      -0.00066389      -0.00000153
F        4.46146291       1.09737313       4.36782970      -0.00046670       0.00066073       0.00080904
F        2.52176763       3.84051663       7.72748051       0.00046778      -0.00066023      -0.00080875
F        2.52176751       3.84051662       4.36782937       0.00046656      -0.00065942       0.00080937
F        4.46146296       1.09737330       7.72748007      -0.00046674       0.00065996      -0.00080667
