9
Lattice="6.135832017512087 -3.949191562958381e-07 3.5425244576658814 2.045276796441224 5.784918469651029 3.5425247528009542 -3.269743095269926e-07 1.302589761642124e-07 7.0850494816678395" Properties=species:S:1:pos:R:3:forces:R:3 energy=-31.63189697265625 free_energy=-31.63189697265625 stress="0.00017115173977799714 -1.6705085670309927e-07 -8.796183692538762e-08 -1.6705085670309927e-07 0.00017137378745246679 4.5324323849627035e-08 -8.796183692538762e-08 4.5324323849627035e-08 0.00017149353516288102" pbc="T T T"
Rb       2.04527656       1.44622989       3.54252504       0.00000080      -0.00000096      -0.00000067
Rb       6.13583181       4.33868849      10.62757489      -0.00000006       0.00000018      -0.00000007
Si      -0.00000157       0.00000091       0.00000048       0.00003227      -0.00000259      -0.00002014
Cl       1.83501865       1.29755334       7.08504974      -0.00796656      -0.00562968       0.00000005
Cl       6.34609413       4.48736435       7.08505034       0.00792091       0.00561205      -0.00000543
Cl       5.21832083       1.29755451       5.13169867       0.00398520      -0.00562519      -0.00689937
Cl       2.96278624       4.48736252       9.03839971      -0.00398633       0.00564840       0.00691081
Cl       2.96278507       4.48736386       5.13169696      -0.00397071       0.00563085      -0.00688896
Cl       5.21832213       1.29755487       9.03839934       0.00398467      -0.00563329       0.00690360
