9
Lattice="6.480044248298609 -3.0202492474030174e-07 3.7412554798977244 2.1600145250154563 6.1094440580327145 3.7412553753957565 9.194513766268684e-08 -6.297305634310762e-08 7.482510800541683" Properties=species:S:1:pos:R:3:forces:R:3 energy=-27.589557647705078 free_energy=-27.589557647705078 stress="1.18590367037541e-06 -2.1147673834320813e-08 -9.311541759871034e-09 -2.1147673834320813e-08 1.2011423677904531e-06 -3.4428986328549627e-09 -9.311541759871034e-09 -3.4428986328549627e-09 1.1840110119010205e-06" pbc="T T T"
Rb       2.16001455       1.52736091       3.74125559      -0.00000001      -0.00000000      -0.00000019
Rb       6.48004417       4.58208278      11.22376605      -0.00000015       0.00000016      -0.00000008
Si      -0.00000019      -0.00000018      -0.00000000       0.00000252       0.00000100       0.00000053
Br       2.01065178       1.42174567       7.48251073       0.00120736       0.00085286       0.00000024
Br       6.62940780       4.68769892       7.48251087      -0.00121302      -0.00085776      -0.00000040
Br       5.47471809       1.42174534       5.48253108      -0.00060279       0.00085463       0.00104734
Br       3.16534066       4.68769818       9.48249071       0.00060496      -0.00085364      -0.00104673
Br       3.16534057       4.68769782       5.48253118       0.00060461      -0.00085209       0.00104666
Br       5.47471792       1.42174516       9.48249051      -0.00060338       0.00085486      -0.00104728
