9
Lattice="6.599108050900166 3.9769226361640204e-07 3.8099968501876162 2.1997029814363134 6.221698396239896 3.8099969838069114 -1.421066906422247e-07 6.316455626405387e-08 7.619993946511238" Properties=species:S:1:pos:R:3:forces:R:3 energy=-35.62653732299805 free_energy=-35.62653732299805 stress="8.612815145170316e-05 1.437781520507997e-07 -2.3701115736685097e-08 1.437781520507997e-07 8.599522698204964e-05 1.3103085727550479e-08 -2.3701115736685097e-08 1.3103085727550479e-08 8.595413964940235e-05" pbc="T T T"
Rb       2.19970268       1.55542461       3.80999670      -0.00000066       0.00000078       0.00000022
Rb       6.59910791       4.66627404      11.42999154       0.00000008      -0.00000069       0.00000005
Ta       0.00000433       0.00000106      -0.00000184      -0.00005066      -0.00001185       0.00002587
Br       2.10722470       1.49003266       7.61999339      -0.00295016      -0.00208589       0.00000171
Br       6.69158477       4.73166528       7.61999374       0.00298855       0.00211170       0.00000037
Br       5.54549492       1.49003237       5.63490645       0.00148536      -0.00209779      -0.00257006
Br       3.25331366       4.73166739       9.60508194      -0.00146987       0.00207809       0.00254884
Br       3.25331416       4.73166654       5.63490657      -0.00147672       0.00208932      -0.00256044
Br       5.54549647       1.49003145       9.60508247       0.00147396      -0.00208360       0.00255352
