9
Lattice="5.34087680558911 -4.3560504161025876e-08 3.083556884392468 1.7802922454658252 5.03542719691889 3.08355685320621 -1.0350896901560837e-08 -4.5514291736649926e-08 6.16711378671314" Properties=species:S:1:pos:R:3:forces:R:3 energy=-50.18206024169922 free_energy=-50.18206024169922 stress="0.00012175762094557285 -3.060347353311954e-08 2.0517557430821398e-08 -3.060347353311954e-08 0.00012195333692943677 -5.805967262517697e-08 2.0517557430821398e-08 -5.805967262517697e-08 0.00012200613127788529" pbc="T T T"
Rb       1.78029234       1.25885710       3.08355661      -0.00000063      -0.00000036       0.00000062
Rb       5.34087649       3.77657049       9.25067093       0.00000041      -0.00000074      -0.00000114
Ti      -0.00000022       0.00000012      -0.00000011       0.00000329      -0.00000493      -0.00000017
F        1.54717416       1.09401800       6.16711365      -0.00144589      -0.00102551      -0.00000005
F        5.57399464       3.94140891       6.16711375       0.00144857       0.00102730      -0.00000035
F        4.56728989       1.09401783       4.42345005       0.00072209      -0.00102516      -0.00125682
F        2.55387946       3.94140896       7.91077748      -0.00072563       0.00102775       0.00126050
F        2.55387966       3.94140877       4.42345054      -0.00072756       0.00103116      -0.00126438
F        4.56728976       1.09401834       7.91077717       0.00072540      -0.00102969       0.00126196
