9
Lattice="6.755010448269576 3.1678321669756324e-08 3.900007201332998 2.2516703106249465 6.368684637060475 3.900006973853998 1.582847118959437e-07 -1.6667958647198324e-07 7.800014128508825" Properties=species:S:1:pos:R:3:forces:R:3 energy=-24.37445831298828 free_energy=-24.37445831298828 stress="0.00021554452541749924 -2.393763187669151e-09 2.572844515214001e-08 -2.393763187669151e-09 0.0002155363472411409 -3.8080074205026904e-08 2.572844515214001e-08 -3.8080074205026904e-08 0.00021553981059696525" pbc="T T T"
Rb       2.25166986       1.59217049       3.90000702      -0.00000037       0.00000002      -0.00000052
Rb       6.75501068       4.77651365      11.70002191       0.00000008       0.00000021       0.00000009
Te      -0.00000198       0.00000246      -0.00000139       0.00001974      -0.00002660       0.00001381
Br       2.23701982       1.58181143       7.80001375      -0.00625752      -0.00442427      -0.00000001
Br       6.76966126       4.78687344       7.80001404       0.00625694       0.00442435      -0.00000008
Br       5.63650161       1.58181049       5.83732168       0.00312401      -0.00441767      -0.00541151
Br       3.37018004       4.78687350       9.76270554      -0.00313001       0.00442565       0.00541967
Br       3.37018089       4.78687212       5.83732425      -0.00313564       0.00443470      -0.00543095
Br       5.63650154       1.58181049       9.76270640       0.00312283      -0.00441638       0.00540952
