9
Lattice="5.393446942272285 -1.8739117355747582e-08 3.1139083796319267 1.797815476748171 5.0849909865510154 3.113908644650404 -3.273891669585657e-07 9.308090566166645e-08 6.227817326318414" Properties=species:S:1:pos:R:3:forces:R:3 energy=-52.32019805908203 free_energy=-52.32019805908203 stress="-0.0004855348088312894 -7.350743658207648e-08 -3.453080310578116e-08 -7.350743658207648e-08 -0.0004854245053138584 9.023266756003068e-08 -3.453080310578116e-08 9.023266756003068e-08 -0.0004853695281781256" pbc="T T T"
Rb       1.79781554       1.27124752       3.11390850      -0.00000059       0.00000103       0.00000101
Rb       5.39344664       3.81374317       9.34172573       0.00000181       0.00000082       0.00000063
Ta      -0.00000006       0.00000060       0.00000075       0.00000304      -0.00000795      -0.00002889
F        1.59961257       1.13109709       6.22781705       0.00486851       0.00344229      -0.00000014
F        5.59164980       3.95389388       6.22781687      -0.00486910      -0.00344086      -0.00000047
F        4.59364027       1.13109708       4.49921411      -0.00243461       0.00344324       0.00421631
F        2.59762184       3.95389330       7.95642049       0.00242490      -0.00342989      -0.00420034
F        2.59762149       3.95389406       4.49921417       0.00243431      -0.00344265       0.00421631
F        4.59364023       1.13109744       7.95642002      -0.00242865       0.00343370      -0.00420523
