9
Lattice="7.2741713010384155 -1.677121929438636e-07 4.1997447437136355 2.4247236563463135 6.85815437339528 4.199744661520938 -4.79499072347484e-09 -1.040557799832519e-07 8.399489495732679" Properties=species:S:1:pos:R:3:forces:R:3 energy=-21.197021484375 free_energy=-21.197021484375 stress="6.732843030476943e-05 1.2613968536356879e-08 -9.426863734063318e-09 1.2613968536356879e-08 6.732242763973773e-05 7.489627584789105e-09 -9.426863734063318e-09 7.489627584789105e-09 6.733897316735238e-05" pbc="T T T"
Rb       2.42472301       1.71453912       4.19974466       0.00000052      -0.00000132      -0.00000190
Rb       7.27417167       5.14361528      12.59923430      -0.00000022       0.00000114       0.00000172
Te      -0.00000064       0.00000121      -0.00000006       0.00000342      -0.00000877       0.00000015
I        2.42211748       1.71269609       8.39948942      -0.00150973      -0.00106670       0.00000023
I        7.27677702       5.14545761       8.39948955       0.00151162       0.00106878      -0.00000026
I        6.06311356       1.71269462       6.29736089       0.00075225      -0.00106382      -0.00130710
I        3.63578216       5.14545889      10.50161765      -0.00075525       0.00106721       0.00131096
I        3.63578188       5.14545891       6.29736128      -0.00075598       0.00106871      -0.00130942
I        6.06311365       1.71269463      10.50161783       0.00075338      -0.00106523       0.00130558
