9
Lattice="6.627785011076936 1.619880731935741e-07 3.8265534385910467 2.2092618366220376 6.2487356756545385 3.826553415140425 1.3350525465761179e-08 -1.9280828464383637e-08 7.653106854058385" Properties=species:S:1:pos:R:3:forces:R:3 energy=-33.05074691772461 free_energy=-33.05074691772461 stress="0.0001344268530374393 4.413363452471231e-09 1.0093043734116236e-08 4.413363452471231e-09 0.0001344441407127306 -1.7964614684728986e-08 1.0093043734116236e-08 -1.7964614684728986e-08 0.00013442842464428395" pbc="T T T"
Rb       2.20926176       1.56218407       3.82655332       0.00000023      -0.00000015      -0.00000010
Rb       6.62778512       4.68655160      11.47966040      -0.00000006       0.00000031       0.00000044
Ti      -0.00000034       0.00000024      -0.00000126       0.00000015      -0.00000376       0.00001097
Br       2.08575308       1.47485023       7.65310688      -0.00412516      -0.00291732       0.00000041
Br       6.75129373       4.77388542       7.65310698       0.00412679       0.00291923      -0.00000093
Br       5.58490870       1.47485035       5.63286869       0.00206318      -0.00291778      -0.00357455
Br       3.25213816       4.77388561       9.67334544      -0.00206113       0.00291473       0.00356947
Br       3.25213846       4.77388513       5.63286929      -0.00206478       0.00292106      -0.00357717
Br       5.58490876       1.47485055       9.67334508       0.00206072      -0.00291631       0.00357151
