9
Lattice="5.549153411249018 1.0253695049231972e-07 3.203805383158165 1.8497178252219655 5.231792355313451 3.2038055134094434 -1.3356763386631162e-07 6.507788968412467e-08 6.407610997662247" Properties=species:S:1:pos:R:3:forces:R:3 energy=-38.42963790893555 free_energy=-38.42963790893555 stress="-0.00047611078480258584 -9.226469188661213e-08 -6.606215663396142e-08 -9.226469188661213e-08 -0.00047605487634427845 5.223882482141562e-08 -6.606215663396142e-08 5.223882482141562e-08 -0.00047600179095752537" pbc="T T T"
Rb       1.84971717       1.30794791       3.20380568      -0.00000061       0.00000031      -0.00000020
Rb       5.54915316       3.92384430       9.61141833       0.00000004      -0.00000087      -0.00000167
Te      -0.00000023      -0.00000002      -0.00000008       0.00000130      -0.00000145       0.00000383
F        1.70654743       1.20671147       6.40761077       0.00323674       0.00228867       0.00000013
F        5.69232422       4.02508131       6.40761069      -0.00323582      -0.00228769      -0.00000061
F        4.69587955       1.20671199       4.68171956      -0.00161347       0.00228149       0.00279343
F        2.70299217       4.02508076       8.13350163       0.00161262      -0.00228125      -0.00279361
F        2.70299134       4.02508080       4.68171947       0.00161527      -0.00228387       0.00279734
F        4.69587961       1.20671178       8.13350170      -0.00161612       0.00228480      -0.00279862
