9
Lattice="6.443556700947051 1.0743599466977917e-08 3.7201892389303564 2.1478522895821834 6.0750435988673255 3.72018915959554 -1.97756342422977e-08 -1.1114850065847276e-07 7.440378512113344" Properties=species:S:1:pos:R:3:forces:R:3 energy=-27.630767822265625 free_energy=-27.630767822265625 stress="0.00022584844555240124 7.291899861705531e-10 -6.2381926291266154e-09 7.291899861705531e-10 0.00022585027909372002 -5.446634698813568e-09 -6.2381926291266154e-09 -5.446634698813568e-09 0.00022584578255191445" pbc="T T T"
Rb       2.14785255       1.51876079       3.72018930      -0.00000034       0.00000012      -0.00000000
Rb       6.44355665       4.55628253      11.16056772      -0.00000018      -0.00000009      -0.00000008
Te       0.00000012      -0.00000048      -0.00000003      -0.00000105       0.00000537      -0.00000462
Cl       2.09424178       1.48085288       7.44037838      -0.00782331      -0.00553251       0.00000074
Cl       6.49716685       4.59419079       7.44037848       0.00782350       0.00553174      -0.00000022
Cl       5.39643588       1.48085284       5.53385583       0.00391144      -0.00553256      -0.00677461
Cl       3.19497327       4.59419108       9.34690132      -0.00391174       0.00553094       0.00677499
Cl       3.19497306       4.59419064       5.53385545      -0.00391024       0.00553027      -0.00677253
Cl       5.39643570       1.48085288       9.34690121       0.00391194      -0.00553327       0.00677631
