9
Lattice="7.241513505718966 4.3828260735119385e-07 4.180888940919816 2.41383809248728 6.827364879245023 4.180889211065868 -3.274959460105143e-07 9.928583118132727e-08 8.361778449078926" Properties=species:S:1:pos:R:3:forces:R:3 energy=-31.16465187072754 free_energy=-31.16465187072754 stress="7.712568185525015e-05 3.53800153618522e-08 1.3038760293682117e-08 3.53800153618522e-08 7.711592479608953e-05 -1.2969675999841002e-08 1.3038760293682117e-08 -1.2969675999841002e-08 7.705218013143167e-05" pbc="T T T"
Rb       2.41383835       1.70684113       4.18088821      -0.00000080       0.00000090      -0.00000007
Rb       7.24151326       5.12052446      12.54266841      -0.00000001      -0.00000087       0.00000018
Ta      -0.00000045       0.00000052      -0.00000360       0.00000448      -0.00000475       0.00003709
I        2.30383784       1.62906008       8.36177794      -0.00250071      -0.00176895       0.00000125
I        7.35151353       5.19830550       8.36177786       0.00250022       0.00176799       0.00000126
I        6.08959459       1.62906025       6.17607084       0.00125305      -0.00177194      -0.00216679
I        3.56575560       5.19830613      10.54748757      -0.00124183       0.00175697       0.00215104
I        3.56575711       5.19830407       6.17607143      -0.00125521       0.00177577      -0.00217246
I        6.08959527       1.62905952      10.54748765       0.00124081      -0.00175513       0.00214848
