9
Lattice="7.169457105053482 -1.0520467086751884e-07 4.139287940235106 2.3898189998619 6.759428822079936 4.139287829328343 8.685095914411036e-08 -7.441975659082241e-08 8.278575730039952" Properties=species:S:1:pos:R:3:forces:R:3 energy=-28.945995330810547 free_energy=-28.945995330810547 stress="6.991171539993957e-05 -2.057966597135419e-08 9.391954769455424e-09 -2.057966597135419e-08 6.992347334744409e-05 -2.6811834530349188e-08 9.391954769455424e-09 -2.6811834530349188e-08 6.99438460287638e-05" pbc="T T T"
Rb       2.38981834       1.68985739       4.13928741      -0.00000213       0.00000012      -0.00000004
Rb       7.16945790       5.06957118      12.41786408       0.00000177      -0.00000046      -0.00000016
Ti       0.00000020      -0.00000048      -0.00000038       0.00000055       0.00000358       0.00000069
I        2.27359531       1.60767431       8.27857541      -0.00271869      -0.00192294       0.00000054
I        7.28568083       5.15175438       8.27857582       0.00271726       0.00192123      -0.00000002
I        6.03265962       1.60767473       6.10827944       0.00136036      -0.00192273      -0.00235587
I        3.52661640       5.15175438      10.44887251      -0.00135877       0.00192103       0.00235408
I        3.52661667       5.15175404       6.10827951      -0.00135998       0.00192512      -0.00235722
I        6.03265955       1.60767458      10.44887201       0.00135969      -0.00192486       0.00235794
