9
Lattice="5.399166935987763 8.642387995957715e-08 3.117210723364981 1.7997224611602582 5.090383485989906 3.1172106061343623 8.33355655450816e-08 -8.465036099557286e-08 6.234421302388358" Properties=species:S:1:pos:R:3:forces:R:3 energy=-46.3681526184082 free_energy=-46.3681526184082 stress="2.4844515792210586e-05 -1.755891609889204e-08 -1.7026685839027778e-08 -1.755891609889204e-08 2.4928045604610816e-05 -1.751015443751669e-09 -1.7026685839027778e-08 -1.751015443751669e-09 2.4949653379735537e-05" pbc="T T T"
Rb       1.79972220       1.27259585       3.11721076      -0.00000046      -0.00000297      -0.00000074
Rb       5.39916680       3.81778794       9.35163113       0.00000110      -0.00000058       0.00000115
V        0.00000018      -0.00000013       0.00000003      -0.00000258      -0.00000370      -0.00000369
F        1.53965625       1.08870077       6.23442168       0.00032721       0.00023192       0.00000003
F        5.65923336       4.00168236       6.23442207      -0.00032331      -0.00022943      -0.00000086
F        4.62933875       1.08870118       4.45059292      -0.00016297       0.00023122       0.00027977
F        2.56955082       4.00168199       8.01824960       0.00015995      -0.00022669      -0.00027558
F        2.56955081       4.00168194       4.45059325       0.00016119      -0.00022718       0.00027558
F        4.62933864       1.08870196       8.01824913      -0.00015995       0.00022715      -0.00027579
