9
Lattice="7.117874884345384 1.0248997981458209e-07 4.109507088289618 2.3726251053432246 6.710796262144016 4.109507006422164 1.8769695165769024e-07 3.245483050542405e-08 8.219013851478374" Properties=species:S:1:pos:R:3:forces:R:3 energy=-28.614566802978516 free_energy=-28.614566802978516 stress="-2.0778246835106984e-05 -2.2403687793826066e-08 3.85766707466928e-09 -2.2403687793826066e-08 -2.076339296763763e-05 -9.082233631829695e-09 3.85766707466928e-09 -9.082233631829695e-09 -2.0746681911987253e-05" pbc="T T T"
Rb       2.37262546       1.67769919       4.10950667       0.00000070       0.00000184      -0.00000088
Rb       7.11787487       5.03309708      12.32852163      -0.00000052      -0.00000172       0.00000109
V       -0.00000038      -0.00000030       0.00000047       0.00000295       0.00000450      -0.00000354
I        2.22505306       1.57335039       8.21901373       0.00349222       0.00246798      -0.00000064
I        7.26544833       5.13744678       8.21901386      -0.00349799      -0.00247161      -0.00000029
I        6.00534814       1.57335022       6.03645976      -0.00174526       0.00246945       0.00302488
I        3.48515191       5.13744575      10.40156809       0.00174529      -0.00246796      -0.00302467
I        3.48515191       5.13744618       6.03645990       0.00174659      -0.00247091       0.00302416
I        6.00534749       1.57335021      10.40156761      -0.00174393       0.00246839      -0.00302027
