9
Lattice="6.56542067690273 2.633263234800063e-07 3.790547167530807 2.1884738466706644 6.189937967301973 3.7905470992244097 1.4891867844141707e-07 2.1643599599116793e-08 7.581094077127012" Properties=species:S:1:pos:R:3:forces:R:3 energy=-32.34130096435547 free_energy=-32.34130096435547 stress="-1.336130026174942e-05 5.059935048734587e-08 1.7613215774758828e-08 5.059935048734587e-08 -1.339692244073376e-05 -2.4497561312841754e-08 1.7613215774758828e-08 -2.4497561312841754e-08 -1.342814812232973e-05" pbc="T T T"
Rb       2.18847377       1.54748453       3.79054718      -0.00000017       0.00000021      -0.00000035
Rb       6.56542089       4.64245370      11.37164117       0.00000005      -0.00000026       0.00000010
V        0.00000011       0.00000040       0.00000119      -0.00000094      -0.00000663      -0.00001230
Br       2.04156248       1.44360264       7.58109426       0.00306931       0.00216988      -0.00000034
Br       6.71233191       4.74633566       7.58109435      -0.00306392      -0.00216718      -0.00000090
Br       5.54464003       1.44360198       5.55859057      -0.00153990       0.00217761       0.00266767
Br       3.20925515       4.74633592       9.60359673       0.00153315      -0.00217013      -0.00265701
Br       3.20925475       4.74633572       5.55859116       0.00153652      -0.00217292       0.00266080
Br       5.54463960       1.44360278       9.60359671      -0.00153412       0.00216946      -0.00265783
