9
Lattice="6.235915151126623 1.8709834885585505e-07 3.6003071635224537 2.0786386652953386 5.879277701648116 3.6003069813308954 -3.009359691796685e-08 -2.4441763271146633e-07 7.200614379168598" Properties=species:S:1:pos:R:3:forces:R:3 energy=-36.06725311279297 free_energy=-36.06725311279297 stress="-2.0103732822462916e-05 6.725309731336893e-08 1.2589314479782843e-08 6.725309731336893e-08 -2.0085542928427458e-05 -3.896024480809501e-08 1.2589314479782843e-08 -3.896024480809501e-08 -2.0184681488899514e-05" pbc="T T T"
Rb       2.07863831       1.46981947       3.60030716       0.00000006      -0.00000009      -0.00000005
Rb       6.23591514       4.40945889      10.80092286      -0.00000004      -0.00000043      -0.00000070
V        0.00000043       0.00000004      -0.00000026      -0.00000516      -0.00000590      -0.00000099
Cl       1.90222912       1.34507991       7.20061404       0.00435406       0.00307560       0.00000012
Cl       6.41232441       4.53419782       7.20061397      -0.00434735      -0.00307322      -0.00000034
Cl       5.28480127       1.34507873       5.24768410      -0.00218114       0.00308308       0.00377905
Cl       3.02975271       4.53419835       9.15354370       0.00217940      -0.00308007      -0.00377452
Cl       3.02975281       4.53419832       5.24768477       0.00217825      -0.00307754       0.00377148
Cl       5.28480112       1.34507904       9.15354371      -0.00217825       0.00307852      -0.00377372
