9
Lattice="6.6503370123932815 3.8310845022242713e-07 3.839573401355988 2.216779314253105 6.2699977808049745 3.839573489822434 -8.97589115686424e-08 4.487964218918969e-08 7.679146958179006" Properties=species:S:1:pos:R:3:forces:R:3 energy=-34.29334259033203 free_energy=-34.29334259033203 stress="0.00020198158745188266 1.029024758736341e-07 -2.3024956163908428e-08 1.029024758736341e-07 0.00020190047507639974 2.992571168647373e-08 -2.3024956163908428e-08 2.992571168647373e-08 0.00020182151638437063" pbc="T T T"
Rb       2.21677921       1.56749965       3.83957393      -0.00000015      -0.00000008      -0.00000001
Rb       6.65033695       4.70249864      11.51872020       0.00000025       0.00000004      -0.00000021
W        0.00000007       0.00000048      -0.00000214      -0.00000703      -0.00001263       0.00002677
Br       2.08697032       1.47571086       7.67914692      -0.00663694      -0.00469300       0.00000054
Br       6.78014431       4.79428637       7.67914686       0.00665303       0.00470356       0.00000031
Br       5.60685232       1.47571132       5.64694214       0.00331893      -0.00469607      -0.00574893
Br       3.26026429       4.79428787       9.71135235      -0.00331548       0.00468536       0.00573963
Br       3.26026450       4.79428761       5.64694192      -0.00332161       0.00469459      -0.00575020
Br       5.60685300       1.47571011       9.71135299       0.00330902      -0.00468177       0.00573207
