9
Lattice="6.336535993548159 -1.601569222485063e-08 3.6584004713275062 2.1121785638501542 5.974143151888349 3.6584006195323333 -1.4024697624339425e-07 8.23433972685173e-08 7.316801185570252" Properties=species:S:1:pos:R:3:forces:R:3 energy=-38.273094177246094 free_energy=-38.273094177246094 stress="0.00010477908654138446 5.3248379039416704e-09 -1.2402387561394335e-08 5.3248379039416704e-09 0.00010476467286935076 3.473072851534198e-08 -1.2402387561394335e-08 3.473072851534198e-08 0.00010476226452738047" pbc="T T T"
Rb       2.11217835       1.49353589       3.65840091       0.00000023      -0.00000039      -0.00000016
Rb       6.33653618       4.48060753      10.97520139      -0.00000063       0.00000000       0.00000031
W        0.00000084      -0.00000070      -0.00000285      -0.00000891       0.00002357       0.00004730
Cl       1.96061044       1.38636022       7.31680209      -0.00291447      -0.00205915      -0.00000091
Cl       6.48810616       4.58778338       7.31680131       0.00290209       0.00205345       0.00000080
Cl       5.35623024       1.38636116       5.35633878       0.00146662      -0.00207197      -0.00253910
Cl       3.09248193       4.58778354       9.27726515      -0.00144216       0.00204309       0.00250032
Cl       3.09248277       4.58778321       5.35633745      -0.00145451       0.00205950      -0.00252002
Cl       5.35623081       1.38635870       9.27726485       0.00145179      -0.00204811       0.00251162
