9
Lattice="5.410047875209213 -1.6722314783686124e-07 3.123492785349867 1.8033490891998982 5.10064231446037 3.1234928630791114 -9.542875984501947e-08 2.7720188347663813e-08 6.246985735987265" Properties=species:S:1:pos:R:3:forces:R:3 energy=-45.75287628173828 free_energy=-45.75287628173828 stress="-0.00025316354003734887 -1.160806064604003e-07 -4.049311641551867e-08 -1.160806064604003e-07 -0.0002531220961827785 4.822328136810938e-08 -4.049311641551867e-08 4.822328136810938e-08 -0.0002530611236579716" pbc="T T T"
Rb       1.80334844       1.27516054       3.12349247       0.00000003      -0.00000022       0.00000038
Rb       5.41004776       3.82548153       9.37047930       0.00000086      -0.00000012      -0.00000150
W       -0.00000005       0.00000002      -0.00000011       0.00000277       0.00000520      -0.00000188
F        1.65421695       1.16970821       6.24698545       0.00647359       0.00457726       0.00000057
F        5.55918055       3.93093395       6.24698545      -0.00648022      -0.00458091       0.00000017
F        4.58293887       1.16970896       4.55608814      -0.00323150       0.00457083       0.00559759
F        2.63045797       3.93093345       7.93788359       0.00323295      -0.00457098      -0.00559774
F        2.63045792       3.93093360       4.55608750       0.00323597      -0.00457494       0.00560330
F        4.58293906       1.16970844       7.93788382      -0.00323453       0.00457382      -0.00560093
