9
Lattice="7.151007307026528 -7.997314229535195e-07 4.128636667558023 2.3836684725847945 6.742034706896174 4.128636452373679 2.2739509587708198e-07 -1.0275336599237785e-07 8.257272941256097" Properties=species:S:1:pos:R:3:forces:R:3 energy=-30.196537017822266 free_energy=-30.196537017822266 stress="-3.125879084109329e-05 -1.329216559042834e-07 1.0226631985688073e-08 -1.329216559042834e-07 -3.112954436801374e-05 -1.520974635127459e-08 1.0226631985688073e-08 -1.520974635127459e-08 -3.104290226474404e-05" pbc="T T T"
Rb       2.38366853       1.68550867       4.12863643      -0.00000110       0.00000170       0.00000011
Rb       7.15100735       5.05652525      12.38590975       0.00000080      -0.00000123       0.00000052
W       -0.00000086       0.00000127       0.00000454       0.00001471      -0.00002070      -0.00007552
I        2.25941791       1.59765007       8.25727310       0.00361069       0.00255217      -0.00000051
I        7.27525865       5.14438350       8.25727359      -0.00361116      -0.00255197      -0.00000191
I        6.02129800       1.59764993       6.08535130      -0.00181100       0.00256046       0.00313470
I        3.51337947       5.14438131      10.42919186       0.00178120      -0.00251756      -0.00308456
I        3.51337838       5.14438346       6.08535134       0.00180385      -0.00254893       0.00312209
I        6.02129676       1.59765191      10.42919219      -0.00178782       0.00252606      -0.00309497
