9
Lattice="7.277124336377403 3.159322702036659e-08 4.201449736461318 2.4257080857325017 6.860938491894843 4.20144983376756 1.2281156029416365e-08 1.2785937857274695e-07 8.402899451651097" Properties=species:S:1:pos:R:3:forces:R:3 energy=-30.619300842285156 free_energy=-30.619300842285156 stress="0.00011008493311237544 -1.575388708374703e-08 -1.482974276711957e-08 -1.575388708374703e-08 0.00011009719310095534 2.7490163034826764e-08 -1.482974276711957e-08 2.7490163034826764e-08 0.00011012971663149074" pbc="T T T"
Rb       2.42570817       1.71523480       4.20144873       0.00000096      -0.00000042       0.00000181
Rb       7.27712433       5.14570401      12.60435012      -0.00000111       0.00000045      -0.00000168
Zr       0.00000012      -0.00000061       0.00000089       0.00000012       0.00000358      -0.00000687
I        2.35987059       1.66868062       8.40289972      -0.00292196      -0.00206668      -0.00000007
I        7.34296191       5.19225826       8.40289958       0.00292094       0.00206491       0.00000000
I        6.09718854       1.66868144       6.24515868       0.00146293      -0.00206909      -0.00253467
I        3.60564388       5.19225720      10.56063985      -0.00146469       0.00207153       0.00253766
I        3.60564356       5.19225773       6.24515812      -0.00146076       0.00206609      -0.00253174
I        6.09718862       1.66868112      10.56064034       0.00146360      -0.00207039       0.00253553
