9
Lattice="6.742687711930237 -1.968317665746108e-07 3.8928927462173117 2.2475623930785855 6.357066842945323 3.8928927323438822 1.96476875478414e-08 -3.0986105254131938e-09 7.785785458403993" Properties=species:S:1:pos:R:3:forces:R:3 energy=-35.00798797607422 free_energy=-35.00798797607422 stress="5.9198813687544316e-05 -4.968345024281007e-08 1.687162587415969e-08 -4.968345024281007e-08 5.9227699239272624e-05 -2.7051154205537387e-08 1.687162587415969e-08 -2.7051154205537387e-08 5.929607868893072e-05" pbc="T T T"
Rb       2.24756214       1.58926681       3.89289303       0.00000052      -0.00000082      -0.00000029
Rb       6.74268792       4.76779985      11.67867758      -0.00000023       0.00000087       0.00000049
Zr       0.00000009      -0.00000047       0.00000002       0.00000052       0.00000521      -0.00000153
Br       2.16939678       1.53399503       7.78578556      -0.00067466      -0.00047651       0.00000018
Br       6.82085357       4.82307159       7.78578562       0.00067058       0.00047450      -0.00000009
Br       5.65798895       1.53399531       5.77164640       0.00033890      -0.00047825      -0.00058819
Br       3.33226094       4.82307153       9.79992483      -0.00033721       0.00047734       0.00058540
Br       3.33226121       4.82307121       5.77164656      -0.00033899       0.00047935      -0.00058796
Br       5.65798889       1.53399568       9.79992414       0.00034058      -0.00048167       0.00059203
