9
Lattice="6.385437536382546 -2.3821585534464905e-07 3.686633952726184 2.1284790054023537 6.020248076211306 3.6866338640448237 5.6499116960582133e-08 -6.866121457367524e-08 7.373267807593038" Properties=species:S:1:pos:R:3:forces:R:3 energy=-39.041019439697266 free_energy=-39.041019439697266 stress="0.0001327063946519047 -3.4485474031953345e-08 2.839549395616814e-08 -3.4485474031953345e-08 0.00013271233183331788 -3.091672340360674e-08 2.839549395616814e-08 -3.091672340360674e-08 0.00013269498595036566" pbc="T T T"
Rb       2.12847910       1.50506200       3.68663388       0.00000030       0.00000010       0.00000005
Rb       6.38543748       4.51518589      11.05990177      -0.00000039      -0.00000028      -0.00000002
Zr      -0.00000036      -0.00000099       0.00000037       0.00000480       0.00001429      -0.00000164
Cl       2.03250420       1.43719745       7.37326742      -0.00272829      -0.00192882       0.00000028
Cl       6.48141238       4.58305054       7.37326742       0.00272032       0.00192278       0.00000079
Cl       5.36918504       1.43719789       5.44683430       0.00136420      -0.00192939      -0.00235994
Cl       3.14473156       4.58305042       9.29970159      -0.00136184       0.00192460       0.00235652
Cl       3.14473180       4.58305011       5.44683409      -0.00136462       0.00192788      -0.00235982
Cl       5.36918517       1.43719771       9.29970147       0.00136559      -0.00193127       0.00236358
