9
Lattice="4.970606606927998 -2.40444407581324e-06 2.869782350356194 1.65686758909555 4.6863338756922275 2.8697806407327975 2.0754042476713544e-06 -6.263201699122626e-07 5.73956110600706" Properties=species:S:1:pos:R:3:forces:R:3 energy=-49.26498794555664 free_energy=-49.26498794555664 stress="0.0004052857984788716 -8.673357001498516e-07 4.410501617257978e-07 -8.673357001498516e-07 0.0004024654335808009 2.4643529172863055e-07 4.410501617257978e-07 2.4643529172863055e-07 0.0004048476694151759" pbc="T T T"
Re       1.65688689       1.17159544       2.86977587       0.00009722       0.00006351      -0.00011250
Re       4.97061006       3.51474369       8.60932001       0.00007018       0.00001079      -0.00016505
Cr      -0.00000622      -0.00000119       0.00001383      -0.00008645      -0.00000777       0.00008944
Se       1.83327128       1.29632360       5.73955763       0.00002360       0.00003535      -0.00003867
Se       4.79419586       3.39001410       5.73956507      -0.00009871       0.00001252      -0.00002947
Se       4.05397340       1.29632213       4.45746055      -0.00000036       0.00001246       0.00001037
Se       2.57350937       3.38999306       7.02168061      -0.00006342       0.00002962       0.00008023
Se       2.57349808       3.39000096       4.45744552       0.00001776      -0.00008887       0.00005281
Se       4.05396672       1.29633237       7.02167651       0.00004047      -0.00006735       0.00011349
