9
Lattice="4.813729923565047 -3.0501293875540274e-09 2.7792082063598906 1.6045766144557811 4.538428232578607 2.7792082476812463 5.4966676227237964e-08 8.947539732596731e-08 5.558416317514722" Properties=species:S:1:pos:R:3:forces:R:3 energy=-52.942665100097656 free_energy=-52.942665100097656 stress="-3.6641702081396943e-06 3.057270347994745e-08 -2.2121161791233135e-08 3.057270347994745e-08 -3.7252293623168953e-06 -6.903052707230017e-08 -2.2121161791233135e-08 -6.903052707230017e-08 -3.571323532014503e-06" pbc="T T T"
Re       1.60457733       1.13460782       2.77920795       0.00000204       0.00000294       0.00000252
Re       4.81372981       3.40382156       8.33762651       0.00000037       0.00000051       0.00000549
Co      -0.00000002      -0.00000006      -0.00000014       0.00000073      -0.00000027      -0.00000101
S        1.69990123       1.20201171       5.55841608       0.00025469       0.00018001      -0.00000087
S        4.71840526       3.33641647       5.55841572      -0.00025702      -0.00018215       0.00000126
S        3.96377925       1.20201193       4.25136569      -0.00012508       0.00017834       0.00021768
S        2.45452693       3.33641603       6.86546690       0.00012922      -0.00018239      -0.00022221
S        2.45452754       3.33641627       4.25136565       0.00012457      -0.00017783       0.00021923
S        3.96377906       1.20201152       6.86546679      -0.00012931       0.00018093      -0.00022197
