9
Lattice="4.854217774218405 -1.0690061178890627e-08 2.8025839138454143 1.6180725786169603 4.576600478462688 2.802583918540129 1.0343590805700803e-08 1.3063825425638605e-08 5.60516780977521" Properties=species:S:1:pos:R:3:forces:R:3 energy=-55.33718490600586 free_energy=-55.33718490600586 stress="0.00016073932056315243 -2.262427578614279e-08 -1.1381295905721345e-08 -2.262427578614279e-08 0.00016082331421785057 5.785356549381504e-08 -1.1381295905721345e-08 5.785356549381504e-08 0.00016070481797214597" pbc="T T T"
Re       1.61807300       1.14414962       2.80258409       0.00000052      -0.00000224       0.00000200
Re       4.85421761       3.43245043       8.40775195      -0.00000048       0.00000039       0.00000071
Cr      -0.00000012       0.00000005      -0.00000004       0.00000241      -0.00000045      -0.00000709
S        1.73564305       1.22728478       5.60516756      -0.00335914      -0.00237560      -0.00000078
S        4.73664740       3.34931564       5.60516796       0.00335687       0.00237256      -0.00000090
S        3.98639606       1.22728521       4.30569479       0.00167942      -0.00237209      -0.00290871
S        2.48589415       3.34931535       6.90464067      -0.00168213       0.00237757       0.00291365
S        2.48589398       3.34931597       4.30569497      -0.00167841       0.00237679      -0.00290847
S        3.98639627       1.22728495       6.90464076       0.00168100      -0.00237715       0.00290966
