9
Lattice="4.959126762051707 -1.6968862003641885e-07 2.8631532833489635 1.653042058434376 4.675508608515694 2.8631533450080155 -2.0742405802253083e-07 -7.115431347096546e-08 5.726306925967012" Properties=species:S:1:pos:R:3:forces:R:3 energy=-46.40620040893555 free_energy=-46.40620040893555 stress="0.0003834888048004359 1.9400565065552655e-07 1.709694714691068e-07 1.9400565065552655e-07 0.0003841797006316483 2.046547677991839e-07 1.709694714691068e-07 2.046547677991839e-07 0.00038389911060221493" pbc="T T T"
Re       1.65304269       1.16887318       2.86315288      -0.00000023      -0.00002669      -0.00001518
Re       4.95912302       3.50663339       8.58945479      -0.00002987       0.00000712      -0.00004799
Co       0.00000083       0.00000031      -0.00000023       0.00001393       0.00000446       0.00001283
Se       1.80116933       1.27361577       5.72630655       0.00458550       0.00323042       0.00000088
Se       4.81100058       3.40189172       5.72630940      -0.00457770      -0.00323361       0.00001056
Se       4.05854106       1.27361689       4.42301026      -0.00229403       0.00323918       0.00397497
Se       2.55362958       3.40189156       7.02960402       0.00230137      -0.00322655      -0.00395411
Se       2.55362520       3.40189274       4.42301167       0.00229347      -0.00323313       0.00398213
Se       4.05854189       1.27361749       7.02960484      -0.00229236       0.00323871      -0.00396383
