9
Lattice="5.828841385323324 -2.6599763408665283e-08 3.3652832677617375 1.9429471253209345 5.495484456106661 3.3652832297287927 8.78582458381904e-08 1.5544531688828015e-08 6.730566383348431" Properties=species:S:1:pos:R:3:forces:R:3 energy=-41.2338981628418 free_energy=-41.2338981628418 stress="-6.958556332392618e-05 -1.0849560361236854e-08 -3.2361896273869206e-08 -1.0849560361236854e-08 -6.956938887014985e-05 1.0936766159375111e-08 -3.2361896273869206e-08 1.0936766159375111e-08 -6.95716735208407e-05" pbc="T T T"
Re       1.94294803       1.37387062       3.36528299       0.00000732      -0.00000499      -0.00000428
Re       5.82884069       4.12161205      10.09585029      -0.00000626      -0.00001227       0.00000370
Co      -0.00000024      -0.00000007       0.00000019       0.00000367      -0.00000273      -0.00000265
Te       1.96749280       1.39122787       6.73056652      -0.00047272      -0.00033255       0.00000000
Te       5.80429563       4.10425703       6.73056613       0.00046976       0.00033556      -0.00000218
Te       4.84509521       1.39122786       5.06918150       0.00023421      -0.00032768      -0.00040897
Te       2.92669369       4.10425681       8.39195070      -0.00023841       0.00033839       0.00041169
Te       2.92669386       4.10425730       5.06918207      -0.00023257       0.00033485      -0.00041061
Te       4.84509476       1.39122834       8.39195112       0.00023498      -0.00032867       0.00041339
