9
Lattice="5.898098037587493 6.526378948568345e-08 3.4052685316609357 1.966032723704893 5.56078027066605 3.4052685611443225 5.1422049701642906e-08 7.247051470647884e-08 6.810536974256212" Properties=species:S:1:pos:R:3:forces:R:3 energy=-42.0623779296875 free_energy=-42.0623779296875 stress="-4.6902623580535874e-05 3.859623376456511e-08 -6.456327383830285e-08 3.859623376456511e-08 -4.694414747064002e-05 1.1155631973736035e-08 -6.456327383830285e-08 1.1155631973736035e-08 -4.69533188152127e-05" pbc="T T T"
Re       1.96603144       1.39019462       3.40526863      -0.00001263      -0.00000742       0.00000032
Re       5.89809815       4.17058425      10.21580970       0.00000068      -0.00001151       0.00004426
Cr       0.00000008       0.00000017      -0.00000037      -0.00000106      -0.00000184       0.00000502
Te       2.04489004       1.44595629       6.81053739      -0.00032515      -0.00022651       0.00000087
Te       5.81924077       4.11482434       6.81053545       0.00032968       0.00023248      -0.00001880
Te       4.87565329       1.44595642       5.17619472       0.00016777      -0.00022342      -0.00028841
Te       2.98847732       4.11482534       8.44487784      -0.00016809       0.00023337       0.00027208
Te       2.98847842       4.11482465       5.17619473      -0.00015358       0.00023142      -0.00028624
Te       4.87565370       1.44595555       8.44487825       0.00016248      -0.00022673       0.00027095
