9
Lattice="4.247212271506816 -9.634810077270452e-08 2.4521290575760992 1.4157373444529529 4.004309781290173 2.4521290377351304 4.214616103437122e-08 5.501696702613647e-09 4.904258042152914" Properties=species:S:1:pos:R:3:forces:R:3 energy=-60.31267547607422 free_energy=-60.31267547607422 stress="0.0001761382882250473 3.757140802918002e-07 -4.654337715237489e-07 3.757140802918002e-07 0.00017640269652474672 -3.702840274399932e-07 -4.654337715237489e-07 -3.702840274399932e-07 0.00017710817337501794" pbc="T T T"
Re       1.41576117       1.00108232       2.45213028       0.00081339       0.00015690       0.00005990
Re       4.24722891       3.00323434       7.35639585       0.00060647       0.00008094       0.00028506
Cr       0.00000100       0.00000002       0.00000039       0.00003417       0.00001183       0.00000079
O        1.45250334       1.02708170       4.90425711       0.00208762       0.00169793      -0.00003391
O        4.21043952       2.97723126       4.90425319      -0.00235334      -0.00155663      -0.00013995
O        3.52094816       1.02707520       3.71003486      -0.00145994       0.00150988       0.00182891
O        2.14198376       2.97723019       6.09847495       0.00083347      -0.00165197      -0.00203949
O        2.14198655       2.97722839       3.71003688       0.00092630      -0.00171635       0.00191087
O        3.52094623       1.02707501       6.09848133      -0.00148848       0.00146708      -0.00187203
