9
Lattice="3.9224743885545474 -0.18103478322763097 2.8386011148503703 0.3149124884483353 2.4609074287699975 1.9196586084345206 -1.1412967995878498 -0.6691509539493935 2.340891000252767" Properties=species:S:1:pos:R:3:forces:R:3 energy=-104971712.0 free_energy=-104971712.0 stress="692139.0625 2215962.5 -510905.9375 2215962.5 1521514.25 1005141.625 -510905.9375 1005141.625 2713096.25" pbc="T T T"
Re       3.05701957      -1.78491667       3.03099849 1187903360.00000000 -2284471808.00000000 -1611372288.00000000
Re       5.11134816      -0.06120622       6.10129375 54802192.00000000 -1152976.00000000 48696136.00000000
C        1.87384235      -0.22281883       0.26142351 69457608.00000000 -33287496.00000000 48336072.00000000
S       -0.01292371      -1.94321365       2.60556081 -27820110.00000000 38535452.00000000 34522760.00000000
S        5.30709802      -0.64900717       3.93576256 28320434.00000000 -103161608.00000000 78270312.00000000
S        3.02886269      -1.79030913       3.01442319 -1247446016.00000000 2391869696.00000000 1615986944.00000000
S        1.52389547       0.74580739       3.33070285 -36711360.00000000 -77610408.00000000 -75380496.00000000
S        1.61981622      -0.90790458       1.62444294 18869564.00000000 101006912.00000000 -123056576.00000000
S        3.38449121      -0.98405016       5.03154361 -47375992.00000000 -31728136.00000000 -16001579.00000000
