9
Lattice="4.205197237502996 -6.46883102756466e-08 2.427871688863931 1.4017323013892915 3.9646979063688126 2.427871775679503 -2.0867110553201505e-07 -4.1225857810842974e-08 4.855743739156839" Properties=species:S:1:pos:R:3:forces:R:3 energy=-56.39695358276367 free_energy=-56.39695358276367 stress="0.0009942895267158747 -2.1805207950365002e-07 4.26722436941418e-07 -2.1805207950365002e-07 0.000994258327409625 3.2308264508174034e-07 4.26722436941418e-07 3.2308264508174034e-07 0.0009937265422195196" pbc="T T T"
Re       1.40173227       0.99116765       2.42786227       0.00000642      -0.00020901      -0.00030425
Re       4.20520219       2.97351826       7.28359728       0.00014161      -0.00015784      -0.00053141
Fe      -0.00000011      -0.00000065      -0.00000069       0.00000631      -0.00001150      -0.00003282
O        1.42960238       1.01088321       4.85574739      -0.00159723      -0.00106244       0.00013721
O        4.17732376       2.95382017       4.85575020       0.00150260       0.00121546       0.00021135
O        3.49039675       1.01088191       3.66594876       0.00081655      -0.00111291      -0.00124806
O        2.11653364       2.95381533       6.04554614      -0.00078236       0.00112464       0.00146343
O        2.11652960       2.95381868       3.66595074      -0.00089863       0.00120644      -0.00119354
O        3.49039685       1.01088674       6.04554661       0.00080461      -0.00099251       0.00149910
