9
Lattice="2.224339878563998 -0.8697549088854533 1.4171506773920959 2.2629729542994372 3.6774122121327584 1.1242541137636022 -0.23908162330502664 -0.3770749323353644 3.773300765509442" Properties=species:S:1:pos:R:3:forces:R:3 energy=-6946787.5 free_energy=-6946787.5 stress="1689049.875 -261384.09375 293076.875 -261384.09375 1478684.375 -311165.90625 293076.875 -311165.90625 1554367.5" pbc="T T T"
Re       0.74378607       0.61633421       0.62692027 5596504.00000000 -213791.25000000  -43859.87500000
Re       4.02787982       1.06998825       4.74734184 8252184.00000000 -948739.93750000 -690611.12500000
Fe      -0.51571619      -0.06931615       0.10040047 1658982.25000000 2363671.50000000 -373813.25000000
S        0.68858185       0.48634573       2.18919943 53135880.00000000 -25597292.00000000 21706674.00000000
S        3.27430529       1.49464580       2.90509541 -2272318.50000000 4960601.50000000 -7212858.00000000
S        1.00868005       0.36473659       2.32812198 -67272184.00000000 20467616.00000000 -23214694.00000000
S        2.49209936       1.58394939       5.28898944 8960729.00000000 -872722.00000000 -9235332.00000000
S        2.64881979       1.87180257       1.80056835 -11889632.00000000  370390.50000000 17623344.00000000
S        1.41741954      -0.53744329       5.39124696 3829879.50000000 -529743.25000000 1441137.87500000
