9
Lattice="0.779058356103314 3.2517021732967764 3.2587124727489893 1.138778899749128 4.127784477786338 -1.3655852074119288 -2.448397983506718 2.6465201072191857 0.6657120009274972" Properties=species:S:1:pos:R:3:forces:R:3 energy=-57332.125 free_energy=-57332.125 stress="4511.7431640625 231.49032592773438 -1057.8079833984375 231.49032592773438 1933.227783203125 -2037.1346435546875 -1057.8079833984375 -2037.1346435546875 2963.23681640625" pbc="T T T"
Re       0.25115253       3.42084243       0.01917972  -31502.14453125  -25203.85742188   -7646.84375000
Re       0.45982537       8.14981900       2.31043544  -17450.75976562  -37099.33203125  -25163.40039062
Fe      -0.13543474      -0.23014596       0.11777440  -50023.18750000  -92670.14062500  -76977.39843750
Se      -0.90658151       2.90952512       0.88478271   48391.49218750   18231.68750000  -12224.51953125
Se       0.27337614       6.65818674       1.83084526   29388.86914062   14028.24804688   11340.16113281
Se       0.61034754       4.20768193       2.16739105     969.98144531   11363.65625000  -14014.85351562
Se      -1.51152072       5.42308400       0.68724748    2728.81640625  -13225.60351562  -22273.53515625
Se       0.79709198       4.90081738      -0.08428880   43296.50000000  133244.84375000  165926.92187500
Se      -1.31090158       4.68951042       2.81019062  -25799.62890625   -8669.47070312  -18966.53320312
