9
Lattice="4.288776399205834 -2.7998484813940517e-08 2.4761264533485816 1.42959210643377 4.043496448191435 2.4761264537601897 -2.0335588171113633e-07 -1.4329021210642075e-07 4.952253258919875" Properties=species:S:1:pos:R:3:forces:R:3 energy=-58.256675720214844 free_energy=-58.256675720214844 stress="-0.00022837358119431883 -8.06876698788983e-07 1.0556453844401403e-06 -8.06876698788983e-07 -0.0002241892070742324 6.584784841834335e-07 1.0556453844401403e-06 6.584784841834335e-07 -0.00023047513968776911" pbc="T T T"
Re       1.42958539       1.01086066       2.47612586      -0.00020099      -0.00039998      -0.00005086
Re       4.28878262       3.03263787       7.42836611       0.00019409       0.00047736      -0.00044703
Ge       0.00000008      -0.00000003      -0.00000027      -0.00000570      -0.00000554      -0.00000713
O        1.47082637       1.04002439       4.95225650      -0.00054789      -0.00057632       0.00008159
O        4.24754118       3.00347236       4.95225835       0.00056243       0.00057381       0.00016809
O        3.55336466       1.04002108       3.74990413       0.00032121      -0.00068468      -0.00033808
O        2.16500452       3.00347234       6.15460625      -0.00027859       0.00058168       0.00048923
O        2.16499982       3.00346821       3.74990128      -0.00044143       0.00052923      -0.00039935
O        3.55336849       1.04002804       6.15460661       0.00039577      -0.00049454       0.00050509
