9
Lattice="2.795870230909223 0.8053702697380295 1.8873876407552432 1.6365485392576222 3.482155254878115 0.06908004848437177 0.040155651540346754 -0.7152145496006237 4.3422022354811265" Properties=species:S:1:pos:R:3:forces:R:3 energy=-240462832.0 free_energy=-240462832.0 stress="22102036.0 347048.5 -5893588.0 347048.5 24422502.0 13019935.0 -5893588.0 13019935.0 33766668.0" pbc="T T T"
Re       1.37065259       1.93957678       1.48940889 -209330992.00000000 -273255296.00000000 -215950960.00000000
Re       3.01305358       2.92931160       5.11622935 24658424.00000000 141841216.00000000 56218664.00000000
Ge      -0.54409834      -0.12120043       0.29266554 8522942.00000000 98575456.00000000 -81136656.00000000
Se       0.74858154       0.68765061       2.82265130 -28456828.00000000 59518256.00000000 -15212356.00000000
Se       3.72622946       3.00203796       2.98506498 65254832.00000000 -149626976.00000000 69965800.00000000
Se       1.09446350       0.70700687       5.11924310 308214336.00000000 42069744.00000000 54994360.00000000
Se       1.52663599       0.97811747       5.18281987 -304144032.00000000 265162080.00000000 430576800.00000000
Se       1.37187092       2.76280020       1.82156156 243712640.00000000 -211432048.00000000 -117893480.00000000
Se       1.85543808       1.55138567       6.11865426 -108431360.00000000 27147488.00000000 -181562000.00000000
