9
Lattice="3.7838214888376194 -1.1055573526364995 1.8305238976554463 0.6743992751392569 2.90742631689733 2.232274168132896 0.3155754304764805 0.27786303189216416 2.5613595707867653" Properties=species:S:1:pos:R:3:forces:R:3 energy=-2174924288.0 free_energy=-2174924288.0 stress="410306592.0 62304048.0 -46862976.0 62304048.0 788696768.0 35632612.0 -46862976.0 35632612.0 577842880.0" pbc="T T T"
Re       3.36158883       0.26264673       1.56641014 -2126091648.00000000 3916805888.00000000 -293745216.00000000
Re       3.61858205       2.10737165       4.55614186 863638400.00000000 1454306048.00000000 -687081152.00000000
Ge      -0.18100065       0.44742298      -0.50093325 582001536.00000000 -386022080.00000000 1202790400.00000000
S        1.45010048       1.80968407       2.22146052 1094053376.00000000 -75792704.00000000 -4064762368.00000000
S        3.35152462       0.21891865       2.91292447 3659733760.00000000 1833785600.00000000 -332606976.00000000
S        3.37848438       0.42438677       1.74457907 1245061632.00000000 -4344392192.00000000 1209794816.00000000
S        2.28470486       3.70664740       4.02529577 -262961056.00000000 134387520.00000000 172226352.00000000
S        1.56341231       1.78345676       2.03138113 -2423737600.00000000 1186861568.00000000 3280722176.00000000
S        3.38982742       0.24766097       2.96664341 -2631701760.00000000 -3719945728.00000000 -487339008.00000000
