9
Lattice="6.0532262500081755 -6.144939644604815e-09 3.4948316712584275 2.0177420908114447 5.707036413214 3.494831648276039 -2.1765295254470225e-08 -4.3537942496456536e-08 6.989663380215434" Properties=species:S:1:pos:R:3:forces:R:3 energy=-35.88717269897461 free_energy=-35.88717269897461 stress="9.457825944991782e-05 1.5027010746848646e-08 5.2557268759301223e-08 1.5027010746848646e-08 9.458066779188812e-05 3.980641949397068e-08 5.2557268759301223e-08 3.980641949397068e-08 9.465235780226067e-05" pbc="T T T"
Re       2.01774320       1.42676048       3.49483223       0.00001365       0.00001388       0.00000581
Re       6.05322512       4.28027723      10.48449216      -0.00001316       0.00000002      -0.00003184
Ge      -0.00000010      -0.00000024      -0.00000024      -0.00000018       0.00000352       0.00000053
Te       2.14220467       1.51476696       6.98966324      -0.00170714      -0.00121064      -0.00000234
Te       5.92876412       4.19226887       6.98966434       0.00170828       0.00120257       0.00001249
Te       4.98212301       1.51476681       5.35003502       0.00084720      -0.00121293      -0.00148037
Te       3.08884533       4.19226863       8.62929261      -0.00084392       0.00120231       0.00148746
Te       3.08884386       4.19226864       5.35003518      -0.00085707       0.00120226      -0.00148019
Te       4.98212408       1.51476804       8.62929225       0.00085248      -0.00120117       0.00148822
