9
Lattice="5.24938353251313 1.8815443531493772e-06 3.0307359264714075 1.7497962601522086 4.949168003326625 3.0307359691192013 -2.4375742111687026e-06 -1.671392921250051e-06 6.061476074945166" Properties=species:S:1:pos:R:3:forces:R:3 energy=-45.51342010498047 free_energy=-45.51342010498047 stress="5.272329144645482e-05 -3.4170500384789193e-06 2.264552449560142e-06 -3.4170500384789193e-06 5.15830579388421e-05 1.1419758720876416e-06 2.264552449560142e-06 1.1419758720876416e-06 4.290231299819425e-05" pbc="T T T"
Re       1.74975655       1.23736806       3.03054876      -0.00043223       0.00112406      -0.00271415
Re       5.24946152       3.71199520       9.09197663       0.00101151       0.00165459      -0.00330782
Ir      -0.00000174      -0.00001033       0.00001946      -0.00004550      -0.00017493       0.00040334
Se       1.93550728       1.36862673       6.06155758      -0.00199878      -0.00139117       0.00112214
Se       5.06368813       3.58048566       6.06158214       0.00224328       0.00061220       0.00142624
Se       4.28162198       1.36852953       4.70704273       0.00097987      -0.00251448      -0.00038081
Se       2.71756134       3.58053156       7.41603141      -0.00089011       0.00096464       0.00217730
Se       2.71752896       3.58054918       4.70700328      -0.00140956       0.00136232      -0.00085431
Se       4.28158506       1.36859784       7.41602950       0.00054157      -0.00163686       0.00212812
