9
Lattice="4.939351904629308 5.7387090742828835e-08 2.8517362551092056 1.6464507133285256 4.656866381172202 2.851736212938918 -6.002238651736185e-08 -9.409008153392022e-08 5.703472614180228" Properties=species:S:1:pos:R:3:forces:R:3 energy=-52.444271087646484 free_energy=-52.444271087646484 stress="3.2712916436139494e-05 -1.0746688872131926e-07 8.685075414405219e-08 -1.0746688872131926e-07 3.22905762004666e-05 8.681146823619201e-08 8.685075414405219e-08 8.681146823619201e-08 3.2482799724675715e-05" pbc="T T T"
Re       1.64644852       1.16421757       2.85173557      -0.00001515       0.00000741      -0.00000730
Re       4.93935218       3.49264932       8.55520675      -0.00000083      -0.00000510      -0.00001951
Ir       0.00000029       0.00000006      -0.00000012      -0.00000122      -0.00000070      -0.00000038
S        1.81656951       1.28450912       5.70347259       0.00075543       0.00053740      -0.00000021
S        4.76923359       3.37235697       5.70347337      -0.00075030      -0.00053525       0.00000485
S        4.03106780       1.28450832       4.42493246      -0.00037527       0.00053602       0.00065947
S        2.55473557       3.37235735       6.98201367       0.00037891      -0.00053328      -0.00065124
S        2.55473533       3.37235758       4.42493216       0.00038224      -0.00053847       0.00066102
S        4.03106734       1.28450903       6.98201373      -0.00037378       0.00053203      -0.00064719
