9
Lattice="4.611695939047881 3.2645738414742525e-07 2.6625644077398336 1.537232299333401 4.347952350670145 2.6625643871911406 2.2920273076024946e-07 1.369039106798055e-07 5.325128418488869" Properties=species:S:1:pos:R:3:forces:R:3 energy=-56.54811096191406 free_energy=-56.54811096191406 stress="-0.00021360866958275437 -1.0247246109429398e-06 -7.949540759000229e-07 -1.0247246109429398e-06 -0.0002289056428708136 -4.962937509844778e-07 -7.949540759000229e-07 -4.962937509844778e-07 -0.00021654287411365658" pbc="T T T"
Re       1.53717659       1.08709846       2.66258760      -0.00147759       0.00273676       0.00070398
Re       4.61168493       3.26088005       7.98774069      -0.00040862      -0.00200690       0.00130263
Ir       0.00000220      -0.00000069      -0.00000202       0.00004941      -0.00002023      -0.00004983
O        1.55129471       1.09698199       5.32511789      -0.00205293      -0.00049809      -0.00031716
O        4.59764931       3.25095412       5.32510385       0.00252914      -0.00005978      -0.00062244
O        3.83605639       1.09697861       4.00602659       0.00140594      -0.00035533      -0.00184247
O        2.31289015       3.25098084       6.64422763      -0.00093758       0.00059456       0.00168785
O        2.31289594       3.25098046       4.00602142      -0.00066295       0.00046247      -0.00208190
O        3.83606356       1.09695733       6.64420501       0.00155522      -0.00085387       0.00121915
