9
Lattice="5.091510861104509 -2.1610573992126297e-08 2.9395849681033015 1.6971702190968292 4.8003225211777325 2.9395850504855225 -3.9287664248651326e-08 7.311659771086414e-08 5.879170004254873" Properties=species:S:1:pos:R:3:forces:R:3 energy=-47.50505065917969 free_energy=-47.50505065917969 stress="0.0001612870255485177 1.6772395028397113e-08 1.0550193962899357e-07 1.6772395028397113e-08 0.00016164522094186395 8.544894569695316e-08 1.0550193962899357e-07 8.544894569695316e-08 0.00016145252448040992" pbc="T T T"
Re       1.69717327       1.20008005       2.93958273       0.00003413      -0.00000355      -0.00003799
Re       5.09151142       3.60024407       8.81874984       0.00001200       0.00002520      -0.00006854
Mn       0.00000004       0.00000014       0.00000079      -0.00000540      -0.00000308       0.00001636
Se       1.88975129       1.33625493       5.87916979       0.00409102       0.00288606       0.00000774
Se       4.89892940       3.46406696       5.87917208      -0.00410271      -0.00289404       0.00002448
Se       4.14663469       1.33625500       4.57615869      -0.00205249       0.00288343       0.00355434
Se       2.64204592       3.46406648       7.18218341       0.00204664      -0.00289702      -0.00352788
Se       2.64204472       3.46406687       4.57615897       0.00203693      -0.00289011       0.00355804
Se       4.14663343       1.33625578       7.18218397      -0.00206017       0.00289345      -0.00352681
