9
Lattice="4.20750808388797 -9.817613622566596e-08 2.4292056767403514 1.4025025901203998 3.9668767994648713 2.4292056974341723 -3.015759374515014e-07 -1.8790173678290126e-07 4.858411875825528" Properties=species:S:1:pos:R:3:forces:R:3 energy=-60.3819465637207 free_energy=-60.3819465637207 stress="0.00044365390203893185 1.6480009890074143e-07 1.6371540141335572e-06 1.6480009890074143e-07 0.0004428643442224711 1.043450424731418e-06 1.6371540141335572e-06 1.043450424731418e-06 0.00044443458318710327" pbc="T T T"
Re       1.40248729       0.99173216       2.42921054      -0.00052149       0.00041168       0.00009686
Re       4.20748818       2.97516412       7.28760249      -0.00064292       0.00024617      -0.00044701
Mn      -0.00000052       0.00000024      -0.00000016      -0.00001288       0.00001084      -0.00000459
O        1.43780101       1.01666795       4.85840969      -0.00278753      -0.00231902      -0.00004046
O        4.17222067       2.95019582       4.85841920       0.00315303       0.00189354       0.00021342
O        3.48861502       1.01667300       3.67437591       0.00166006      -0.00217900      -0.00246096
O        2.12140721       2.95019812       6.04245585      -0.00123024       0.00200778       0.00276807
O        2.12140471       2.95019916       3.67437079      -0.00134452       0.00201519      -0.00265580
O        3.48861797       1.01667540       6.04244870       0.00172721      -0.00208737       0.00253201
