9
Lattice="5.84740903196676 3.3810931352724556e-08 3.3760032024779347 1.9491363659587355 5.512990141124159 3.3760032196381067 4.357083409776818e-09 2.4097758944124093e-08 6.752006397409152" Properties=species:S:1:pos:R:3:forces:R:3 energy=-42.39097213745117 free_energy=-42.39097213745117 stress="-0.00014225779159460217 -2.9284938918294756e-08 -1.127767479403019e-08 -2.9284938918294756e-08 -0.00014223255857359618 1.6980184369685958e-08 -1.127767479403019e-08 1.6980184369685958e-08 -0.00014226332132238895" pbc="T T T"
Re       1.94913596       1.37824792       3.37600337      -0.00000322       0.00000343       0.00000453
Re       5.84741062       4.13474293      10.12801120       0.00001633       0.00000103       0.00001159
Mn       0.00000011      -0.00000007       0.00000030      -0.00000030       0.00000005      -0.00000314
Te       1.99790531       1.41273300       6.75200625      -0.00153098      -0.00107737      -0.00000255
Te       5.79863955       4.10025736       6.75200604       0.00153051       0.00107948      -0.00000534
Te       4.84845606       1.41273283       5.10624008       0.00076370      -0.00108051      -0.00132696
Te       2.94808890       4.10025711       8.39777187      -0.00077382       0.00108273       0.00132469
Te       2.94808890       4.10025753       5.10624047      -0.00076815       0.00107879      -0.00132306
Te       4.84845620       1.41273220       8.39777168       0.00076604      -0.00108770       0.00132047
