9
Lattice="4.865688766717364 5.117423492364645e-08 2.809206868793911 1.6218962963174155 4.587415555667124 2.809206881788745 2.445102020240704e-08 3.320484486357294e-08 5.618413695237421" Properties=species:S:1:pos:R:3:forces:R:3 energy=-53.87701416015625 free_energy=-53.87701416015625 stress="0.0002777638437692076 -6.292200538382531e-08 -6.772859251213958e-08 -6.292200538382531e-08 0.00027778520598076284 3.525560288153429e-08 -6.772859251213958e-08 3.525560288153429e-08 0.0002778619236778468" pbc="T T T"
Re       1.62189582       1.14685440       2.80920692      -0.00000288       0.00000155       0.00000197
Re       4.86568856       3.44056126       8.42762202      -0.00000359      -0.00000269       0.00000674
Mn      -0.00000006       0.00000022      -0.00000006       0.00000177      -0.00000023      -0.00000209
S        1.73460188       1.22654889       5.61841366       0.00010407       0.00007445      -0.00000178
S        4.75298335       3.36086681       5.61841322      -0.00010288      -0.00007468      -0.00000210
S        3.99838808       1.22654885       4.31141593      -0.00005025       0.00007236       0.00008756
S        2.48919738       3.36086671       6.92541116       0.00005054      -0.00006992      -0.00008976
S        2.48919740       3.36086680       4.31141580       0.00005454      -0.00007373       0.00008929
S        3.99838789       1.22654866       6.92541122      -0.00005090       0.00007224      -0.00008994
