9
Lattice="5.823244378837306 6.268555885712e-08 3.362051685454612 1.9410815151010816 5.490207700400084 3.36205169171056 -2.253814936340141e-08 -8.274968147681752e-09 6.72410340994648" Properties=species:S:1:pos:R:3:forces:R:3 energy=-39.749656677246094 free_energy=-39.749656677246094 stress="-5.734602018492296e-05 7.517849809346444e-08 1.2897979573267548e-08 7.517849809346444e-08 -5.743487417930737e-05 -5.440846440052383e-09 1.2897979573267548e-08 -5.440846440052383e-09 -5.742738358094357e-05" pbc="T T T"
Re       1.94108128       1.37255052       3.36205205      -0.00000018      -0.00001636       0.00000173
Re       5.82324402       4.11765687      10.08615486      -0.00000468       0.00000868      -0.00000108
Ni       0.00000016       0.00000004      -0.00000019      -0.00000343      -0.00000052       0.00000196
Te       1.99254133       1.40893872       6.72410326      -0.00036155      -0.00026226       0.00000037
Te       5.77178447       4.08126892       6.72410300       0.00036535       0.00026686      -0.00000076
Te       4.82697392       1.40893915       5.08764287       0.00018105      -0.00025936      -0.00031476
Te       2.93735193       4.08126872       8.36056434      -0.00017864       0.00025984       0.00031233
Te       2.93735194       4.08126878       5.08764275      -0.00018245       0.00025902      -0.00031275
Te       4.82697438       1.40893928       8.36056424       0.00018425      -0.00025595       0.00031281
