9
Lattice="4.7872339602715615 3.833108050562807e-08 2.763910676938464 1.5957446643660176 4.5134472836040205 2.7639107205804576 -5.48475655944012e-08 1.466722357461348e-08 5.527821448875652" Properties=species:S:1:pos:R:3:forces:R:3 energy=-51.16995620727539 free_energy=-51.16995620727539 stress="0.0001514484902145341 8.275804930235608e-09 7.453740380469753e-08 8.275804930235608e-09 0.0001516100310254842 7.049242611856243e-08 7.453740380469753e-08 7.049242611856243e-08 0.00015147688100114465" pbc="T T T"
Re       1.59574524       1.12836095       2.76391067      -0.00000053      -0.00000016      -0.00000110
Re       4.78723312       3.38508607       8.29173078       0.00000153       0.00000005       0.00000012
Ni      -0.00000010       0.00000010      -0.00000006       0.00000428       0.00000310      -0.00000125
S        1.66649872       1.17839231       5.52782164      -0.00014128      -0.00009662       0.00000468
S        4.71648023       3.33505500       5.52782134       0.00013366       0.00009002      -0.00000454
S        3.95398399       1.17839196       4.20714089       0.00006878      -0.00009170      -0.00012001
S        2.42899470       3.33505523       6.84850265      -0.00007032       0.00009752       0.00012022
S        2.42899372       3.33505531       4.20714117      -0.00006673       0.00009654      -0.00011697
S        3.95398477       1.17839240       6.84850228       0.00007083      -0.00009912       0.00011906
