9
Lattice="4.274470788689463 5.1081917914784364e-08 2.4678669531129396 1.4248236316554959 4.030009822099928 2.467866975170304 1.4994363843298193e-07 1.3304077773181954e-07 4.9357336465158985" Properties=species:S:1:pos:R:3:forces:R:3 energy=-52.828243255615234 free_energy=-52.828243255615234 stress="-5.505417448148364e-06 -2.504486076304602e-07 -1.0985856988554588e-06 -2.504486076304602e-07 -5.389189027482644e-06 -7.261943437697482e-07 -1.0985856988554588e-06 -7.261943437697482e-07 -5.948057605564827e-06" pbc="T T T"
Re       1.42482827       1.00749353       2.46784541       0.00017405      -0.00024820      -0.00051194
Re       4.27448739       3.02250464       7.40362180       0.00045187      -0.00009991       0.00050022
Ni      -0.00000078       0.00000043       0.00000012      -0.00000640       0.00001097      -0.00000248
O        1.43590031       1.01534449       4.93573923      -0.00001565       0.00023259       0.00015090
O        4.26338703       3.01467382       4.93572706      -0.00019032      -0.00000568      -0.00016077
O        3.55652052       1.01533784       3.71140043      -0.00001881       0.00009894       0.00013025
O        2.14276664       3.01467233       6.16006519      -0.00019446      -0.00005981      -0.00022559
O        2.14277974       3.01467633       3.71139808       0.00008954       0.00004487       0.00015058
O        3.55650881       1.01533664       6.16007297      -0.00028987       0.00002618      -0.00003138
