9
Lattice="5.030275162212618 2.170085814729303e-08 2.904231038352857 1.6767584170319152 4.742588882956824 2.904231022473492 -1.0752520042173444e-08 -2.7051371771011586e-08 5.8084620953296024" Properties=species:S:1:pos:R:3:forces:R:3 energy=-44.62567138671875 free_energy=-44.62567138671875 stress="-1.526672531326767e-05 -8.646738791640018e-08 8.848800092664533e-08 -8.646738791640018e-08 -1.5143926248128992e-05 6.751489678435973e-08 8.848800092664533e-08 6.751489678435973e-08 -1.5380826880573295e-05" pbc="T T T"
Re       1.67675418       1.18564887       2.90423310      -0.00003850       0.00002167       0.00001843
Re       5.03027408       3.55694575       8.71269325      -0.00001862       0.00003618       0.00000573
Ni       0.00000035      -0.00000063      -0.00000034       0.00000469      -0.00000346       0.00000290
Se       1.79743818       1.27097919       5.80846171      -0.00196294      -0.00140198      -0.00000345
Se       4.90959755       3.47160678       5.80846286       0.00198519       0.00137867       0.00000159
Se       4.13155656       1.27097905       4.46085821       0.00098834      -0.00140712      -0.00170666
Se       2.57547789       3.47160960       7.15606581      -0.00097649       0.00139397       0.00170080
Se       2.57547776       3.47160858       4.46085731      -0.00097775       0.00139129      -0.00171092
Se       4.13155771       1.27097837       7.15606473       0.00099607      -0.00140901       0.00169173
