9
Lattice="6.483482814462369 -0.13354598917608798 2.908093243027955 2.215469845045228 4.606884976086936 2.8656974799268515 -0.050732238627144516 0.009655026090063332 5.726361529523546" Properties=species:S:1:pos:R:3:forces:R:3 energy=-75.76229858398438 free_energy=-75.76229858398438 stress="4.3622858356684446e-05 -0.00012662076915148646 -9.849004709394649e-05 -0.00012662076915148646 -0.00020658712310250849 1.1463865121186245e-05 -9.849004709394649e-05 1.1463865121186245e-05 8.230043022194877e-05" pbc="T T T"
Re      -0.65130670       2.21842855       2.85296983      -0.00033593      -0.00010427      -0.00215661
Re       4.31230386       3.93465639       8.60795133      -0.00083646      -0.00197053      -0.00181312
Os      -0.06359758      -0.05419642      -0.00148686      -0.00076640       0.00024034      -0.00122412
O        1.98205471       1.10204032       5.74109691       0.00248211       0.00262183      -0.00030257
O        7.36313392       3.07112449       5.76997724       0.00078392      -0.00180697      -0.00070189
O        6.06855973       0.77680067       4.45157220      -0.00008250      -0.00062041      -0.00037122
O        4.75750861       3.05413223       7.06279458      -0.00135148       0.00069511       0.00359529
O        4.78010257       3.04639818       4.43517516       0.00193208      -0.00023055       0.00315571
O        6.04413231       0.78259033       7.08052913      -0.00182544       0.00117533      -0.00018150
