9
Lattice="4.913654848328692 -2.7446460510571434e-08 2.836899852163244 1.6378848915879538 4.632638384274153 2.83689990755108 2.292652725937325e-08 8.404748225882049e-08 5.673799664616583" Properties=species:S:1:pos:R:3:forces:R:3 energy=-54.9166259765625 free_energy=-54.9166259765625 stress="-3.648951314971782e-05 2.655808550855454e-08 -2.9310086802070145e-08 2.655808550855454e-08 -3.646861659944989e-05 3.354065825078578e-08 -2.9310086802070145e-08 3.354065825078578e-08 -3.630464925663546e-05" pbc="T T T"
Re       1.63788554       1.15816020       2.83690005       0.00000565       0.00000529      -0.00000104
Re       4.91365433       3.47447928       8.51069943      -0.00000426       0.00000215      -0.00000029
Os      -0.00000009       0.00000015       0.00000036       0.00000182       0.00000009      -0.00000610
S        1.81572203       1.28390945       5.67379946      -0.00003767      -0.00002873      -0.00000239
S        4.73581790       3.34872867       5.67379997       0.00003088       0.00002038       0.00000017
S        4.00579357       1.28390945       4.40936106       0.00001597      -0.00002456      -0.00002801
S        2.54574594       3.34872849       6.93823835      -0.00001872       0.00002933       0.00003469
S        2.54574623       3.34872893       4.40936097      -0.00001281       0.00002444      -0.00002861
S        4.00579354       1.28390921       6.93823810       0.00001872      -0.00002885       0.00003195
