9
Lattice="6.161246528330758 0.28510876307011496 2.6317662852245465 1.9230510780936776 5.076273490522581 3.3303756474539923 -0.9077639082301064 0.36010458079183744 6.6208902313954265" Properties=species:S:1:pos:R:3:forces:R:3 energy=-57.845176696777344 free_energy=-57.845176696777344 stress="0.00015751660976093262 -0.00012009679630864412 2.3677708668401465e-05 -0.00012009679630864412 -0.0002559434506110847 -2.9437109333230183e-05 2.3677708668401465e-05 -2.9437109333230183e-05 -1.6686821254552342e-05" pbc="T T T"
Re       3.03531442       1.02390575       2.20461866      -0.00016433      -0.00374323       0.00012968
Re       6.83170748       4.67032643       8.85913317       0.00576442       0.00071213       0.00309443
Os      -0.52046497       0.00701929       0.29531020       0.00056639      -0.00690516      -0.00333655
Se       0.65317651       1.92500464       6.61683081       0.00423110       0.00639561       0.00149110
Se       5.74760787       3.84364231       6.77842881      -0.00009581      -0.00471592       0.00074349
Se       4.28601645       1.85399720       4.19338218      -0.00034417      -0.00101167       0.00277618
Se       1.80186135       3.84014023       8.62837989      -0.00398558       0.00488579      -0.00226066
Se       2.98531167       4.63007749       5.56670381       0.00137514       0.00050906       0.00178760
Se       3.88569596       1.09195986       7.18948706      -0.00734738       0.00387355      -0.00442570
