9
Lattice="4.963775350356782 1.9580718930892374e-07 2.8658368862651145 1.6545919118608825 4.679892484756974 2.8658369836066626 4.3545924948537935e-08 1.500101988994791e-07 5.73167369710647" Properties=species:S:1:pos:R:3:forces:R:3 energy=-47.43614196777344 free_energy=-47.43614196777344 stress="1.1456814718258101e-05 -4.667167630145741e-08 3.617003940803443e-08 -4.667167630145741e-08 1.1370038009772543e-05 5.7549048193550334e-08 3.617003940803443e-08 5.7549048193550334e-08 1.147010516433511e-05" pbc="T T T"
Re       1.65459138       1.16997365       2.86583696      -0.00000277       0.00000499       0.00000022
Re       4.96377579       3.50991814       8.59751047       0.00000004      -0.00000941      -0.00000141
Pd       0.00000021       0.00000011      -0.00000002       0.00000356      -0.00000026      -0.00000053
S        1.81620553       1.28425172       5.73167384       0.00389898       0.00275719       0.00000157
S        4.80216151       3.39564159       5.73167364      -0.00390124      -0.00275457      -0.00000210
S        4.05567307       1.28425205       4.43871666      -0.00194633       0.00275922       0.00337362
S        2.56269477       3.39564113       7.02463101       0.00194758      -0.00275671      -0.00337481
S        2.56269398       3.39564096       4.43871699       0.00194758      -0.00275886       0.00337851
S        4.05567322       1.28425215       7.02463042      -0.00194687       0.00275850      -0.00337601
