9
Lattice="4.968483980357792 -8.858273241423229e-08 2.8685553439642493 1.656161227814485 4.684331342262445 2.868555370732809 -4.183011647273682e-07 -2.629988822108385e-07 5.737111412447306" Properties=species:S:1:pos:R:3:forces:R:3 energy=-45.65357208251953 free_energy=-45.65357208251953 stress="-0.000268037139903754 -6.706085997620903e-08 1.7606802771297225e-07 -6.706085997620903e-08 -0.0002678123419173062 1.1245949593785554e-07 1.7606802771297225e-07 1.1245949593785554e-07 -0.00026807785616256297" pbc="T T T"
Re       1.65615916       1.17108329       2.86855476      -0.00001160       0.00000925      -0.00001177
Re       4.96848147       3.51325143       8.60566206      -0.00001133       0.00001164      -0.00001299
P        0.00000047      -0.00000004       0.00000021       0.00000346      -0.00000357       0.00000691
Se       1.85995383       1.31518493       5.73711213       0.00340933       0.00240588       0.00000354
Se       4.76469245       3.36914462       5.73711219      -0.00340652      -0.00241387       0.00000244
Se       4.03850769       1.31518425       4.47932323      -0.00170389       0.00240809       0.00295234
Se       2.58613866       3.36914531       6.99490060       0.00170845      -0.00240964      -0.00295013
Se       2.58613816       3.36914533       4.47932299       0.00171176      -0.00241613       0.00295883
Se       4.03850728       1.31518489       6.99490036      -0.00169998       0.00240779      -0.00294948
