9
Lattice="4.183472910381425 2.9052567041901512e-08 2.415329192286423 1.3944910568456097 3.9442156673733817 2.41532908952828 1.1014621389064273e-07 -4.7967381345276385e-08 4.830658193793994" Properties=species:S:1:pos:R:3:forces:R:3 energy=-64.63506317138672 free_energy=-64.63506317138672 stress="0.0001735127007123083 1.1600725713378779e-07 2.595046666442613e-08 1.1600725713378779e-07 0.00017286461661569774 -2.2560631141033127e-09 2.595046666442613e-08 -2.2560631141033127e-09 0.00017277653387282044" pbc="T T T"
Re       1.39448867       0.98605498       2.41532810      -0.00004075       0.00002138      -0.00003019
Re       4.18347604       2.95816121       7.24598760       0.00005551      -0.00001884      -0.00000021
P        0.00000004      -0.00000001       0.00000018      -0.00000312      -0.00000482       0.00001075
O        1.35014310       0.95469598       4.83065839       0.00050628       0.00037229       0.00000406
O        4.22782106       2.98951951       4.83065858      -0.00050247      -0.00037026       0.00000556
O        3.50840171       0.95469618       3.58458719      -0.00025111       0.00037360       0.00044823
O        2.06956246       2.98951924       6.07672939       0.00024694      -0.00037849      -0.00043845
O        2.06956188       2.98952101       3.58458866       0.00023729      -0.00035095       0.00046921
O        3.50840185       0.95469466       6.07672823      -0.00024962       0.00035536      -0.00046861
