9
Lattice="3.4481632202562302 -0.4866545962192839 -0.44179738895352827 2.0405535048939165 4.28180148268617 -1.0219052069907657 0.5020103178053076 -0.8872517753136793 2.6046992784538414" Properties=species:S:1:pos:R:3:forces:R:3 energy=-14519760.0 free_energy=-14519760.0 stress="2377500.0 1053142.625 -751538.6875 1053142.625 2249608.75 576294.125 -751538.6875 576294.125 930032.875" pbc="T T T"
Re       1.50198385       1.50685830       0.62767746 -14735976.00000000 -12281842.00000000 3898149.75000000
Re       6.02947485       4.75222733       0.04851056 -34641064.00000000 -13045068.00000000 10692961.00000000
Pt       0.36110812       1.83216270      -0.01347556  902404.50000000 1848743.00000000 -19103648.00000000
Se       2.01906207       4.44529962       0.43204972 18414940.00000000 20787676.00000000 -2202425.00000000
Se       6.13405739       3.92474000      -1.48174639 3625856.25000000 -16282392.00000000 -867288.00000000
Se       3.24435043       0.96648134       1.25801188 -1486624.75000000 1623060.00000000 -996618.87500000
Se       2.91367821       4.57172292       0.49273901 -38687632.00000000 -3608048.00000000 18765822.00000000
Se       4.38997036       5.25892520      -2.25101344 62462808.00000000 20199496.00000000 -9103361.00000000
Se       4.76126684       2.66157016      -1.87253660 4145319.75000000  758375.25000000 -1083593.75000000
