9
Lattice="4.662525470651694 1.0946418521506849e-06 2.6919121507670316 1.5541761056538863 4.395869838753968 2.6919122949919463 2.4478285185921624e-06 1.9075146963419475e-06 5.383820061770698" Properties=species:S:1:pos:R:3:forces:R:3 energy=-53.26490783691406 free_energy=-53.26490783691406 stress="3.458305945969187e-05 -9.137833671957196e-07 -9.185663657262921e-06 -9.137833671957196e-07 3.862689118250273e-05 -6.617383860429982e-06 -9.185663657262921e-06 -6.617383860429982e-06 3.207095869584009e-05" pbc="T T T"
Re       1.55399336       1.09901965       2.69190129      -0.00467161       0.00142123       0.00008431
Re       4.66237939       3.29702277       8.07597282      -0.00389263       0.00296708       0.00585123
Pt       0.00000154      -0.00000040      -0.00000043       0.00001473      -0.00001769      -0.00004335
O        1.57106056       1.11080533       5.38381872       0.00201344      -0.00122619      -0.00011809
O        4.64574393       3.28493950       5.38370267       0.00053766      -0.00199136      -0.00281361
O        3.87709680       1.11088366       4.05246216       0.00154452       0.00089291       0.00099620
O        2.33969439       3.28500045       6.71519621       0.00072066      -0.00048727      -0.00068197
O        2.33978487       3.28501107       4.05239386       0.00296040      -0.00042394      -0.00081882
O        3.87706110       1.11080928       6.71513044       0.00077292      -0.00113487      -0.00245607
