9
Lattice="4.272617057153409 1.8742325366467574e-07 2.4667967763678744 1.4242058610909298 4.028262382609392 2.4667967786736087 4.825777365484792e-08 3.694733813647037e-08 4.9335934691508125" Properties=species:S:1:pos:R:3:forces:R:3 energy=-51.1917724609375 free_energy=-51.1917724609375 stress="-8.337554754689336e-05 -1.1324405022605788e-06 -1.1030787305799095e-07 -1.1324405022605788e-06 -8.624891052022576e-05 -1.6749625331158313e-07 -1.1030787305799095e-07 -1.6749625331158313e-07 -8.625486225355417e-05" pbc="T T T"
Re       1.42420385       1.00706634       2.46679644      -0.00002671       0.00000680      -0.00000896
Re       4.27262578       3.02119199       7.40039094       0.00027466      -0.00015377       0.00002527
Pd      -0.00000002       0.00000024      -0.00000013      -0.00001124      -0.00000106      -0.00000597
O        1.53955868       1.08863645       4.93359370      -0.00105274      -0.00060099       0.00001095
O        4.15726279       2.93962762       4.93359289       0.00098753       0.00068158      -0.00002045
O        3.50283742       1.08863383       3.80009631       0.00049996      -0.00068998      -0.00083339
O        2.19398356       2.93963017       6.06708912      -0.00058275       0.00073284       0.00078797
O        2.19398384       2.93962844       3.80009601      -0.00056803       0.00068814      -0.00083423
O        3.50283607       1.08863545       6.06709254       0.00047839      -0.00066340       0.00087881
