9
Lattice="4.865352442424551 -8.375463905071177e-07 2.8090119424765487 1.6217835316338303 4.587096164470704 2.8090116414372943 4.223030882036146e-07 -7.008294881968083e-08 5.618023153502667" Properties=species:S:1:pos:R:3:forces:R:3 energy=-45.081207275390625 free_energy=-45.081207275390625 stress="6.9195980358927045e-06 3.051545149901358e-07 -2.626682658046775e-07 3.051545149901358e-07 7.445803476002766e-06 4.795257524392582e-09 -2.626682658046775e-07 4.795257524392582e-09 7.177115094236797e-06" pbc="T T T"
Re       1.62180063       1.14676829       2.80902841       0.00006688      -0.00000756       0.00008604
Re       4.86536385       3.44032383       8.42705489       0.00006386      -0.00000660       0.00008559
Pd      -0.00000486       0.00000101      -0.00000516      -0.00002201      -0.00000020      -0.00003699
Se       1.79637413       1.27023331       5.61801806      -0.00182348      -0.00127348      -0.00003266
Se       4.69075482       3.31686175       5.61802098       0.00178516       0.00127417      -0.00002650
Se       3.96715824       1.27023221       4.36471772       0.00088939      -0.00128296      -0.00158423
Se       2.51997121       3.31686520       6.87131707      -0.00092164       0.00127462       0.00155842
Se       2.51997348       3.31686331       4.36471668      -0.00093803       0.00129136      -0.00159955
Se       3.96715484       1.27023229       6.87131847       0.00089946      -0.00126880       0.00155008
