9
Lattice="4.777142749669435 -5.16789341373166e-08 2.7580846234156473 1.5923808896042333 4.503933196042505 2.758084585706963 -9.56252264893753e-09 -5.29452482355142e-08 5.516169263394071" Properties=species:S:1:pos:R:3:forces:R:3 energy=-51.140621185302734 free_energy=-51.140621185302734 stress="5.279923425405286e-05 -2.1231388203091228e-08 6.811015396124276e-08 -2.1231388203091228e-08 5.2763742132810876e-05 4.374716411348345e-08 6.811015396124276e-08 4.374716411348345e-08 5.2796254749409854e-05" pbc="T T T"
Re       1.59238124       1.12598361       2.75808422      -0.00000086      -0.00000173       0.00000136
Re       4.77714285       3.37795005       8.27425396      -0.00000148      -0.00000066       0.00000055
P        0.00000006       0.00000003       0.00000025      -0.00000049      -0.00000218      -0.00000143
S        1.75096322       1.23811760       5.51616915      -0.00311452      -0.00220263       0.00000194
S        4.61856027       3.26581537       5.51616902       0.00311589       0.00220335       0.00000067
S        3.90166097       1.23811773       4.27446315       0.00155962      -0.00220314      -0.00269881
S        2.46786248       3.26581491       6.75787559      -0.00155784       0.00220403       0.00269830
S        2.46786218       3.26581533       4.27446321      -0.00155726       0.00220451      -0.00269875
S        3.90166132       1.23811769       6.75787538       0.00155684      -0.00220111       0.00269607
