9
Lattice="4.94429884034533 2.5403369375037944e-08 2.8545921565891277 1.6480996076729426 4.66152963522113 2.8545922080761175 -4.728388300412902e-08 2.96236925931796e-08 5.7091843950763" Properties=species:S:1:pos:R:3:forces:R:3 energy=-50.026405334472656 free_energy=-50.026405334472656 stress="0.0001599532552063465 8.299861775640238e-08 1.4278552562529967e-08 8.299861775640238e-08 0.00016002524353098124 -9.08938613264354e-09 1.4278552562529967e-08 -9.08938613264354e-09 0.00016002444317564368" pbc="T T T"
Re       1.64809989       1.16538263       2.85459257       0.00000294       0.00000069      -0.00000010
Re       4.94429897       3.49614814       8.56377595      -0.00000011       0.00000588      -0.00000179
Pt      -0.00000017       0.00000004       0.00000014      -0.00000348      -0.00000396       0.00000559
S        1.80608249       1.27709263       5.70918468       0.00001371       0.00000465       0.00000019
S        4.78631609       3.38443660       5.70918473      -0.00000846      -0.00000697       0.00000108
S        4.04125720       1.27709272       4.41870510      -0.00000966       0.00000948       0.00001252
S        2.55114086       3.38443678       6.99966350       0.00000870      -0.00001138      -0.00001240
S        2.55114048       3.38443657       4.41870530       0.00000453      -0.00000924       0.00000966
S        4.04125780       1.27709277       6.99966328      -0.00000834       0.00001115      -0.00001383
