9
Lattice="5.095321703622094 9.694216247718508e-08 2.9417855763995333 1.698440694571105 4.8039159498525175 2.9417855152596792 -1.666430531160668e-07 -1.9271512233851604e-07 5.8835714414333635" Properties=species:S:1:pos:R:3:forces:R:3 energy=-46.119991302490234 free_energy=-46.119991302490234 stress="-7.860345795052126e-05 -3.556324088549445e-07 2.910022089963604e-07 -3.556324088549445e-07 -7.867081876611337e-05 1.5256853558298644e-08 2.910022089963604e-07 1.5256853558298644e-08 -7.913081208243966e-05" pbc="T T T"
Re       1.69842813       1.20097732       2.94178463      -0.00013187      -0.00001492      -0.00001821
Re       5.09531440       3.60293676       8.82535322      -0.00009648      -0.00000332      -0.00003857
Rh       0.00000163       0.00000016       0.00000070       0.00006228       0.00000671       0.00000557
Se       1.90643180       1.34804740       5.88357097      -0.00137496      -0.00100434      -0.00000172
Se       4.88733412       3.45586769       5.88357400       0.00142324       0.00099379       0.00001481
Se       4.14211220       1.34805076       4.59280322       0.00074548      -0.00097984      -0.00120747
Se       2.65165758       3.45586659       7.17434158      -0.00068998       0.00099641       0.00123560
Se       2.65165734       3.45586742       4.59280254      -0.00068480       0.00100255      -0.00121188
Se       4.14211172       1.34804936       7.17433918       0.00074637      -0.00099653       0.00122106
