9
Lattice="4.901122467349012 2.913579644335278e-08 2.8296645016347246 1.6337075485224055 4.620822535992118 2.8296644463189553 1.0943808662262892e-07 9.636700902900402e-09 5.659328813717111" Properties=species:S:1:pos:R:3:forces:R:3 energy=-53.19157028198242 free_energy=-53.19157028198242 stress="-1.1844355867651757e-05 -2.4413284727131668e-09 1.4965988270887465e-07 -2.4413284727131668e-09 -1.177447302325163e-05 6.777268524160718e-09 1.4965988270887465e-07 6.777268524160718e-09 -1.1728352546924725e-05" pbc="T T T"
Re       1.63370834       1.15520596       2.82966545       0.00000619       0.00000260       0.00000846
Re       4.90112209       3.46561714       8.48899260      -0.00000233       0.00000257      -0.00000383
Ru      -0.00000050      -0.00000033      -0.00000017      -0.00000219      -0.00000692      -0.00000315
S        1.78755066       1.26398864       5.65932905      -0.00086010      -0.00061357       0.00000123
S        4.74727936       3.35683343       5.65932894       0.00086677       0.00061262      -0.00000257
S        4.00734683       1.26398905       4.37772846       0.00042903      -0.00061166      -0.00074911
S        2.52748304       3.35683310       6.94092905      -0.00043553       0.00061262       0.00075269
S        2.52748295       3.35683332       4.37772883      -0.00043660       0.00061464      -0.00075364
S        4.00734786       1.26398985       6.94092914       0.00043547      -0.00061285       0.00075042
