9
Lattice="4.5321915940250275 -1.587747178177663e-07 2.6166620022785514 1.5107304045672705 4.27299216476659 2.6166619625802494 -1.724907936428734e-06 -1.2683144008912033e-06 5.233326992185401" Properties=species:S:1:pos:R:3:forces:R:3 energy=-58.010009765625 free_energy=-58.010009765625 stress="-7.169526361394674e-05 -2.9327945867407834e-06 7.82036022428656e-06 -2.9327945867407834e-06 -7.453737634932622e-05 5.647352281812346e-06 7.82036022428656e-06 5.647352281812346e-06 -7.982214447110891e-05" pbc="T T T"
Re       1.51054409       1.06824784       2.61660609      -0.00526581       0.00003384      -0.00205398
Re       4.53210204       3.20475826       7.84974339      -0.00279254       0.00041333      -0.00681898
Ru      -0.00000505      -0.00000009      -0.00000584      -0.00017002       0.00001752      -0.00018488
O        1.53744079       1.08705813       5.23335659       0.00072777      -0.00124192       0.00109737
O        4.50553442       3.18588219       5.23341988       0.00095451      -0.00039631       0.00293778
O        3.76357034       1.08707727       3.94816302       0.00225312      -0.00107393       0.00182259
O        2.27950396       3.18587613       6.51861666       0.00214386       0.00012377       0.00174811
O        2.27939727       3.18589784       3.94813541      -0.00045124       0.00079778       0.00091287
O        3.76359287       1.08716535       6.51856904       0.00260070       0.00132555       0.00053909
