9
Lattice="4.9629233557771295 -1.0981503118979086e-07 2.865343379324821 1.654307598115304 4.679091243825659 2.865343524140296 2.791890381914808e-06 2.1515271482138117e-06 5.730681922954221" Properties=species:S:1:pos:R:3:forces:R:3 energy=-46.82249450683594 free_energy=-46.82249450683594 stress="-0.00010235588706564158 1.0268311143590836e-06 -1.7891862853502971e-06 1.0268311143590836e-06 -0.00010430490510771051 -1.2103594144718954e-06 -1.7891862853502971e-06 -1.2103594144718954e-06 -9.874915122054517e-05" pbc="T T T"
Re       1.65430229       1.16980765       2.86534476      -0.00026612       0.00022716       0.00022280
Re       4.96289374       3.50932780       8.59605540      -0.00024495       0.00024981       0.00019848
Ru       0.00003544      -0.00003020      -0.00002914       0.00101394      -0.00088910      -0.00083262
Se       1.85617854       1.31251722       5.73068427      -0.00085855      -0.00051522       0.00003591
Se       4.76105902       3.36656493       5.73067744       0.00072110       0.00053453       0.00002075
Se       4.03483419       1.31252517       4.47283623       0.00027227      -0.00039768      -0.00052655
Se       2.58239689       3.36656959       6.98854079      -0.00050491       0.00066447       0.00084913
Se       2.58240940       3.36657284       4.47282831      -0.00041360       0.00061035      -0.00068259
Se       4.03482557       1.31251841       6.98853730       0.00027996      -0.00048435       0.00071383
