9
Lattice="4.927098441732596 -2.3500443698270808e-08 2.8446617037848325 1.642366144801996 4.645312742215196 2.8446616696388016 1.445675547379567e-07 6.040449145563863e-08 5.689323157171322" Properties=species:S:1:pos:R:3:forces:R:3 energy=-51.27699279785156 free_energy=-51.27699279785156 stress="0.0006018360145390034 3.505825674210428e-08 -1.0148751528049615e-07 3.505825674210428e-08 0.0006018952117301524 -1.4202996112544497e-07 -1.0148751528049615e-07 -1.4202996112544497e-07 0.0006019763532094657" pbc="T T T"
Re       1.64236688       1.16132874       2.84466088       0.00000475       0.00000257      -0.00000398
Re       4.92709832       3.48398430       8.53398650      -0.00000196      -0.00000146       0.00000874
Rh      -0.00000010       0.00000014       0.00000029      -0.00000137      -0.00000307      -0.00000578
S        1.79567126       1.26973117       5.68932295       0.00793195       0.00561059      -0.00000278
S        4.77379319       3.37558138       5.68932247      -0.00792670      -0.00560683      -0.00000598
S        4.02926271       1.26973128       4.39975857      -0.00396812       0.00560933       0.00687099
S        2.54020181       3.37558100       6.97888804       0.00395960      -0.00560594      -0.00686276
S        2.54020241       3.37558166       4.39975849       0.00396729      -0.00560969       0.00686896
S        4.02926232       1.26973121       6.97888794      -0.00396484       0.00560421      -0.00686741
