9
Lattice="4.473862902346628 1.2465234061233987e-08 2.582986121173692 1.491287671261211 4.217998998630417 2.5829860771911624 2.2908695613785686e-06 1.566021980793675e-06 5.165968274444941" Properties=species:S:1:pos:R:3:forces:R:3 energy=-54.82193374633789 free_energy=-54.82193374633789 stress="9.94496513158083e-05 3.9357360037683975e-06 -1.1471532161522191e-05 3.9357360037683975e-06 9.200000204145908e-05 -8.158940545399673e-06 -1.1471532161522191e-05 -8.158940545399673e-06 0.00011082509445259348" pbc="T T T"
Re       1.49130334       1.05457430       2.58304575       0.00027958       0.00208735       0.00228796
Re       4.47379459       3.16347930       7.74919063      -0.00198890      -0.00043523       0.00692343
Rh       0.00000061      -0.00000060      -0.00000378       0.00002217      -0.00001599      -0.00011669
O        1.56422281       1.10604341       5.16592739       0.00053233      -0.00032955      -0.00128289
O        4.40095308       3.11192599       5.16586893       0.00014132      -0.00057727      -0.00305352
O        3.69177254       1.10612458       3.93757184       0.00013566       0.00176555      -0.00142944
O        2.27336161       3.11190719       6.39430719      -0.00068569      -0.00071859      -0.00051808
O        2.27344109       3.11191306       3.93757196       0.00157690      -0.00102180      -0.00165635
O        3.69176160       1.10603526       6.39428174      -0.00001323      -0.00075382      -0.00115448
