9
Lattice="4.200375107276369 -1.7800423803364605e-07 2.4250874895371433 1.4001249675803011 3.9601510838207035 2.4250873169460254 6.838045112950246e-08 -1.6302779167485172e-07 4.8501748606358435" Properties=species:S:1:pos:R:3:forces:R:3 energy=-64.48857879638672 free_energy=-64.48857879638672 stress="-1.7239883618458407e-06 4.4793557663069805e-07 -3.3526901255243047e-09 4.4793557663069805e-07 -7.747971721983049e-07 7.410537961050068e-08 -3.3526901255243047e-09 7.410537961050068e-08 -3.2743471933827095e-07" pbc="T T T"
Re       1.40013173       0.99003373       2.42508771       0.00021212      -0.00013841       0.00001438
Re       4.20037196       2.97011037       7.27526225      -0.00009764      -0.00009490       0.00000560
Si       0.00000014      -0.00000002       0.00000009      -0.00000212      -0.00000177      -0.00000087
O        1.39931185       0.98946365       4.85017456      -0.00002503       0.00000799      -0.00000755
O        4.20118646       2.97068969       4.85017487      -0.00002897       0.00007689      -0.00000055
O        3.50071666       0.98946410       3.63692519      -0.00005305       0.00003481      -0.00006866
O        2.09978241       2.97068865       6.06342239       0.00002235       0.00004411       0.00002861
O        2.09978247       2.97068904       3.63692703       0.00002742       0.00004566      -0.00002813
O        3.50071697       0.98946368       6.06342395      -0.00005472       0.00002539       0.00005758
