9
Lattice="4.331373099869397 6.843758793038185e-09 2.500719597023086 1.4437910463351862 4.083657893349695 2.500719585603551 2.370705734467088e-07 1.536482610852914e-07 5.001438783427839" Properties=species:S:1:pos:R:3:forces:R:3 energy=-55.091087341308594 free_energy=-55.091087341308594 stress="0.00021341069077607244 -2.898264384043614e-08 -2.562540259987145e-07 -2.898264384043614e-08 0.00021286167611833662 -1.7309555744304816e-07 -2.562540259987145e-07 -1.7309555744304816e-07 0.00021324347471818328" pbc="T T T"
Re       1.44379257       1.02091293       2.50071384       0.00003343      -0.00005364      -0.00009233
Re       4.33137537       3.06273641       7.50215827       0.00004128      -0.00012016      -0.00002302
Se      -0.00000031       0.00000061      -0.00000012      -0.00000733       0.00001801       0.00001610
O        1.43235155       1.01282747       5.00143749       0.00009501       0.00010455      -0.00000732
O        4.34281041       3.07083425       5.00144392      -0.00013411      -0.00003833       0.00006365
O        3.61519971       1.01283112       3.74117216      -0.00001955       0.00013465       0.00007880
O        2.15996340       3.07082922       6.26170632       0.00001526      -0.00010890      -0.00008452
O        2.15996881       3.07083432       3.74117500       0.00005388      -0.00002474       0.00012374
O        3.61519604       1.01282600       6.26170496      -0.00007886       0.00008839      -0.00007451
