9
Lattice="6.020983931451329 2.918170709690432e-08 3.476216624259993 2.0069946734185953 5.676637954802248 3.4762166206422376 -9.214314111435548e-10 -5.082370885694873e-09 6.952433250115951" Properties=species:S:1:pos:R:3:forces:R:3 energy=-36.83552169799805 free_energy=-36.83552169799805 stress="0.00013767067866865546 4.016193599909457e-08 5.1195621075805775e-09 4.016193599909457e-08 0.00013762962771579623 1.6662886626050977e-09 5.1195621075805775e-09 1.6662886626050977e-09 0.00013758217392023653" pbc="T T T"
Re       2.00699474       1.41915869       3.47621718       0.00000227      -0.00000737       0.00000552
Re       6.02098477       4.25747878      10.42864909       0.00000752       0.00000077      -0.00001029
Si       0.00000012       0.00000010       0.00000028      -0.00000291      -0.00000382      -0.00000192
Te       2.05978309       1.45648658       6.95243321      -0.00229888      -0.00162429      -0.00000148
Te       5.96819507       4.22015144       6.95243392       0.00230122       0.00163160       0.00000432
Te       4.99109231       1.45648626       5.26004103       0.00114602      -0.00162782      -0.00198551
Te       3.03688601       4.22015177       8.64482499      -0.00115147       0.00163072       0.00198652
Te       3.03688604       4.22015153       5.26004080      -0.00115155       0.00162378      -0.00198720
Te       4.99109229       1.45648674       8.64482552       0.00114781      -0.00162345       0.00199014
