9
Lattice="2.084314538648299 -1.1307520769534254 2.219128274532624 -1.0018204400938728 5.80370323943771 1.6661396911184985 -0.48065788205815724 0.16463690059064542 3.23652017154409" Properties=species:S:1:pos:R:3:forces:R:3 energy=-576848000.0 free_energy=-576848000.0 stress="65517744.0 1943234.75 -23589846.0 1943234.75 -7843057.0 18301536.0 -23589846.0 18301536.0 45080288.0" pbc="T T T"
Re      -0.62805889       1.31968616      -0.82937369 152735248.00000000 1728313472.00000000 611891584.00000000
Re       0.14271100       4.56945212       4.71649990 3279757312.00000000 -1703324800.00000000 2960121344.00000000
Se      -1.43717955       2.05890677       0.38712197 40125160.00000000 -91907944.00000000 200670608.00000000
S       -0.77455460       1.60803787       2.17764244 -2067987200.00000000 -158295168.00000000 -55046144.00000000
S       -1.39310554       6.09872473       4.76711047 667000960.00000000 -1246216576.00000000 662206080.00000000
S        0.06855365       2.31098165       0.77629911 133910688.00000000 21936240.00000000 -3722448.00000000
S       -2.16309284       7.42260357       3.96162699 861618432.00000000 -672001536.00000000 -1526682624.00000000
S       -1.92360198       5.66232163       2.47115920 -2936122624.00000000 1957406336.00000000 -2935027712.00000000
S        0.68991775       2.22456874       3.55892196 -131037168.00000000 164091248.00000000 85588192.00000000
