9
Lattice="4.140738656105296 7.000626144051436e-07 2.3906568418646166 1.3802466386401109 3.9039266624689843 2.3906572577077547 3.993794234677233e-08 5.375419653739642e-07 4.781313614554869" Properties=species:S:1:pos:R:3:forces:R:3 energy=-60.2530517578125 free_energy=-60.2530517578125 stress="5.067046731710434e-05 4.2187924265135734e-08 1.665296309738551e-07 4.2187924265135734e-08 5.0345275667496026e-05 2.464025499193667e-07 1.665296309738551e-07 2.464025499193667e-07 5.055806104792282e-05" pbc="T T T"
Re       1.38024111       0.97598376       2.39065554      -0.00005208       0.00001475      -0.00002291
Re       4.14073446       2.92794768       7.17196818      -0.00005732       0.00002257      -0.00003208
S        0.00000139      -0.00000088       0.00000074      -0.00000614       0.00001071       0.00000247
O        1.33440506       0.94356537       4.78131351       0.00012743       0.00008237      -0.00001393
O        4.18658120       2.96036215       4.78131705      -0.00006783      -0.00009298       0.00003148
O        3.47354038       0.94356623       3.54628409      -0.00002205       0.00009489       0.00013280
O        2.04744924       2.96036142       6.01634488       0.00005013      -0.00010788      -0.00009918
O        2.04745039       2.96036227       3.54628333       0.00007749      -0.00010824       0.00012100
O        3.47353756       0.94356417       6.01634537      -0.00004810       0.00008333      -0.00011861
