9
Lattice="4.88352228750364 -1.8595662449658142e-07 2.8195021123459387 1.6278406374813785 4.604227869089478 2.8195020252205714 1.1233346873092262e-07 -2.7274565046353436e-08 5.639004030124547" Properties=species:S:1:pos:R:3:forces:R:3 energy=-45.17716979980469 free_energy=-45.17716979980469 stress="-9.535901335766539e-05 6.436562216549646e-08 -1.6202197627990245e-07 6.436562216549646e-08 -9.521591709926724e-05 -1.3683862931657131e-08 -1.6202197627990245e-07 -1.3683862931657131e-08 -9.510091331321746e-05" pbc="T T T"
Re       1.62783945       1.15105289       2.81949958      -0.00001603       0.00000050      -0.00000093
Re       4.88351297       3.45317108       8.45850170       0.00000207      -0.00000880       0.00000208
Si       0.00000083       0.00000079      -0.00000321       0.00001883       0.00000330       0.00001568
Se       1.79100118       1.26642813       5.63900560      -0.00111592      -0.00078231      -0.00000318
Se       4.72036512       3.33780013       5.63900578       0.00112212       0.00078881      -0.00000241
Se       3.98802427       1.26642771       4.37055368       0.00055680      -0.00078672      -0.00096419
Se       2.52334301       3.33780030       6.90745791      -0.00056556       0.00079060       0.00096089
Se       2.52334230       3.33780168       4.37055457      -0.00056422       0.00078654      -0.00096822
Se       3.98802325       1.26642799       6.90745709       0.00056195      -0.00079209       0.00096026
