9
Lattice="5.522641368361953 0.4428048464055529 2.5814695203982905 2.3121861707696896 5.649368269718003 2.513549385635599 -0.6234927324515347 -0.5294019929559868 6.208007593875629" Properties=species:S:1:pos:R:3:forces:R:3 energy=-56.72891616821289 free_energy=-56.72891616821289 stress="7.724227907601744e-05 3.890095103997737e-05 4.7494973841821775e-05 3.890095103997737e-05 -0.00012570866965688765 1.3773411410511471e-05 4.7494973841821775e-05 1.3773411410511471e-05 -4.2209554521832615e-05" pbc="T T T"
Re       0.85512574       0.11472475       3.35788015       0.00302830       0.00335739      -0.00125878
Re       4.15215556       3.61907143       9.04451705       0.00361153      -0.00464274       0.00099258
Ti       0.25484512       0.38557192      -0.03496693       0.00069616       0.00187496       0.00030768
Se       2.18100607       0.18301201       5.50596928       0.00054114      -0.00038864      -0.00285883
Se       5.50497264       5.61955023       4.91807299      -0.00187808       0.00242165       0.00063096
Se       6.18077233       2.52285661       4.29369819      -0.00349640       0.00251840       0.00122842
Se       2.29554814       3.67995046       6.99435565      -0.00233357      -0.00486332      -0.00180820
Se       2.66554960       4.01052567       4.02841875      -0.00158767       0.00051703       0.00089495
Se       4.75538014       2.11581225       7.10412946       0.00141890      -0.00079468       0.00187102
