9
Lattice="4.262416901634846 1.210595841510162e-08 2.4609071826080866 1.4208056422548785 4.018645188291613 2.4609071878683326 -1.816975874738925e-08 -6.40549227771194e-09 4.921814396687112" Properties=species:S:1:pos:R:3:forces:R:3 energy=-64.5085678100586 free_energy=-64.5085678100586 stress="-3.245513289584778e-05 -1.2816909134016896e-07 -3.855198471569565e-08 -1.2816909134016896e-07 -3.33541065629106e-05 1.0719443821471941e-07 -3.855198471569565e-08 1.0719443821471941e-07 -3.311779073555954e-05" pbc="T T T"
Re       1.42080064       1.00466225       2.46090761      -0.00016227       0.00002987       0.00001656
Re       4.26241461       3.01398270       7.38272197      -0.00009744      -0.00003990       0.00001793
Ti      -0.00000012       0.00000023      -0.00000004      -0.00001079      -0.00000476      -0.00001282
O        1.50272953       1.06258848       4.92181327      -0.00106490      -0.00080198      -0.00002132
O        4.18049440       2.95605612       4.92181417       0.00112563       0.00077176      -0.00000228
O        3.51105655       1.06259000       3.76230942       0.00064060      -0.00075406      -0.00091666
O        2.17216962       2.95605580       6.08132046      -0.00053746       0.00078988       0.00094169
O        2.17217073       2.95605466       3.76230630      -0.00050798       0.00074965      -0.00097579
O        3.51105425       1.06259093       6.08132141       0.00061539      -0.00073910       0.00095063
