9
Lattice="4.89978024122877 -2.2122036279214646e-08 2.828889424763841 1.6332600825083046 4.6195569742792415 2.828889385003631 9.268665816616741e-09 -4.214218159681501e-08 5.657778833473862" Properties=species:S:1:pos:R:3:forces:R:3 energy=-54.340721130371094 free_energy=-54.340721130371094 stress="0.00041311068343929946 6.495346838164551e-08 -2.851612812548865e-08 6.495346838164551e-08 0.00041308460640721023 -3.690491112706695e-08 -2.851612812548865e-08 -3.690491112706695e-08 0.00041300125303678215" pbc="T T T"
Re       1.63325977       1.15488858       2.82888916      -0.00000101      -0.00000296      -0.00000057
Re       4.89977964       3.46466757       8.48666850      -0.00000345      -0.00000087       0.00000179
Ti       0.00000027       0.00000029      -0.00000017      -0.00000562      -0.00000468       0.00000408
S        1.76657235       1.24915516       5.65777902       0.00259238       0.00183499       0.00000080
S        4.76646809       3.37040194       5.65777881      -0.00258100      -0.00182486       0.00000113
S        4.01649427       1.24915516       4.35878578      -0.00129595       0.00183147       0.00224257
S        2.51654623       3.37040202       6.95677208       0.00129828      -0.00183558      -0.00224775
S        2.51654640       3.37040180       4.35878552       0.00129408      -0.00183344       0.00224382
S        4.01649433       1.24915510       6.95677189      -0.00129801       0.00183570      -0.00224614
