9
Lattice="6.078826776860697 -5.5805422396939516e-08 3.509612228187075 2.0262755627992783 5.731172605299646 3.509612188131242 5.5651231068050406e-08 -9.70679933340869e-09 7.019224359983416" Properties=species:S:1:pos:R:3:forces:R:3 energy=-40.99431610107422 free_energy=-40.99431610107422 stress="0.0001323142641922459 2.991923864215096e-08 1.0214787238282952e-08 2.991923864215096e-08 0.00013232161290943623 -3.6129115699168324e-08 1.0214787238282952e-08 -3.6129115699168324e-08 0.0001323065662290901" pbc="T T T"
Re       2.02627520       1.43279321       3.50961281      -0.00000241       0.00000040       0.00000250
Re       6.07882736       4.29837888      10.52883564       0.00000507      -0.00000502      -0.00001013
Ti       0.00000020       0.00000021       0.00000000      -0.00000148      -0.00000362       0.00000007
Te       2.13424201       1.50913723       7.01922442      -0.00307652      -0.00217365      -0.00000072
Te       5.97086018       4.22203543       7.01922504       0.00307874       0.00217739       0.00000626
Te       5.01170575       1.50913699       5.35791989       0.00153571      -0.00217140      -0.00266085
Te       3.09339646       4.22203554       8.68052868      -0.00153738       0.00217418       0.00266169
Te       3.09339649       4.22203541       5.35792011      -0.00154184       0.00217463      -0.00266197
Te       5.01170596       1.50913727       8.68052853       0.00154024      -0.00217288       0.00266313
