9
Lattice="5.163786217545026 -3.185404403305656e-08 2.9813131173758243 1.7212620534187992 4.868464174738974 2.9813130984340135 -1.2367020683829138e-07 -1.106469693006103e-07 5.9626264489547625" Properties=species:S:1:pos:R:3:forces:R:3 energy=-47.451866149902344 free_energy=-47.451866149902344 stress="-0.0002820226363837719 2.5585434215713576e-08 3.721427432878954e-08 2.5585434215713576e-08 -0.00028199536609463394 5.2528864813439213e-08 3.721427432878954e-08 5.2528864813439213e-08 -0.0002821503730956465" pbc="T T T"
Re       1.72126272       1.21711372       2.98131555       0.00000932      -0.00002750       0.00002680
Re       5.16379114       3.65134917       8.94393318       0.00006570       0.00001339      -0.00007703
V        0.00000004      -0.00000049      -0.00000078      -0.00000155       0.00000208       0.00000185
Se       1.88140010       1.33035258       5.96262682      -0.00104988      -0.00072283      -0.00000038
Se       5.00364711       3.53811217       5.96262948       0.00102693       0.00072896       0.00003524
Se       4.22308327       1.33034959       4.61065502       0.00049213      -0.00075608      -0.00088757
Se       2.66196295       3.53811500       7.31459696      -0.00050911       0.00075424       0.00087845
Se       2.66195947       3.53811298       4.61065575      -0.00055188       0.00073308      -0.00087106
Se       4.22308577       1.33035141       7.31459865       0.00051919      -0.00072557       0.00089341
