9
Lattice="4.293297911908016 -6.956128079036805e-08 2.4787365438594033 1.431099217017211 4.0477608667676 2.4787365808718427 -7.522991713560237e-07 -4.866250924773988e-07 4.957474390739181" Properties=species:S:1:pos:R:3:forces:R:3 energy=-61.38130187988281 free_energy=-61.38130187988281 stress="-3.751140320673585e-05 -9.592775995770353e-07 3.872779871016974e-06 -9.592775995770353e-07 -4.002263813163154e-05 2.814213075907901e-06 3.872779871016974e-06 2.814213075907901e-06 -3.992277925135568e-05" pbc="T T T"
Re       1.43110400       1.01192448       2.47872844       0.00021539      -0.00057692      -0.00044385
Re       4.29332180       3.03579504       7.43614079       0.00084075      -0.00088461      -0.00236546
V        0.00000176      -0.00000229      -0.00000453       0.00006784      -0.00009432      -0.00017852
O        1.46944568       1.03907458       4.95748208       0.00042295       0.00096652       0.00031451
O        4.25493569       3.00870661       4.95750211      -0.00093174      -0.00024596       0.00100998
O        3.55856487       1.03905532       3.75133236      -0.00052211       0.00035232       0.00095463
O        2.16583015       3.00870334       6.16363049       0.00048715      -0.00036037      -0.00043139
O        2.16580726       3.00870324       3.75133911      -0.00027925      -0.00030580       0.00124434
O        3.55857421       1.03908066       6.16363929      -0.00030082       0.00114918      -0.00010434
