9
Lattice="5.940790041499116 -5.501988370027875e-08 3.429916777609911 1.9802633130158829 5.601030804092134 3.429916746913214 7.189438524201574e-08 1.324139716608686e-08 6.8598334306950495" Properties=species:S:1:pos:R:3:forces:R:3 energy=-41.936302185058594 free_energy=-41.936302185058594 stress="-3.2282467145705596e-05 2.3991884035012845e-09 -1.789396009144184e-08 2.3991884035012845e-09 -3.230425500078127e-05 -2.5923345248202168e-08 -1.789396009144184e-08 -2.5923345248202168e-08 -3.22347113979049e-05" pbc="T T T"
Re       1.98026438       1.40025837       3.42991720       0.00000923       0.00000761       0.00000403
Re       5.94078999       4.20077324      10.28975328       0.00000005       0.00000142       0.00002789
V        0.00000015      -0.00000005       0.00000020      -0.00000403      -0.00000305      -0.00000091
Te       2.07686359       1.46856404       6.85983338      -0.00039084      -0.00027959      -0.00000241
Te       5.84418939       4.13246655       6.85983256       0.00039802       0.00028414      -0.00001028
Te       4.90235814       1.46856510       5.22853295       0.00019530      -0.00027738      -0.00034861
Te       3.01869435       4.13246575       8.49113278      -0.00020802       0.00027818       0.00034113
Te       3.01869574       4.13246585       5.22853259      -0.00019656       0.00027578      -0.00035138
Te       4.90235794       1.46856422       8.49113287       0.00019678      -0.00028714       0.00034074
