9
Lattice="5.318694192078534 -3.7147462650674645e-09 3.070749467359456 1.7728980497102105 5.0145130101568425 3.0707494860892415 -4.8454931050345435e-08 -1.1323586657863372e-08 6.141499018645314" Properties=species:S:1:pos:R:3:forces:R:3 energy=-38.47589874267578 free_energy=-38.47589874267578 stress="9.503257024334744e-05 -4.17887813242146e-09 1.9553217711631987e-08 -4.17887813242146e-09 9.518584556644782e-05 1.2009067518192751e-08 1.9553217711631987e-08 1.2009067518192751e-08 9.512021642876789e-05" pbc="T T T"
Rh       1.77289658       1.25363160       3.07074664      -0.00002192       0.00004357      -0.00003468
Rh       5.31869589       3.76088155       9.21224689       0.00002356      -0.00003996      -0.00002050
Co      -0.00000003       0.00000001       0.00000004       0.00000009      -0.00000023       0.00000433
Se       1.93089143       1.36534900       6.14150145       0.00227112       0.00163586       0.00002076
Se       5.16070100       3.64916364       6.14150098      -0.00226933      -0.00163810       0.00001410
Se       4.35324859       1.36534830       4.74295128      -0.00113013       0.00162694       0.00197884
Se       2.73834317       3.64916403       7.54004638       0.00112632      -0.00163130      -0.00197080
Se       2.73834368       3.64916550       4.74295177       0.00113194      -0.00162265       0.00198108
Se       4.35324849       1.36534829       7.54004639      -0.00113162       0.00162593      -0.00197315
