9
Lattice="4.982507705193939 2.909800878809824e-07 2.8766526089507485 1.6608361732966928 4.6975540445716835 2.876652613754205 -1.0353981974206823e-08 -1.438368489986256e-09 5.753305235835096" Properties=species:S:1:pos:R:3:forces:R:3 energy=-43.54347610473633 free_energy=-43.54347610473633 stress="-0.0005404719267971814 -1.2998724763235714e-08 -4.960691768474135e-08 -1.2998724763235714e-08 -0.0005408115102909505 6.3173888342760165e-09 -4.960691768474135e-08 6.3173888342760165e-09 -0.0005408957367762923" pbc="T T T"
Rh       1.66083341       1.17438883       2.87665272      -0.00005021       0.00000341       0.00000006
Rh       4.98250765       3.52316471       8.62995344      -0.00000521      -0.00001626      -0.00008041
Cr       0.00000043       0.00000017       0.00000013      -0.00000393       0.00000174       0.00001044
S        1.76530987       1.24826302       5.75330473       0.00257128       0.00182509      -0.00000341
S        4.87803448       3.44929097       5.75330703      -0.00255305      -0.00182050       0.00003558
S        4.09985376       1.24826270       4.40545682      -0.00127026       0.00180775       0.00223956
S        2.54349175       3.44929234       7.10115545       0.00130647      -0.00181562      -0.00222307
S        2.54348994       3.44929143       4.40545634       0.00126961      -0.00182134       0.00224259
S        4.09985419       1.24826314       7.10115521      -0.00126472       0.00183582      -0.00222152
