9
Lattice="4.826678690910672 -5.5222415887104474e-08 2.786684045588544 1.6088928850478776 4.550635928506671 2.7866839760608433 4.8700426543315066e-08 -5.0717314003233275e-08 5.5733680068254765" Properties=species:S:1:pos:R:3:forces:R:3 energy=-39.650794982910156 free_energy=-39.650794982910156 stress="-0.00036805481067858636 5.9692939480271434e-09 -1.8055279937811974e-08 5.9692939480271434e-09 -0.0003679989604279399 6.873216662484083e-09 -1.8055279937811974e-08 6.873216662484083e-09 -0.0003679959918372333" pbc="T T T"
Rh       1.60889354       1.13765389       2.78668443       0.00001174      -0.00009225       0.00001152
Rh       4.82667793       3.41297868       8.36004512      -0.00001747       0.00003563      -0.00012010
C        0.00000031      -0.00000168      -0.00000334       0.00000834      -0.00004126      -0.00008071
S        1.61420039       1.14141002       5.57336758       0.00270221       0.00187704      -0.00000909
S        4.82137121       3.40922736       5.57337262      -0.00270307      -0.00184928       0.00007874
S        4.01957656       1.14140899       4.18462347      -0.00138689       0.00187300       0.00236775
S        2.41599472       3.40922884       6.96211552       0.00137633      -0.00182679      -0.00230217
S        2.41599218       3.40922611       4.18462284       0.00133751      -0.00187559       0.00235829
S        4.01957970       1.14141100       6.96211589      -0.00132850       0.00189944      -0.00230430
