9
Lattice="4.353883954523452 7.621262705720494e-09 2.5137159697835245 1.4512946655269299 4.1048811337807845 2.5137159579471593 4.352322007257216e-08 1.6279054814689888e-08 5.027431864182608" Properties=species:S:1:pos:R:3:forces:R:3 energy=-45.527122497558594 free_energy=-45.527122497558594 stress="-2.2680818801745772e-05 -1.3284245881095558e-07 -1.9339053380917903e-07 -1.3284245881095558e-07 -2.2719654225511476e-05 -1.0963887575599074e-07 -1.9339053380917903e-07 -1.0963887575599074e-07 -2.23763727262849e-05" pbc="T T T"
Rh       1.45129430       1.02621652       2.51371582      -0.00001395      -0.00006696       0.00000043
Rh       4.35387890       3.07865580       7.54115271      -0.00008967      -0.00009296       0.00008706
Co       0.00000007       0.00000042      -0.00000009       0.00000779      -0.00001245      -0.00000824
O        1.46333517       1.03473473       5.02743168       0.00012356       0.00009966      -0.00000250
O        4.34184303       3.07014844       5.02742941      -0.00012457      -0.00005654      -0.00003791
O        3.62221741       1.03473681       3.78099985      -0.00003853       0.00013393       0.00007623
O        2.18296312       3.07014756       6.27386244       0.00007486      -0.00006434      -0.00009954
O        2.18296534       3.07014852       3.78100051       0.00010774      -0.00005290       0.00008237
O        3.62221731       1.03473578       6.27386286      -0.00004712       0.00011227      -0.00009829
