9
Lattice="5.300388756953369 3.892863762463473e-09 3.0601808400939814 1.7667962546724658 4.997254445199368 3.0601808423726187 -4.317119350561141e-08 -2.773592538360619e-08 6.120361754962733" Properties=species:S:1:pos:R:3:forces:R:3 energy=-40.830196380615234 free_energy=-40.830196380615234 stress="5.733261787099764e-05 -2.8605255053548717e-08 3.615557631064803e-08 -2.8605255053548717e-08 5.725312075810507e-05 5.139387226904546e-08 3.615557631064803e-08 5.139387226904546e-08 5.725319715566002e-05" pbc="T T T"
Rh       1.76679692       1.24931250       3.06018018       0.00001117      -0.00001664      -0.00001038
Rh       5.30038592       3.74793989       9.18054590      -0.00003549      -0.00000765       0.00004116
Cr       0.00000013       0.00000008       0.00000006       0.00000221       0.00000276      -0.00000430
Se       1.93929562       1.37128815       6.12036177      -0.00215682      -0.00153500       0.00000421
Se       5.12788965       3.62596643       6.12036036       0.00215924       0.00153738      -0.00001796
Se       4.33074162       1.37129006       4.73965869       0.00108464      -0.00151548      -0.00188485
Se       2.73644396       3.62596546       7.50106389      -0.00107828       0.00152779       0.00187656
Se       2.73644540       3.62596645       4.73965912      -0.00106040       0.00153756      -0.00188041
Se       4.33074066       1.37128862       7.50106379       0.00107379      -0.00153115       0.00187576
