9
Lattice="4.980873834541517 -1.8772695701358898e-07 2.8757087669644337 1.6602911568265741 4.69601255989368 2.875708670598729 3.8381124408899244e-08 -9.088381767059925e-08 5.751417467450815" Properties=species:S:1:pos:R:3:forces:R:3 energy=-40.85503005981445 free_energy=-40.85503005981445 stress="0.00016092199075501412 -3.760506572803024e-08 3.959927052932244e-09 -3.760506572803024e-08 0.00016125463298521936 -2.5233801714819037e-09 3.959927052932244e-09 -2.5233801714819037e-09 0.00016116314509417862" pbc="T T T"
Rh       1.66029378       1.17400533       2.87570531       0.00004999       0.00003948      -0.00006865
Rh       4.98086915       3.52200982       8.62712502      -0.00008397       0.00001428      -0.00002231
Co       0.00000015      -0.00000007       0.00000018       0.00000589      -0.00000523       0.00000497
S        1.73714033       1.22834250       5.75141948      -0.00005952      -0.00007054       0.00003263
S        4.90402593       3.46766872       5.75141682       0.00007126       0.00004475      -0.00000149
S        4.11230236       1.22834273       4.38011561       0.00002065      -0.00005008      -0.00007094
S        2.52886265       3.46766724       7.12272133      -0.00000979       0.00002417       0.00010894
S        2.52886323       3.46766916       4.38011534      -0.00000432       0.00004828      -0.00007933
S        4.11230250       1.22834362       7.12272060       0.00000985      -0.00004497       0.00009604
