9
Lattice="5.2542442619437715 2.7382617385748406e-07 3.0335406214775515 1.7514151579287616 4.95375016694123 3.0335403689761007 9.806914941957356e-07 3.8420382218951034e-07 6.067079544347275" Properties=species:S:1:pos:R:3:forces:R:3 energy=-39.91498947143555 free_energy=-39.91498947143555 stress="-0.00011608699423959479 -2.2720325176806e-08 -2.6443714773449756e-07 -2.2720325176806e-08 -0.00011614135291893035 -1.2830537343688775e-07 -2.6443714773449756e-07 -1.2830537343688775e-07 -0.0001157523802248761" pbc="T T T"
Rh       1.75139429       1.23843367       3.03356897      -0.00025833      -0.00005488       0.00035311
Rh       5.25425544       3.71531822       9.10061428       0.00012570       0.00006712      -0.00007688
Fe       0.00000033       0.00000144      -0.00000122       0.00001192      -0.00000780      -0.00002307
Se       1.89699603       1.34137926       6.06707500      -0.00247467      -0.00173965      -0.00011287
Se       5.10866604       3.61236954       6.06709178       0.00250685       0.00172195       0.00007700
Se       4.30574841       1.34137984       4.67638782       0.00125536      -0.00178584      -0.00213382
Se       2.69991602       3.61238484       7.45776016      -0.00122434       0.00187719       0.00204310
Se       2.69990678       3.61236379       4.67638526      -0.00131468       0.00171053      -0.00215465
Se       4.30575796       1.34137303       7.45776073       0.00137216      -0.00178879       0.00202790
