9
Lattice="4.9534894372019 -4.1045207809455793e-07 2.8598985388798246 1.651162753358926 4.6701945141632235 2.85989854822793 -4.555621742611904e-09 8.22774740030412e-09 5.719797085650234" Properties=species:S:1:pos:R:3:forces:R:3 energy=-42.24980545043945 free_energy=-42.24980545043945 stress="9.347189916297793e-05 8.081371127843795e-09 -1.535786253725746e-08 8.081371127843795e-09 9.342236444354057e-05 1.1726201343265075e-08 -1.535786253725746e-08 1.1726201343265075e-08 9.341927943751216e-05" pbc="T T T"
Rh       1.65116573       1.16754922       2.85989763       0.00005141       0.00001194      -0.00001855
Rh       4.95349165       3.50264611       8.57969392       0.00005256       0.00000826      -0.00002972
Fe      -0.00000038      -0.00000012       0.00000032      -0.00000782      -0.00000294       0.00000247
S        1.73814124       1.22905179       5.71979731      -0.00525889      -0.00371146       0.00000356
S        4.86650991       3.44114206       5.71979727       0.00524577       0.00371403       0.00000968
S        4.08441735       1.22905108       4.36517355       0.00260423      -0.00372431      -0.00454450
S        2.52023301       3.44114180       7.07442046      -0.00264412       0.00370726       0.00455749
S        2.52023270       3.44114280       4.36517463      -0.00265104       0.00371245      -0.00453994
S        4.08441753       1.22905188       7.07442145       0.00260787      -0.00371522       0.00455943
