9
Lattice="4.428019653250588 4.4170185375430745e-08 2.5565183877366207 1.4760065832927955 4.174777059915537 2.556518404078178 1.0195548138768961e-07 9.210763776885513e-08 5.113036598881171" Properties=species:S:1:pos:R:3:forces:R:3 energy=-45.164894104003906 free_energy=-45.164894104003906 stress="0.00031092841527424753 6.194006374471428e-08 -2.1897233182244236e-07 6.194006374471428e-08 0.00031090411357581615 -9.815978785354673e-08 -2.1897233182244236e-07 -9.815978785354673e-08 0.0003111822879873216" pbc="T T T"
Rh       1.47600894       1.04369647       2.55651848       0.00003896       0.00003957       0.00000726
Rh       4.42801908       3.13108267       7.66956322      -0.00001090      -0.00000315       0.00014503
Fe      -0.00000001      -0.00000003      -0.00000013      -0.00000017      -0.00000133      -0.00000278
O        1.48854171       1.05255848       5.11303660      -0.00299865      -0.00211737      -0.00000748
O        4.41548487       3.12221799       5.11303378       0.00299931       0.00210547      -0.00005728
O        3.68374805       1.05255934       3.84563187       0.00149098      -0.00209856      -0.00262454
O        2.22027632       3.12221823       6.38043864      -0.00152111       0.00210738       0.00258252
O        2.22027936       3.12221864       3.84563186      -0.00147200       0.00210893      -0.00262508
O        3.68374700       1.05255718       6.38043926       0.00147384      -0.00214094       0.00258189
