9
Lattice="5.409772351684824 -7.490218130642439e-08 3.1233327954510592 1.8032573175353372 5.100384624281826 3.1233329035446635 -5.04765624438701e-07 -2.2453620719929555e-07 6.246666465181883" Properties=species:S:1:pos:R:3:forces:R:3 energy=-35.28520965576172 free_energy=-35.28520965576172 stress="-1.0591908903734293e-05 -1.69608629363438e-08 1.4004392312472191e-07 -1.69608629363438e-08 -1.1041031939384993e-05 9.18692961704437e-08 1.4004392312472191e-07 9.18692961704437e-08 -1.0801014468597714e-05" pbc="T T T"
Rh       1.80326174       1.27510215       3.12332770       0.00007128       0.00007422      -0.00006529
Rh       5.40974300       3.82527739       9.36998497      -0.00033438      -0.00012548      -0.00015367
Ge      -0.00000104       0.00000025      -0.00000131      -0.00001045      -0.00000366      -0.00000549
S        1.89323050       1.33871136       6.24666311       0.00033784       0.00018123      -0.00002813
S        5.31980197       3.76167093       6.24666793      -0.00030416      -0.00020891       0.00003752
S        4.46316205       1.33871822       4.76291530      -0.00013375       0.00026494       0.00024411
S        2.74988611       3.76166236       7.73043126       0.00032556      -0.00029001      -0.00010541
S        2.74987812       3.76166861       4.76291110       0.00023520      -0.00024316       0.00020716
S        4.46315400       1.33872622       7.73042868      -0.00018743       0.00035095      -0.00013053
