9
Lattice="3.8384719482324656 -9.46906795615459e-09 2.2161430112358143 1.279490573826207 3.618945594835593 2.216143126689375 1.688524412383929e-07 2.607977455978314e-07 4.43228573001057" Properties=species:S:1:pos:R:3:forces:R:3 energy=-48.63521194458008 free_energy=-48.63521194458008 stress="0.00011352560250088573 -1.8299967905477388e-06 1.450240006306558e-06 -1.8299967905477388e-06 0.00011179110151715577 8.248424023804546e-07 1.450240006306558e-06 8.248424023804546e-07 0.00011042624828405678" pbc="T T T"
Rh       1.27949060       0.90473698       2.21614303       0.00009731       0.00000945       0.00004289
Rh       3.83847227       2.71420917       6.64842778      -0.00006664       0.00000153       0.00020020
Ge       0.00000013      -0.00000004       0.00000190       0.00000310      -0.00000390      -0.00029006
O        1.40318051       0.99219813       4.43228715       0.00179577       0.00119591      -0.00023906
O        3.71478247       2.62674769       4.43228785      -0.00175905      -0.00113630      -0.00045769
O        3.13688335       0.99219604       3.43133296      -0.00120044       0.00173569       0.00155830
O        1.98108170       2.62674691       5.43323772       0.00057077      -0.00091934      -0.00118542
O        1.98107894       2.62674899       3.43133278       0.00130177      -0.00166798       0.00157213
O        3.13688223       0.99220017       5.43323797      -0.00073886       0.00078869      -0.00119829
