9
Lattice="5.249860753774993 1.894561472176265e-07 3.031008081587151 1.7499537193931838 4.9496138994657235 3.03100815748465 1.7335586089801176e-07 2.1553618130563662e-07 6.062015862913257" Properties=species:S:1:pos:R:3:forces:R:3 energy=-42.28541564941406 free_energy=-42.28541564941406 stress="7.103985262801871e-05 4.155601018851485e-08 -2.6203750280728855e-08 4.155601018851485e-08 7.14487032382749e-05 -3.61672114479461e-08 -2.6203750280728855e-08 -3.61672114479461e-08 7.122760871425271e-05" pbc="T T T"
Rh       1.74997221       1.23740041       3.03101030       0.00024606      -0.00004608       0.00002964
Rh       5.24985176       3.71221711       9.09302504      -0.00012358       0.00008628       0.00001592
Mn      -0.00000031      -0.00000007       0.00000076      -0.00000194      -0.00000364      -0.00000473
S        1.81944817       1.28653799       6.06201555      -0.00580126      -0.00417542      -0.00001024
S        5.18036692       3.66307316       6.06201682       0.00579262       0.00415146       0.00000356
S        4.34012835       1.28654179       4.60668865       0.00280592      -0.00412399      -0.00509822
S        2.65968135       3.66307456       7.51733834      -0.00286669       0.00413346       0.00506717
S        2.65968179       3.66307272       4.60669163      -0.00286227       0.00411767      -0.00508350
S        4.34012819       1.28653978       7.51734104       0.00281128      -0.00413984       0.00508022
