9
Lattice="4.3919572412982655 -1.0309420195879902e-07 2.5356977916457284 1.4639857119111714 4.140776905033821 2.5356976842414705 9.453418166409616e-08 -6.469708800529596e-08 5.071395419553479" Properties=species:S:1:pos:R:3:forces:R:3 energy=-49.25879669189453 free_energy=-49.25879669189453 stress="-0.00010682125139283016 -3.3812867172855476e-08 -1.1261512611326907e-07 -3.3812867172855476e-08 -0.00010693554213503376 4.3502549118557e-08 -1.1261512611326907e-07 4.3502549118557e-08 -0.00010688350448617712" pbc="T T T"
Rh       1.46398471       1.03519609       2.53569544      -0.00001754       0.00002547      -0.00003364
Rh       4.39195920       3.10557993       7.60709727       0.00003125      -0.00003896       0.00005408
Mn      -0.00000012      -0.00000011      -0.00000009      -0.00000113       0.00000043      -0.00000627
O        1.46839892       1.03831787       5.07139670       0.00003549       0.00005789       0.00000658
O        4.38754407       3.10245882       5.07139471      -0.00003736      -0.00005569      -0.00001663
O        3.65775742       1.03831620       3.80736948      -0.00002363       0.00004710       0.00003807
O        2.19818462       3.10246035       6.33541982       0.00000557      -0.00003032      -0.00004064
O        2.19818722       3.10246205       3.80737006       0.00003921      -0.00003046       0.00003855
O        3.65775599       1.03831560       6.33542058      -0.00003144       0.00002457      -0.00004019
