9
Lattice="4.343775523041357 -5.8861962215873536e-08 2.5078799003273726 1.4479251469671695 4.09535069900299 2.5078798516296597 -6.124102103083522e-08 -1.0294620602679564e-07 5.015759906727298" Properties=species:S:1:pos:R:3:forces:R:3 energy=-42.105735778808594 free_energy=-42.105735778808594 stress="-2.675494897630415e-06 -3.1473494033207317e-08 1.7237758243027201e-07 -3.1473494033207317e-08 -2.6431091555423336e-06 1.0829123908706606e-07 1.7237758243027201e-07 1.0829123908706606e-07 -2.704026883293409e-06" pbc="T T T"
Rh       1.44792321       1.02384015       2.50788003      -0.00003017       0.00004364      -0.00000174
Rh       4.34377616       3.07151572       7.52363332       0.00001055       0.00005168      -0.00010507
Ni      -0.00000012      -0.00000008       0.00000018       0.00000470      -0.00001157       0.00000676
O        1.45345803       1.02774885       5.01576010      -0.00027073      -0.00021101       0.00000462
O        4.33824361       3.06759998       5.01576253       0.00028905       0.00017887       0.00004312
O        3.61704618       1.02774756       3.76661258       0.00013449      -0.00022790      -0.00021222
O        2.17465433       3.06759992       6.26490939      -0.00013065       0.00018507       0.00025845
O        2.17465289       3.06760020       3.76661189      -0.00016265       0.00018621      -0.00023159
O        3.61704813       1.02774975       6.26490834       0.00015477      -0.00019512       0.00023736
