9
Lattice="5.213134517233847 -4.269463728090583e-07 3.009804668750464 1.7377112545151638 4.914990991187595 3.0098044066920755 -2.7660008916504065e-08 -3.4051322270381303e-07 6.019609385409472" Properties=species:S:1:pos:R:3:forces:R:3 energy=-38.55261993408203 free_energy=-38.55261993408203 stress="-0.00033126038033515215 -2.9705245196964825e-07 -1.519546941608496e-07 -2.9705245196964825e-07 -0.0003315407084301114 -6.194731838604639e-08 -1.519546941608496e-07 -6.194731838604639e-08 -0.0003313561901450157" pbc="T T T"
Rh       1.73771784       1.22874776       3.00980004       0.00008600       0.00000124      -0.00006183
Rh       5.21315371       3.68623945       9.02941863       0.00026468      -0.00004135       0.00006820
Ni      -0.00000108      -0.00000005       0.00000072      -0.00001420       0.00000901      -0.00003407
S        1.75642199       1.24198229       6.01960887      -0.00149998      -0.00098242       0.00001344
S        5.19441823       3.67301034       6.01960517       0.00141105       0.00102153      -0.00003754
S        4.33492142       1.24198164       4.53091457       0.00071117      -0.00100967      -0.00125125
S        2.61591664       3.67300731       7.50830264      -0.00083596       0.00101437       0.00124094
S        2.61591703       3.67301209       4.53091854      -0.00080630       0.00103806      -0.00120565
S        4.33491721       1.24197998       7.50830450       0.00068371      -0.00105073       0.00126764
