9
Lattice="5.344671839182615 1.1769105736618773e-06 3.0857503982694765 1.7815583233270227 5.039006555583733 3.0857505125888274 6.18279013646057e-07 5.77201447305777e-07 6.171499725647727" Properties=species:S:1:pos:R:3:forces:R:3 energy=-37.473182678222656 free_energy=-37.473182678222656 stress="-1.8621671188157052e-05 -6.981459250710031e-07 -1.0161788850382436e-06 -6.981459250710031e-07 -1.8664804883883335e-05 -7.361425673479971e-07 -1.0161788850382436e-06 -7.361425673479971e-07 -1.956295636773575e-05" pbc="T T T"
Rh       1.78154056       1.25975843       3.08574431      -0.00017473       0.00005109      -0.00006316
Rh       5.34468297       3.77926988       9.25729493       0.00010320       0.00013803       0.00040869
P       -0.00000169       0.00000334       0.00000281       0.00001892      -0.00003985      -0.00004651
Se       2.02847499       1.43433955       6.17150185      -0.00035518      -0.00028923       0.00001555
Se       5.09775998       3.60466005       6.17148255       0.00039297       0.00023624      -0.00014203
Se       4.33044588       1.43435423       4.84245928       0.00026265      -0.00025332      -0.00035274
Se       2.79578576       3.60465303       7.50053318      -0.00027747       0.00023918       0.00028905
Se       2.79579479       3.60465976       4.84246245      -0.00017689       0.00028642      -0.00035447
Se       4.33043970       1.43433516       7.50052322       0.00020644      -0.00036851       0.00024569
