9
Lattice="4.259475586269841 -1.1207445223968932e-06 2.4592048065432572 1.4198228163530906 4.015866087028001 2.4592070970411215 -7.207280196645834e-07 2.2956402778057773e-06 4.9184108614300355" Properties=species:S:1:pos:R:3:forces:R:3 energy=-53.16181182861328 free_energy=-53.16181182861328 stress="2.9779665055684745e-05 -2.7628261705103796e-06 1.9454623725323472e-06 -2.7628261705103796e-06 3.176827885909006e-05 -2.191303565268754e-06 1.9454623725323472e-06 -2.191303565268754e-06 3.0359398806467652e-05" pbc="T T T"
Rh       1.41988744       1.00389327       2.45919425       0.00105417      -0.00080419      -0.00028062
Rh       4.25959207       3.01188123       7.37757071       0.00145661      -0.00045656      -0.00053675
P        0.00000433      -0.00000352      -0.00000178      -0.00014998       0.00019423       0.00010175
O        1.35100041       0.95532918       4.91842963       0.00064647       0.00100935       0.00012742
O        4.32825881       3.06057923       4.91843914      -0.00146878      -0.00024629       0.00022102
O        3.58393525       0.95532964       3.62920357      -0.00079435       0.00064397       0.00071073
O        2.09529551       3.06056650       6.20758762       0.00013030      -0.00064504      -0.00103438
O        2.09528590       3.06056248       3.62926209      -0.00016063      -0.00031090       0.00112379
O        3.58393461       0.95532817       6.20761118      -0.00071341       0.00061619      -0.00043178
