9
Lattice="3.95974070574065 -1.4970401132380385e-07 2.286157163532983 1.319913402060589 3.7332798542197847 2.2861572074877214 -3.3607249435627827e-07 -1.838057131164453e-07 4.5723149091605455" Properties=species:S:1:pos:R:3:forces:R:3 energy=-53.44795608520508 free_energy=-53.44795608520508 stress="1.134166814154014e-05 -2.2619487083375134e-07 -9.958273494703462e-07 -2.2619487083375134e-07 1.0950578143820167e-05 -5.850287720932101e-07 -9.958273494703462e-07 -5.850287720932101e-07 8.95993161975639e-06" pbc="T T T"
Rh       1.31991334       0.93331865       2.28615715       0.00001902       0.00002465       0.00002169
Rh       3.95974019       2.79996046       6.85847175      -0.00001023      -0.00001293      -0.00001255
Si      -0.00000010       0.00000029       0.00000020      -0.00000133      -0.00002791      -0.00005324
O        1.41090958       0.99766484       4.57231484       0.00002384      -0.00004792      -0.00007975
O        3.86874382       2.73561479       4.57231430       0.00002837       0.00003719       0.00002645
O        3.25428587       0.99766443       3.50804139      -0.00007129      -0.00001979       0.00000477
O        2.02536806       2.73561482       5.63658717       0.00001264       0.00009179       0.00008821
O        2.02536878       2.73561520       3.50804124      -0.00001991      -0.00001121      -0.00003552
O        3.25428494       0.99766461       5.63658784       0.00002158      -0.00003183       0.00004005
