9
Lattice="5.29354945963348 -5.162740913283657e-06 3.056233881530389 1.7645112888032495 4.990797045947955 3.0562344535660224 -3.6236755685860724e-07 4.443677319681981e-07 6.112468390696945" Properties=species:S:1:pos:R:3:forces:R:3 energy=-37.33109664916992 free_energy=-37.33109664916992 stress="-0.0003891619562637061 7.515853894801694e-07 -4.5593756681228115e-07 7.515853894801694e-07 -0.00038758007576689124 -3.6687583815364633e-07 -4.5593756681228115e-07 -3.6687583815364633e-07 -0.0003903729666490108" pbc="T T T"
Rh       1.76513454       1.24804160       3.05624078       0.00806161       0.00468708       0.00022976
Rh       5.29362738       3.74257938       9.16831553       0.00074274      -0.00683617      -0.00520160
Si      -0.00002619       0.00000715      -0.00000417       0.00031584      -0.00007980      -0.00011087
S        1.81670349       1.28485180       6.11247563       0.00214884       0.00489697       0.00000422
S        5.24118031       3.70607094       6.11272281      -0.00454253      -0.00300261       0.00287384
S        4.38483388       1.28481583       4.62946376      -0.00553784       0.00444970       0.00117120
S        2.67287484       3.70588879       7.59546016       0.00126827      -0.00523904      -0.00115973
S        2.67283243       3.70590389       4.62955115       0.00050303      -0.00537738       0.00233796
S        4.38508165       1.28501186       7.59552785      -0.00296019       0.00650138      -0.00014445
