9
Lattice="5.371808014905154 4.74833929558803e-08 3.1014146730711194 1.7906026772601211 5.064589128964673 3.101414740868219 4.991649408817807e-08 1.1833045392631044e-07 6.2028292596842824" Properties=species:S:1:pos:R:3:forces:R:3 energy=-36.76543045043945 free_energy=-36.76543045043945 stress="-0.00014579689013771713 3.0979464327174355e-08 -1.0760575719359622e-07 3.0979464327174355e-08 -0.00014565791934728622 -6.484537351525432e-08 -1.0760575719359622e-07 -6.484537351525432e-08 -0.00014573185762856156" pbc="T T T"
Rh       1.79061177       1.26614582       3.10141543       0.00009308      -0.00001815       0.00000439
Rh       5.37180935       3.79844915       9.30425863       0.00001215       0.00007627       0.00015165
Si      -0.00000067       0.00000003      -0.00000065      -0.00000350      -0.00000363      -0.00000869
Se       2.00582372       1.41832859       6.20282812      -0.00229703      -0.00165236      -0.00000407
Se       5.15658670       3.64625995       6.20282193       0.00228999       0.00165156      -0.00006869
Se       4.36889398       1.41833053       4.83850606       0.00112479      -0.00163253      -0.00201924
Se       2.79351121       3.64625833       7.56714879      -0.00118508       0.00162692       0.00197915
Se       2.79351589       3.64625818       4.83850643      -0.00113454       0.00162937      -0.00201911
Se       4.36889108       1.41832654       7.56714992       0.00110012      -0.00167748       0.00198457
