9
Lattice="4.271275117438879 -4.6149606233263814e-08 2.4660218167933072 1.4237583250995185 4.026996903362723 2.4660218234960603 -6.399514513690901e-08 -3.7042229481725384e-08 4.932043744429461" Properties=species:S:1:pos:R:3:forces:R:3 energy=-49.412696838378906 free_energy=-49.412696838378906 stress="3.5700275020644767e-06 6.095253723970018e-08 9.564775638182255e-08 6.095253723970018e-08 3.8492053135996684e-06 2.704414328036364e-07 9.564775638182255e-08 2.704414328036364e-07 3.665165195343434e-06" pbc="T T T"
Rh       1.42375804       1.00674924       2.46602131      -0.00000233       0.00000427      -0.00000546
Rh       4.27127535       3.02024841       7.39806568       0.00000386       0.00000567      -0.00000015
S        0.00000004      -0.00000017       0.00000018       0.00000491       0.00000653      -0.00001311
O        1.31469431       0.92962923       4.93204394      -0.00405383      -0.00287139      -0.00000212
O        4.38033919       3.09736750       4.93204374       0.00404453       0.00286019      -0.00000313
O        3.61392799       0.92962903       3.60458056       0.00202394      -0.00286472      -0.00350428
O        2.08110548       3.09736740       6.25950688      -0.00202990       0.00287390       0.00351512
O        2.08110522       3.09736768       3.60458044      -0.00202119       0.00285637      -0.00349784
O        3.61392774       0.92962896       6.25950658       0.00202966      -0.00287199       0.00351000
