9
Lattice="5.344568430337145 3.4044235901445714e-07 3.0856883195594684 1.7815231115821322 5.038908540919033 3.08568835333861 2.631802551262576e-08 5.998047410268063e-08 6.1713765935347835" Properties=species:S:1:pos:R:3:forces:R:3 energy=-34.3255729675293 free_energy=-34.3255729675293 stress="0.000495825195685029 6.645449701636608e-08 4.352289550979549e-08 6.645449701636608e-08 0.000495792948640883 3.495553713150912e-08 4.352289550979549e-08 3.495553713150912e-08 0.0004957921337336302" pbc="T T T"
Rh       1.78152046       1.25972788       3.08568430      -0.00003019       0.00000694      -0.00004594
Rh       5.34457182       3.77918095       9.25706961       0.00003545      -0.00000837       0.00005527
Se      -0.00000007      -0.00000000       0.00000012       0.00000383      -0.00000798       0.00000709
S        1.77948147       1.25828547       6.17137575       0.00134456       0.00096810       0.00000027
S        5.34660983       3.78062375       6.17137096      -0.00134301      -0.00096524      -0.00005912
S        4.45483130       1.25828412       4.62676768      -0.00063878       0.00095779       0.00119883
S        2.67126104       3.78062212       7.71598827       0.00064287      -0.00098291      -0.00117159
S        2.67126429       3.78062677       4.62676729       0.00067666      -0.00093114       0.00119019
S        4.45482614       1.25828475       7.71598902      -0.00069168       0.00096270      -0.00117528
