9
Lattice="4.417529984072003 -4.897720005788331e-08 2.550462037774829 1.4725099452241366 4.164887202965767 2.5504620434739262 -6.144363997345306e-08 -3.646726781858959e-08 5.1009241819731574" Properties=species:S:1:pos:R:3:forces:R:3 energy=-44.68803024291992 free_energy=-44.68803024291992 stress="2.5601497327443212e-05 -4.912076434493429e-08 1.140232015472975e-07 -4.912076434493429e-08 2.5387529603904113e-05 -1.8103591514773143e-07 1.140232015472975e-07 -1.8103591514773143e-07 2.534673512855079e-05" pbc="T T T"
Rh       1.47251042       1.04122460       2.55045964       0.00001038       0.00004483      -0.00003147
Rh       4.41752876       3.12366338       7.65138283      -0.00001287      -0.00002388      -0.00004260
Se       0.00000164       0.00000159       0.00000504       0.00001909       0.00002842       0.00005392
O        1.47909643       1.04587866       5.10092426       0.00142264       0.00100195       0.00000352
O        4.41094336       3.11900723       5.10092449      -0.00142264      -0.00101507       0.00000543
O        3.67798170       1.04587920       3.83139707      -0.00071752       0.00100422       0.00123048
O        2.21205794       3.11900700       6.37045131       0.00070882      -0.00102246      -0.00122666
O        2.21205771       3.11900688       3.83139697       0.00070620      -0.00102675       0.00123203
O        3.67798139       1.04587995       6.37045165      -0.00071573       0.00100815      -0.00122404
