9
Lattice="5.375065506118671 -4.3700118410734064e-08 3.103295595296624 1.7916884789530385 5.067660362131776 3.1032955639216437 6.931157684227237e-09 -3.352525562455746e-08 6.20659117858813" Properties=species:S:1:pos:R:3:forces:R:3 energy=-40.80413818359375 free_energy=-40.80413818359375 stress="7.325818296521902e-05 -3.774602674866401e-08 -2.011636857091048e-09 -3.774602674866401e-08 7.324496982619166e-05 1.18554384087588e-08 -2.011636857091048e-09 1.18554384087588e-08 7.324043690459803e-05" pbc="T T T"
Rh       1.79168905       1.26691637       3.10329618       0.00000708       0.00001978       0.00000812
Rh       5.37506435       3.80074477       9.30988760      -0.00001411      -0.00000642       0.00001373
V        0.00000001      -0.00000012      -0.00000003       0.00000089      -0.00000111      -0.00000391
Se       1.96760300       1.39130509       6.20659104       0.00430557       0.00304323      -0.00000209
Se       5.19915130       3.67635495       6.20659096      -0.00430605      -0.00304946      -0.00000492
Se       4.39126415       1.39130577       4.80728921      -0.00215188       0.00305143       0.00372073
Se       2.77549013       3.67635446       7.60589284       0.00215216      -0.00304601      -0.00372511
Se       2.77549027       3.67635426       4.80728888       0.00215892      -0.00305524       0.00371760
Se       4.39126372       1.39130559       7.60589259      -0.00215268       0.00304395      -0.00372413
