9
Lattice="3.425729653357173 0.6527328031959806 0.5494102184234985 1.6788136908378646 2.024930489999529 0.7207346574522144 -0.03446118003754784 0.06289270057477449 2.9400401159772205" Properties=species:S:1:pos:R:3:forces:R:3 energy=-3129234432.0 free_energy=-3129234432.0 stress="1679559808.0 -136400416.0 24887322.0 -136400416.0 1463930496.0 -2902215.75 24887322.0 -2902215.75 1577290496.0" pbc="T T T"
Rh      -0.46917717      -0.57301606       3.51471573 9502952448.00000000 1854186752.00000000 -5195340800.00000000
Rh       1.96086041       1.53180687       4.82054577 707784832.00000000 3097165056.00000000 1986546944.00000000
V       -1.78400921      -1.01747739       1.60644501 -166436640.00000000 902002496.00000000 -799440512.00000000
O       -0.67256768      -0.44929173       2.61326404 -1062623616.00000000 -647233536.00000000 2124342656.00000000
O        3.25806572       1.18434749       2.85782655 -953429568.00000000 2127483264.00000000 963679360.00000000
O        3.28209750       1.39856762       2.18927331 -352216096.00000000 -423150080.00000000 -273251072.00000000
O        1.27121033      -0.29417601       3.25467337 744499584.00000000 -1249011328.00000000 -772995072.00000000
O        1.96145341       1.89753123       2.21022192 -1273945728.00000000 -4262934016.00000000 -3873547520.00000000
O        3.06078952      -0.04283825       3.95065910 -7146585600.00000000 -1398511744.00000000 5840008192.00000000
