9
Lattice="4.498713946052882 1.894530840631354e-09 2.5973337567390664 1.4995713300851543 4.241428105808582 2.59733373431247 5.995617296058528e-08 1.492855118684059e-08 5.194667409631055" Properties=species:S:1:pos:R:3:forces:R:3 energy=-46.956180572509766 free_energy=-46.956180572509766 stress="0.00012841536954510957 -6.555536202768053e-08 -8.254000505303338e-08 -6.555536202768053e-08 0.00012840858835261315 -7.821073211289331e-08 -8.254000505303338e-08 -7.821073211289331e-08 0.00012855386012233794" pbc="T T T"
Ru       1.49957174       1.06035706       2.59733312      -0.00000157      -0.00000053       0.00000155
Ru       4.49871396       3.18107122       7.79200161      -0.00000357      -0.00000023       0.00000498
C       -0.00000215      -0.00000069       0.00000213      -0.00001468      -0.00000759       0.00001442
S        1.58137785       1.11820309       5.19466632      -0.00042470      -0.00029920      -0.00000425
S        4.41690797       3.12322529       5.19466650       0.00043059       0.00030026       0.00000306
S        3.70802550       1.11820302       3.96684705       0.00021669      -0.00030093      -0.00037362
S        2.29026085       3.12322464       6.42248816      -0.00020876       0.00030430       0.00036492
S        2.29026045       3.12322597       3.96684715      -0.00021264       0.00030072      -0.00037315
S        3.70802532       1.11820286       6.42248781       0.00021838      -0.00029654       0.00036158
