9
Lattice="4.820843242932271 7.748327258355342e-08 2.783315375103978 1.6069477975703714 4.54513492519722 2.78331541515876 -8.59968669043194e-09 4.297602825966742e-08 5.56663076510301" Properties=species:S:1:pos:R:3:forces:R:3 energy=-49.01895523071289 free_energy=-49.01895523071289 stress="3.0124958357191645e-05 6.863363921638665e-08 -3.972465023593941e-08 6.863363921638665e-08 2.9906534109613858e-05 -4.625800542612524e-08 -3.972465023593941e-08 -4.625800542612524e-08 2.9922613975941204e-05" pbc="T T T"
Ru       1.60694913       1.13628326       2.78331551       0.00001404      -0.00000434       0.00000123
Ru       4.82084356       3.40885174       8.34994766       0.00000403       0.00000195       0.00001474
Cr      -0.00000017       0.00000009      -0.00000026      -0.00000059      -0.00000169      -0.00000232
S        1.73397540       1.22610589       5.56663067       0.00193262       0.00137162      -0.00000461
S        4.69381536       3.31902926       5.56663071      -0.00193805      -0.00137079      -0.00000354
S        3.95385549       1.22610556       4.28498204      -0.00097224       0.00137335       0.00168163
S        2.47393530       3.31902909       6.84827895       0.00096262      -0.00136644      -0.00168294
S        2.47393573       3.31902938       4.28498156       0.00097230      -0.00137305       0.00167537
S        3.95385438       1.22610588       6.84827938      -0.00097430       0.00136942      -0.00167924
