9
Lattice="4.158020067763267 1.420453569255231e-07 2.40063395941032 1.386006810671081 3.920219205297309 2.4006339810696105 2.1691861873438776e-07 1.7991171879077645e-07 4.801267543106584" Properties=species:S:1:pos:R:3:forces:R:3 energy=-53.51801681518555 free_energy=-53.51801681518555 stress="-0.0002191773382946849 3.391479026504385e-07 -1.1143064426732963e-07 3.391479026504385e-07 -0.00021835777442902327 2.908628005116043e-08 -1.1143064426732963e-07 2.908628005116043e-08 -0.00021805506548844278" pbc="T T T"
Ru       1.38600342       0.98005294       2.40063453      -0.00005834      -0.00003541      -0.00000329
Ru       4.15801889       2.94016222       7.20189895      -0.00002921      -0.00004327      -0.00003019
C       -0.00000133      -0.00000101      -0.00000038      -0.00000898      -0.00001058      -0.00000354
O        1.22117454       0.86350193       4.80126830       0.00210905       0.00148225       0.00000727
O        4.32285430       3.05671932       4.80126826      -0.00210202      -0.00147313       0.00001521
O        3.54743444       0.86350149       3.45820226      -0.00104135       0.00149274       0.00180948
O        1.99659510       3.05671998       6.14433383       0.00109166      -0.00146353      -0.00179875
O        1.99659421       3.05671950       3.45820273       0.00107330      -0.00146228       0.00181139
O        3.54743477       0.86350164       6.14433390      -0.00103360       0.00151139      -0.00180781
