9
Lattice="4.73994371146219 1.942292042954834e-07 2.736607689046644 1.5799814175015459 4.468862077662675 2.7366076938506745 6.426015730601966e-08 5.132246936219858e-08 5.47321526679137" Properties=species:S:1:pos:R:3:forces:R:3 energy=-46.316890716552734 free_energy=-46.316890716552734 stress="-0.00031709345057606697 2.0226171670856274e-07 -1.1185883863618074e-07 2.0226171670856274e-07 -0.00031723108259029686 -1.936158078308381e-08 -1.1185883863618074e-07 -1.936158078308381e-08 -0.0003170988929923624" pbc="T T T"
Ru       1.57998223       1.11721542       2.73660798       0.00000530      -0.00000352       0.00000594
Ru       4.73994310       3.35164552       8.20982510      -0.00000370      -0.00001048       0.00002004
Co       0.00000017       0.00000014      -0.00000060       0.00000012      -0.00000129       0.00000219
S        1.69566742       1.19901790       5.47321524       0.00507790       0.00358993      -0.00000439
S        4.62425772       3.26984478       5.47321468      -0.00507379      -0.00359064       0.00000196
S        3.89211050       1.19901843       4.20509737      -0.00253868       0.00359404       0.00439930
S        2.42781433       3.26984456       6.74133252       0.00254065      -0.00359532      -0.00440574
S        2.42781540       3.26984506       4.20509752       0.00253558      -0.00358689       0.00439382
S        3.89211012       1.19901741       6.74133280      -0.00254366       0.00360379      -0.00441271
