9
Lattice="5.338521708172808 5.4265728367004894e-08 3.082196990752692 1.7795073157077317 5.033206983840007 3.0821969414102304 6.605260374556246e-08 -1.3725726373099334e-08 6.164393867098935" Properties=species:S:1:pos:R:3:forces:R:3 energy=-42.976436614990234 free_energy=-42.976436614990234 stress="-3.632992593338713e-05 -7.645267885436624e-08 6.105245198284592e-09 -7.645267885436624e-08 -3.637394911493175e-05 -4.019864974225129e-08 6.105245198284592e-09 -4.019864974225129e-08 -3.636352266767062e-05" pbc="T T T"
Ru       1.77950886       1.25830458       3.08219586       0.00001279       0.00002412      -0.00001060
Ru       5.33852119       3.77490624       9.24659100      -0.00000474       0.00001015      -0.00000193
Cr       0.00000012      -0.00000022       0.00000010      -0.00000024      -0.00000149       0.00000116
Se       1.90060127       1.34392740       6.16439384      -0.00084254      -0.00060073       0.00000239
Se       5.21742816       3.68927854       6.16439349       0.00083941       0.00058860      -0.00000153
Se       4.38822080       1.34392702       4.72816632       0.00042030      -0.00060073      -0.00072742
Se       2.72980750       3.68927785       7.60062276      -0.00042352       0.00058928       0.00073195
Se       2.72980794       3.68927811       4.72816515      -0.00042011       0.00058895      -0.00073266
Se       4.38822047       1.34392856       7.60062258       0.00041869      -0.00059775       0.00073847
