9
Lattice="4.469821291708037 -8.376417694330907e-08 2.580652512086989 1.4899403243183589 4.21418809998543 2.580652559332773 -5.200435622317044e-08 2.109137902591672e-08 5.16130511424817" Properties=species:S:1:pos:R:3:forces:R:3 energy=-49.43604278564453 free_energy=-49.43604278564453 stress="0.0008267962839454412 -4.520915197758768e-09 -3.496062461749716e-08 -4.520915197758768e-09 0.0008267129305750132 -1.253541626056176e-08 -3.496062461749716e-08 -1.253541626056176e-08 0.0008270448306575418" pbc="T T T"
Ru       1.48994265       1.05354963       2.58065191       0.00002727       0.00003066      -0.00000577
Ru       4.46982050       3.16063922       7.74195649      -0.00000754      -0.00002029      -0.00001103
Co      -0.00000019       0.00000008       0.00000010       0.00000045      -0.00000244       0.00000193
O        1.47444314       1.04258938       5.16130517      -0.00101584      -0.00071180       0.00000339
O        4.48531840       3.17159817       5.16130516       0.00101852       0.00071231       0.00000041
O        3.73259870       1.04258916       3.85755790       0.00049847      -0.00071400      -0.00088155
O        2.22716227       3.17159821       6.46505282      -0.00050655       0.00070453       0.00088716
O        2.22716192       3.17159838       3.85755790      -0.00051048       0.00070676      -0.00088298
O        3.73259876       1.04258995       6.46505324       0.00049657      -0.00070569       0.00088775
