9
Lattice="5.201990062387971 -2.1747928184912978e-07 3.003370390243411 1.7339964013258393 4.904482679103753 3.0033705307047476 9.78895498013115e-08 2.412476586466081e-07 6.0067406109371" Properties=species:S:1:pos:R:3:forces:R:3 energy=-40.57530212402344 free_energy=-40.57530212402344 stress="4.692470156442141e-06 2.929416931252149e-09 -1.963640627877794e-08 2.929416931252149e-09 4.686431111622369e-06 -1.27085666434823e-08 -1.963640627877794e-08 -1.27085666434823e-08 4.688937224273104e-06" pbc="T T T"
Ru       1.73399695       1.22611821       3.00336595       0.00000763      -0.00001779      -0.00003387
Ru       5.20199295       3.67836341       9.01011208       0.00002215       0.00000641       0.00000113
Co      -0.00000050       0.00000079       0.00000046      -0.00000451       0.00000174       0.00000362
Se       1.87199018       1.32369675       6.00674231       0.00036997       0.00026271       0.00000876
Se       5.06399546       3.58078703       6.00674173      -0.00037938      -0.00025558       0.00000551
Se       4.26599582       1.32369763       4.62456129      -0.00018290       0.00027055       0.00032517
Se       2.66999060       3.58078521       7.38892062       0.00017759      -0.00026727      -0.00031936
Se       2.66999098       3.58078738       4.62456267       0.00018173      -0.00025302       0.00033516
Se       4.26599373       1.32369435       7.38891883      -0.00019222       0.00025201      -0.00032625
