9
Lattice="4.526065787122215 -1.5258732835439162e-08 2.6131250637359393 1.5086885432394024 4.2672156760235325 2.613125129695771 -1.5014408420693183e-07 -2.5383997473057922e-08 5.226250387529082" Properties=species:S:1:pos:R:3:forces:R:3 energy=-52.635284423828125 free_energy=-52.635284423828125 stress="-4.1653667722130194e-05 2.7516636080804346e-08 1.8858635542073898e-07 2.7516636080804346e-08 -4.1633087676018476e-05 1.8353453867803182e-07 1.8858635542073898e-07 1.8353453867803182e-07 -4.158087176620029e-05" pbc="T T T"
Ru       1.50869853       1.06680397       2.61313454       0.00020539       0.00000421       0.00018190
Ru       4.52606917       3.20041078       7.83934332       0.00007414      -0.00002088      -0.00064280
Cr      -0.00000001       0.00000036       0.00000043      -0.00000039       0.00000037      -0.00000060
O        1.50715993       1.06572813       5.22624924      -0.00073707      -0.00045177      -0.00002693
O        4.52759065       3.20148969       5.22626115       0.00067243       0.00050226       0.00022568
O        3.77247651       1.06571907       3.91836860       0.00019774      -0.00059655      -0.00055781
O        2.26227600       3.20149355       6.53413712      -0.00025907       0.00052875       0.00066108
O        2.26226317       3.20148804       3.91836893      -0.00047934       0.00044391      -0.00053713
O        3.77248267       1.06572895       6.53413914       0.00032620      -0.00040990       0.00069672
