9
Lattice="4.560704263186111 1.4198861468458916e-09 2.6331236572797576 1.5202347781627563 4.2998732283685115 2.6331236184321294 1.2155450543659451e-07 3.8373549502113146e-08 5.266247104020965" Properties=species:S:1:pos:R:3:forces:R:3 energy=-49.185760498046875 free_energy=-49.185760498046875 stress="0.0002373176976107061 8.879025870101032e-08 -1.7170566479762783e-07 8.879025870101032e-08 0.00023701455211266875 -1.5212823711863166e-07 -1.7170566479762783e-07 -1.5212823711863166e-07 0.00023752536799293011" pbc="T T T"
Ru       1.52024640       1.07496809       2.63312196       0.00019908      -0.00000508      -0.00002620
Ru       4.56070877       3.22489347       7.89937891       0.00008051      -0.00019732       0.00013470
Fe      -0.00000026       0.00000024      -0.00000037      -0.00000384       0.00000076       0.00000567
O        1.52617895       1.07917545       5.26624677       0.00271785       0.00200784       0.00000015
O        4.55475470       3.22070404       5.26624375      -0.00280893      -0.00190005      -0.00005207
O        3.79761249       1.07917833       3.95483028      -0.00141487       0.00203860       0.00232175
O        2.28332112       3.22069798       6.57765987       0.00131437      -0.00198340      -0.00239870
O        2.28332301       3.22070053       3.95483534       0.00134954      -0.00194788       0.00238103
O        3.79761155       1.07917498       6.57766094      -0.00143319       0.00198698      -0.00236645
