9
Lattice="4.768563857055057 5.718043246052568e-09 2.7531320578052028 1.5895213462255926 4.495845001082423 2.753131962283397 2.59999344967484e-08 -9.860509152379631e-08 5.506264070577212" Properties=species:S:1:pos:R:3:forces:R:3 energy=-47.588443756103516 free_energy=-47.588443756103516 stress="-1.5120152966119349e-05 -2.655791320194112e-08 1.11943727176822e-07 -2.655791320194112e-08 -1.5070216250023805e-05 -2.4805702381058836e-08 1.11943727176822e-07 -2.4805702381058836e-08 -1.536232593934983e-05" pbc="T T T"
Ru       1.58951777       1.12396160       2.75313250      -0.00003530       0.00000834       0.00000298
Ru       4.76856287       3.37188522       8.25939466      -0.00001616       0.00001528      -0.00001418
Fe       0.00000038      -0.00000033       0.00000062       0.00000809      -0.00000349       0.00000055
S        1.70611749       1.20640557       5.50626339       0.00067216       0.00046468      -0.00000286
S        4.65196889       3.28943852       5.50626449      -0.00065833      -0.00046927       0.00000117
S        3.91550685       1.20640615       4.23067260      -0.00032204       0.00047338       0.00057983
S        2.44258023       3.28943812       6.78185592       0.00033450      -0.00047785      -0.00057429
S        2.44257948       3.28943846       4.23067280       0.00033566      -0.00047374       0.00057936
S        3.91550686       1.20640646       6.78185537      -0.00031829       0.00046265      -0.00057220
