9
Lattice="5.141991089839099 -3.7907963386400875e-08 2.9687288383471864 1.7139972131570562 4.847912852812967 2.968728459113649 5.123905307518823e-07 -1.0214945792440717e-07 5.937456789208036" Properties=species:S:1:pos:R:3:forces:R:3 energy=-41.872798919677734 free_energy=-41.872798919677734 stress="-3.019314317498356e-05 5.979595840699403e-08 -1.1408388900235877e-07 5.979595840699403e-08 -2.9728749723290093e-05 -9.069093209745915e-08 -1.1408388900235877e-07 -9.069093209745915e-08 -2.991254223161377e-05" pbc="T T T"
Ru       1.71400049       1.21196867       2.96869973       0.00001067      -0.00005156      -0.00022573
Ru       5.14198476       3.63594614       8.90618303      -0.00004782       0.00007001      -0.00007354
Fe       0.00000238       0.00000006       0.00000314       0.00001520      -0.00000349       0.00005999
Se       1.86995897       1.32225764       5.93746977      -0.00021601      -0.00017011       0.00009445
Se       4.98602896       3.52565616       5.93745123       0.00022060       0.00016713      -0.00001404
Se       4.20700968       1.32225288       4.58816587       0.00010175      -0.00019073      -0.00014865
Se       2.64898158       3.52565302       7.28676068      -0.00008157       0.00016081       0.00023639
Se       2.64897836       3.52565738       4.58816423      -0.00010100       0.00018096      -0.00015765
Se       4.20701038       1.32225892       7.28675928       0.00009811      -0.00016320       0.00022882
