9
Lattice="4.703817054437228 4.211273791410175e-06 2.715757692386627 1.5679423806249244 4.434810281809278 2.7157587453794423 1.9883893086164397e-06 2.69565270421428e-06 5.43151194077789" Properties=species:S:1:pos:R:3:forces:R:3 energy=-41.45015335083008 free_energy=-41.45015335083008 stress="-6.257613677007612e-06 -4.237411758367671e-06 -3.7518511817324907e-06 -4.237411758367671e-06 -1.4419420040212572e-05 -2.6682891984819435e-06 -3.7518511817324907e-06 -2.6682891984819435e-06 -1.743319080560468e-05" pbc="T T T"
Ru       1.56791037       1.10869808       2.71575550      -0.00022063      -0.00004039      -0.00001718
Ru       4.70383843       3.32609666       8.14730081       0.00013559      -0.00011442       0.00021485
Ge      -0.00000047       0.00000160      -0.00000534       0.00003959       0.00005523      -0.00004028
S        1.71460929       1.21241961       5.43153342       0.00032377       0.00021607      -0.00004685
S        4.55716512       3.22238713       5.43152680      -0.00026888      -0.00019041       0.00005094
S        3.84654952       1.21242918       4.20066083      -0.00008410       0.00013775       0.00032085
S        2.42522762       3.22243993       6.66232974       0.00010464      -0.00006485      -0.00040889
S        2.42524873       3.22238050       4.20063312       0.00022271      -0.00029892       0.00007081
S        3.84649756       1.21241709       6.66237797      -0.00025311       0.00029907      -0.00014412
