9
Lattice="5.451465453961395 7.970893208142261e-08 3.1474050895016368 1.8171552585072772 5.139690621498984 3.147405034012787 1.2663534896816627e-07 2.1585024710273806e-08 6.294809959664437" Properties=species:S:1:pos:R:3:forces:R:3 energy=-36.9013786315918 free_energy=-36.9013786315918 stress="2.188763755839318e-05 6.352044579216454e-08 -4.350929216911936e-08 6.352044579216454e-08 2.2019739844836295e-05 2.5757454835684257e-08 -4.350929216911936e-08 2.5757454835684257e-08 2.1853498765267432e-05" pbc="T T T"
Ru       1.81715455       1.28491961       3.14740544      -0.00000242      -0.00002201       0.00000253
Ru       5.45146513       3.85476823       9.44221577      -0.00000601       0.00000118       0.00000755
Ge       0.00000025       0.00000007       0.00000001      -0.00000416      -0.00000159       0.00000077
Se       1.98028803       1.40027430       6.29481010      -0.00080742      -0.00057487       0.00000121
Se       5.28833254       3.73941692       6.29480956       0.00080863       0.00058159      -0.00000420
Se       4.46132155       1.40027522       4.86238361       0.00040548      -0.00057250      -0.00070211
Se       2.80729951       3.73941705       7.72723528      -0.00040082       0.00058009       0.00069635
Se       2.80729926       3.73941697       4.86238487      -0.00040181       0.00057858      -0.00069784
Se       4.46132259       1.40027456       7.72723569       0.00040851      -0.00057055       0.00069587
