9
Lattice="5.231095321629 -1.3453475247775004e-07 3.0201742185263067 1.743698425686662 4.931923605131648 3.020174024563912 1.688640683731793e-07 -1.1814952844063721e-07 6.040348144571459" Properties=species:S:1:pos:R:3:forces:R:3 energy=-48.20865249633789 free_energy=-48.20865249633789 stress="-6.829788617324084e-05 2.297380241600422e-08 6.092512716548981e-09 2.297380241600422e-08 -6.820866110501811e-05 -4.4824954414934837e-08 6.092512716548981e-09 -4.4824954414934837e-08 -6.816282257204875e-05" pbc="T T T"
Ru       1.74369795       1.23298182       3.02017389      -0.00000417       0.00000636      -0.00000364
Ru       5.23109424       3.69894234       9.06052027      -0.00000865      -0.00000052      -0.00001580
Hf       0.00000011      -0.00000041       0.00000017       0.00000512       0.00000786       0.00000719
S        1.90846385       1.34948788       6.04034796      -0.00284481      -0.00200844      -0.00000007
S        5.06633028       3.58243588       6.04034968       0.00283593       0.00200316       0.00000913
S        4.27686340       1.34948715       4.67295247       0.00142106      -0.00201100      -0.00245816
S        2.69793131       3.58243574       7.40774490      -0.00141044       0.00200289       0.00246033
S        2.69793057       3.58243508       4.67295195      -0.00141948       0.00200593      -0.00246105
S        4.27686387       1.34948773       7.40774429       0.00142512      -0.00200602       0.00246170
