9
Lattice="4.67269104996154 2.3130530436325565e-07 2.6977795740942003 1.5575639114052928 4.4054556221863885 2.6977795567598095 1.8093209915020682e-07 1.0670808958312686e-07 5.395558834804827" Properties=species:S:1:pos:R:3:forces:R:3 energy=-59.307960510253906 free_energy=-59.307960510253906 stress="0.000320722465403378 -1.7170761168472382e-07 -5.13179827521526e-07 -1.7170761168472382e-07 0.0003200803475920111 -3.021574741524091e-07 -5.13179827521526e-07 -3.021574741524091e-07 0.0003200513019692153" pbc="T T T"
Ru       1.55754874       1.10137133       2.69776972      -0.00024976       0.00012009      -0.00016615
Ru       4.67268542       3.30409411       8.09334606      -0.00008749       0.00002936       0.00012846
Hf       0.00000019      -0.00000014      -0.00000013       0.00000833      -0.00000150       0.00000241
O        1.63692434       1.15747575       5.39556614      -0.00327617      -0.00238150       0.00009885
O        4.59333605       3.24797493       5.39555173       0.00336924       0.00228733      -0.00008551
O        3.85423473       1.15747899       4.11539601       0.00174630      -0.00233319      -0.00284562
O        2.37602788       3.24797387       6.67572658      -0.00162639       0.00229350       0.00291023
O        2.37602441       3.24797714       4.11539622      -0.00163405       0.00234261      -0.00286064
O        3.85423879       1.15747797       6.67571926       0.00175047      -0.00235674       0.00281823
