9
Lattice="4.733663909745247 1.4986849504027068e-06 2.73298342994102 1.5778892778973341 4.462939269421768 2.7329836117921227 4.837458082704358e-07 5.647807103743538e-07 5.465966022010479" Properties=species:S:1:pos:R:3:forces:R:3 energy=-51.697486877441406 free_energy=-51.697486877441406 stress="-5.975990916340379e-06 -1.0028950327978237e-06 1.1716509789039264e-06 -1.0028950327978237e-06 -5.988739758322481e-06 8.927278258852311e-07 1.1716509789039264e-06 8.927278258852311e-07 -8.779142262937967e-06" pbc="T T T"
Ru       1.57786419       1.11559790       2.73344571      -0.00021935      -0.00225183       0.00775799
Ru       4.73388169       3.34717429       8.19920399       0.00349428      -0.00062898       0.00454709
Ir      -0.00000649       0.00000675      -0.00002493      -0.00012283       0.00010898      -0.00046005
O        1.54710361       1.09403314       5.46576997      -0.00062102       0.00083295      -0.00328169
O        4.76440386       3.36896675       5.46585843      -0.00043064       0.00047699      -0.00202127
O        3.96005493       1.09403410       4.07276300      -0.00093444       0.00064152      -0.00141898
O        2.35139340       3.36908943       6.85891870      -0.00114463       0.00196634      -0.00267814
O        2.35141287       3.36891177       4.07279242      -0.00056042      -0.00051953      -0.00083025
O        3.96011092       1.09395040       6.85900381       0.00053912      -0.00062668      -0.00161444
