9
Lattice="4.948662591086704 -5.8632780265992e-08 2.8571118642284237 1.6495540814519778 4.66564417030263 2.8571119686666195 -1.4413158436656918e-08 1.1771848246215273e-07 5.7142237534211855" Properties=species:S:1:pos:R:3:forces:R:3 energy=-46.55999755859375 free_energy=-46.55999755859375 stress="-4.877705578110181e-05 2.4579311030947792e-08 -5.202843711415994e-10 2.4579311030947792e-08 -4.877195897279307e-05 -4.981172807561052e-08 -5.202843711415994e-10 -4.981172807561052e-08 -4.884983354713768e-05" pbc="T T T"
Ru       1.64955507       1.16641127       2.85711242       0.00000904       0.00000015       0.00000569
Ru       4.94866249       3.49923312       8.57133648      -0.00000073       0.00000034       0.00000745
Ir      -0.00000005      -0.00000038      -0.00000025      -0.00000255       0.00000275       0.00000077
S        1.80970999       1.27965891       5.71422382      -0.00357378      -0.00252002       0.00000200
S        4.78850608       3.38598564       5.71422470       0.00356793       0.00252479       0.00000513
S        4.04380692       1.27965859       4.42436627       0.00178158      -0.00251997      -0.00309813
S        2.55440942       3.38598624       7.00408018      -0.00178158       0.00252175       0.00308406
S        2.55440946       3.38598557       4.42436665      -0.00177944       0.00252020      -0.00309432
S        4.04380703       1.27965779       7.00408000       0.00178039      -0.00253010       0.00308645
