9
Lattice="5.459242791005206 8.43647851710083e-08 3.1518952127075077 1.819747577116437 5.147023590429291 3.1518953849169153 -8.807354548609307e-08 1.4863528353912006e-07 6.303790577962855" Properties=species:S:1:pos:R:3:forces:R:3 energy=-41.754112243652344 free_energy=-41.754112243652344 stress="-8.361853542737663e-05 2.093765338884168e-08 4.67107419410695e-08 2.093765338884168e-08 -8.367747068405151e-05 2.4061343140147073e-08 4.67107419410695e-08 2.4061343140147073e-08 -8.358462218893692e-05" pbc="T T T"
Ru       1.81974881       1.28675722       3.15189777       0.00001162       0.00000944       0.00001769
Ru       5.45924406       3.86026652       9.45569064       0.00001084      -0.00000955       0.00003835
Ir       0.00000040      -0.00000028       0.00000056      -0.00000654       0.00000269      -0.00000875
Se       1.97911751       1.39944864       6.30379017      -0.00118077      -0.00082844      -0.00000822
Se       5.29987116       3.74757577       6.30378935       0.00118202       0.00083837      -0.00001232
Se       4.46968410       1.39945051       4.86586012       0.00058669      -0.00081834      -0.00103244
Se       2.80930595       3.74757579       7.74171841      -0.00059888       0.00083062       0.00101483
Se       2.80930615       3.74757446       4.86586076      -0.00059298       0.00082216      -0.00102487
Se       4.46968289       1.39944675       7.74171691       0.00058833      -0.00084695       0.00101537
