9
Lattice="4.932244891585766 -2.6164575156584766e-07 2.847632723117035 1.6440814605618557 4.650164926290414 2.847632590242383 -6.740466598837486e-08 -2.1039990518125264e-07 5.695265562982414" Properties=species:S:1:pos:R:3:forces:R:3 energy=-48.996337890625 free_energy=-48.996337890625 stress="0.00043522717896848917 1.0821354834433805e-07 -6.221996784461226e-08 1.0821354834433805e-07 0.00043522691703401506 8.542437512915058e-08 -6.221996784461226e-08 8.542437512915058e-08 0.00043529292452149093" pbc="T T T"
Ru       1.64407987       1.16254063       2.84763036      -0.00001346      -0.00000652      -0.00002215
Ru       4.93224425       3.48762123       8.54289618      -0.00000624      -0.00002007      -0.00002116
Mo      -0.00000027       0.00000043       0.00000060       0.00001133      -0.00000445       0.00000402
S        1.80850677       1.27880801       5.69526559       0.00072205       0.00051636      -0.00000135
S        4.76781962       3.37135711       5.69526598      -0.00071406      -0.00050884       0.00000549
S        4.02799230       1.27880761       4.41384625      -0.00036085       0.00051677       0.00064147
S        2.54833569       3.37135689       6.97668662       0.00035703      -0.00050014      -0.00061011
S        2.54833575       3.37135809       4.41384541       0.00036460      -0.00050944       0.00063229
S        4.02799129       1.27880749       6.97668663      -0.00036037       0.00051618      -0.00062847
