9
Lattice="5.292700157654438 4.161292877445803e-07 3.055742153882051 1.7642337517402285 4.990006177235832 3.055742199738145 1.9170866878748134e-07 1.917206491303999e-07 6.111483975714962" Properties=species:S:1:pos:R:3:forces:R:3 energy=-42.735450744628906 free_energy=-42.735450744628906 stress="-2.6085521312779747e-05 -6.766493143572916e-09 2.9273010682118183e-09 -6.766493143572916e-09 -2.609624425531365e-05 -4.757403360144963e-08 2.9273010682118183e-09 -4.757403360144963e-08 -2.6091009203810245e-05" pbc="T T T"
Ru       1.76423637       1.24750008       3.05574011       0.00002153      -0.00001310      -0.00000722
Ru       5.29270123       3.74250417       9.16723056       0.00000950      -0.00001048       0.00003042
Mn      -0.00000053       0.00000063       0.00000090      -0.00000295       0.00000133      -0.00000650
Se       1.91634155       1.35505913       6.11148392      -0.00012070      -0.00008032       0.00000230
Se       5.14059195       3.63494786       6.11148234       0.00011599       0.00008813      -0.00001099
Se       4.33453003       1.35505995       4.71534225       0.00005665      -0.00007623      -0.00010592
Se       2.72240380       3.63494897       7.50762458      -0.00006494       0.00008860       0.00009733
Se       2.72240483       3.63494794       4.71534264      -0.00005844       0.00008890      -0.00010598
Se       4.33452705       1.35505839       7.50762582       0.00004354      -0.00008667       0.00010657
