9
Lattice="4.654088096261558 -1.3171176030943e-07 2.6870389135706083 1.5513626369909443 4.387916243468535 2.6870388054627163 1.3101581489508616e-07 -3.9762416299870603e-08 5.374077600215169" Properties=species:S:1:pos:R:3:forces:R:3 energy=-53.70599365234375 free_energy=-53.70599365234375 stress="0.00010376689169788733 -5.609716424714861e-08 -2.620204497816303e-07 -5.609716424714861e-08 0.00010388793452875689 -1.3083410976832965e-07 -2.620204497816303e-07 -1.3083410976832965e-07 0.0001037724650814198" pbc="T T T"
Ru       1.55136657       1.09695159       2.68703673       0.00007104      -0.00050948      -0.00002890
Ru       4.65409541       3.29091707       8.06113551       0.00013629      -0.00037408       0.00033775
Mo       0.00000019      -0.00000059      -0.00000018      -0.00000019       0.00000629      -0.00000625
O        1.58392361       1.12001243       5.37407726      -0.00267327      -0.00170439      -0.00000717
O        4.62151913       3.26792012       5.37407094       0.00252432       0.00201696      -0.00011983
O        3.86212636       1.12001469       4.05875492       0.00132519      -0.00168377      -0.00234258
O        2.34332221       3.26791917       6.68938882      -0.00137484       0.00199974       0.00214821
O        2.34332743       3.26791946       4.05876085      -0.00127921       0.00200784      -0.00224143
O        3.86212280       1.12001043       6.68939632       0.00127071      -0.00175875       0.00225967
