9
Lattice="4.692671998065022 2.2015010383253516e-07 2.7093158773480353 1.5642241959564038 4.42429365021416 2.7093158963279946 4.106695772361165e-07 3.136328077075444e-07 5.418631043395548" Properties=species:S:1:pos:R:3:forces:R:3 energy=-58.069374084472656 free_energy=-58.069374084472656 stress="-1.6402758774347603e-05 -1.4226981193132815e-07 -6.639898231242114e-08 -1.4226981193132815e-07 -1.624321157578379e-05 5.270172209748125e-08 -6.639898231242114e-08 5.270172209748125e-08 -1.633372994547244e-05" pbc="T T T"
Ru       1.56421492       1.10608866       2.70929455      -0.00017531       0.00026068      -0.00038638
Ru       4.69268148       3.31824523       8.12795563       0.00016926       0.00044247       0.00016340
Nb       0.00000004       0.00000046       0.00000013       0.00000249      -0.00003211       0.00001164
O        1.61560992       1.14240650       5.41863853      -0.00059021      -0.00048822       0.00012813
O        4.64129545       3.28187171       5.41863191       0.00069332       0.00024796      -0.00001892
O        3.88486583       1.14240208       4.10847867       0.00032604      -0.00055164      -0.00043863
O        2.37202621       3.28187953       6.72879078      -0.00036335       0.00030881       0.00056016
O        2.37203200       3.28188893       4.10847862      -0.00027740       0.00044894      -0.00047231
O        3.88486100       1.14239454       6.72878257       0.00021595      -0.00063723       0.00045246
