9
Lattice="5.265433807146058 -2.1566698579521893e-07 3.039999328302038 1.7551444271339882 4.964298210625477 3.039999279657817 -1.638198397866135e-07 -1.7541491006835403e-07 6.079998940348367" Properties=species:S:1:pos:R:3:forces:R:3 energy=-39.72789001464844 free_energy=-39.72789001464844 stress="0.00010887567623285577 9.22518506030201e-09 1.6713102013454773e-07 9.22518506030201e-09 0.00010885814117500558 8.120350969420542e-08 1.6713102013454773e-07 8.120350969420542e-08 0.00010881386697292328" pbc="T T T"
Ru       1.75514475       1.24107211       3.04000201       0.00000333      -0.00001806       0.00001399
Ru       5.26543711       3.72322279       9.11999314       0.00002797      -0.00000645      -0.00003489
Ni      -0.00000031      -0.00000025       0.00000112       0.00000155       0.00000726      -0.00001323
Se       1.86936968       1.32184512       6.07999859      -0.00393763      -0.00277811      -0.00000248
Se       5.15120727       3.64245471       6.08000079       0.00392190       0.00278163       0.00000887
Se       4.33074749       1.32184280       4.65892132       0.00195302      -0.00277472      -0.00339425
Se       2.68982963       3.64245478       7.50107515      -0.00196807       0.00279048       0.00340599
Se       2.68982683       3.64245405       4.65892243      -0.00197515       0.00277516      -0.00339115
Se       4.33074983       1.32184531       7.50107558       0.00197287      -0.00277734       0.00340703
