9
Lattice="4.717593463907997 1.5351045158141e-07 2.723704100826966 1.5725313392959126 4.447789586776729 2.7237040316679337 -6.20902853047474e-09 -8.90925478427843e-08 5.447408212408322" Properties=species:S:1:pos:R:3:forces:R:3 energy=-44.44900131225586 free_energy=-44.44900131225586 stress="-0.0001788727822713554 2.2355050077749183e-07 2.327922885569933e-07 2.2355050077749183e-07 -0.00017875625053420663 6.306776612063913e-08 2.327922885569933e-07 6.306776612063913e-08 -0.000179198948899284" pbc="T T T"
Ru       1.57253091       1.11194793       2.72370448      -0.00000226       0.00000704      -0.00000197
Ru       4.71759301       3.33584376       8.17110858      -0.00000306       0.00001198      -0.00003286
Ni       0.00000030       0.00000021      -0.00000088      -0.00000924      -0.00001929       0.00005041
S        1.67165007       1.18203320       5.44740887      -0.00460067      -0.00325894       0.00000720
S        4.61847539       3.26575484       5.44741041       0.00462192       0.00326359       0.00001006
S        3.88176830       1.18203393       4.17139426       0.00230434      -0.00326006      -0.00399163
S        2.40835597       3.26575554       6.72342237      -0.00229575       0.00323945       0.00397526
S        2.40835531       3.26575499       4.17139551      -0.00231248       0.00326481      -0.00399214
S        3.88176997       1.18203429       6.72342185       0.00229724      -0.00324818       0.00397533
