9
Lattice="5.1317191134600595 1.4172623333188036e-08 2.962799160463028 1.7105730125154688 4.8382310084870115 2.9627992274355828 -7.734669262544489e-08 2.7331933676657125e-08 5.925598454894446" Properties=species:S:1:pos:R:3:forces:R:3 energy=-48.92388916015625 free_energy=-48.92388916015625 stress="-3.143805588479154e-05 1.247541270288366e-08 -9.182833338172713e-08 1.247541270288366e-08 -3.146530070807785e-05 1.513538734343456e-07 -9.182833338172713e-08 1.513538734343456e-07 -3.147200186504051e-05" pbc="T T T"
Ru       1.71057337       1.20955783       2.96279998       0.00000107       0.00000094       0.00000731
Ru       5.13171927       3.62867400       8.88839956       0.00000157       0.00000592       0.00001176
Nb      -0.00000012       0.00000028      -0.00000078       0.00000418      -0.00001430       0.00000468
S        1.86537125       1.31901707       5.92559825      -0.00056702      -0.00040060      -0.00000371
S        4.97692026       3.51921436       5.92559784       0.00057191       0.00040469      -0.00000306
S        4.19903307       1.31901647       4.57825811       0.00028363      -0.00040686      -0.00049579
S        2.64325899       3.51921335       7.27293844      -0.00028738       0.00040427       0.00049973
S        2.64325898       3.51921473       4.57825804      -0.00028554       0.00040299      -0.00049663
S        4.19903311       1.31901605       7.27293780       0.00027707      -0.00039732       0.00047582
