9
Lattice="4.763725250694171 5.9397878550535133e-08 2.7503380368963355 1.587908432308982 4.491283533150765 2.7503381072001214 2.1161450208384857e-08 1.0106764625060054e-07 5.500676037139912" Properties=species:S:1:pos:R:3:forces:R:3 energy=-57.1247444152832 free_energy=-57.1247444152832 stress="-8.667005022289231e-05 -2.246731582999928e-07 2.1928977744778422e-08 -2.246731582999928e-07 -8.684149361215532e-05 7.820140268677278e-08 2.1928977744778422e-08 7.820140268677278e-08 -8.69250507093966e-05" pbc="T T T"
Ru       1.58791201       1.12283253       2.75032532       0.00003582       0.00014919      -0.00016004
Ru       4.76371275       3.36847503       8.25100617      -0.00014726       0.00015963      -0.00010766
Os       0.00000036      -0.00000009       0.00000063       0.00000627      -0.00001224       0.00000099
O        1.52565558       1.07879330       5.50068051      -0.00149240      -0.00114898       0.00006139
O        4.82598493       3.41248036       5.50067839       0.00155830       0.00102775       0.00004315
O        4.00089904       1.07879396       4.07159499       0.00077512      -0.00114392      -0.00128405
O        2.35073795       3.41247915       6.92976714      -0.00073420       0.00102457       0.00140814
O        2.35073611       3.41248313       4.07159152      -0.00074767       0.00105850      -0.00132616
O        4.00089618       1.07879762       6.92976364       0.00074602      -0.00111470       0.00136372
