9
Lattice="4.893116079830057 3.3687957790179265e-09 2.825042060628459 1.6310386378941613 4.613274510887578 2.8250421620550363 -1.2967488612850699e-08 1.1505228368486264e-07 5.650084143717231" Properties=species:S:1:pos:R:3:forces:R:3 energy=-48.995330810546875 free_energy=-48.995330810546875 stress="-0.0001033216030918993 -3.5623402006024207e-09 -1.8731753925749217e-07 -3.5623402006024207e-09 -0.00010325500625185668 -1.538559644131965e-07 -1.8731753925749217e-07 -1.538559644131965e-07 -0.00010340861626900733" pbc="T T T"
Ru       1.63103810       1.15331824       2.82504227      -0.00000506      -0.00000677       0.00000603
Ru       4.89311630       3.45995577       8.47512927       0.00000213      -0.00000347       0.00003174
Os      -0.00000045      -0.00000027      -0.00000017       0.00000081       0.00000068      -0.00000401
S        1.79544574       1.26957181       5.65008389       0.00880945       0.00622916      -0.00000677
S        4.72870880       3.34370305       5.65008347      -0.00880814      -0.00622821      -0.00000033
S        3.99539464       1.26957267       4.37994350      -0.00439805       0.00623512       0.00762761
S        2.52876070       3.34370304       6.92022387       0.00440061      -0.00622797      -0.00763810
S        2.52876239       3.34370314       4.37994298       0.00440711      -0.00623190       0.00762200
S        3.99539245       1.26957124       6.92022432      -0.00440931       0.00623310      -0.00763774
