9
Lattice="5.46119594360771 1.1118281992760235e-07 3.1530230624238054 1.8203988142398608 5.148864592557859 3.1530229558221814 3.5129109069365826e-07 1.178405271098936e-07 6.306045516393593" Properties=species:S:1:pos:R:3:forces:R:3 energy=-43.386924743652344 free_energy=-43.386924743652344 stress="1.2115243407606613e-05 1.0431244135133966e-07 -2.911859375842596e-08 1.0431244135133966e-07 1.2036987754981965e-05 5.785419432413619e-08 -2.911859375842596e-08 5.785419432413619e-08 1.186512326967204e-05" pbc="T T T"
Ru       1.82039396       1.28721227       3.15302304      -0.00004296      -0.00003593       0.00000446
Ru       5.46119655       3.86165032       9.45906757      -0.00000097       0.00001632      -0.00001293
Os      -0.00000029      -0.00000037      -0.00000083       0.00000436       0.00000427       0.00000967
Se       1.98379173       1.40275096       6.30604674      -0.00017095      -0.00012934       0.00000693
Se       5.29780404       3.74611340       6.30604735       0.00017101       0.00012523       0.00000874
Se       4.46930235       1.40275145       4.87103690       0.00010017      -0.00012648      -0.00013989
Se       2.81229521       3.74611645       7.74105487      -0.00007311       0.00013626       0.00013047
Se       2.81229350       3.74611404       4.87103607      -0.00008532       0.00012851      -0.00013804
Se       4.46930332       1.40275087       7.74105501       0.00009730      -0.00011879       0.00013107
