9
Lattice="5.231904427119491 4.4248486292365103e-07 3.020641604115884 1.7439684035751881 4.93268818589003 3.0206418742754217 -5.914399148991013e-07 -8.733459747902554e-08 6.041284232635675" Properties=species:S:1:pos:R:3:forces:R:3 energy=-38.50227355957031 free_energy=-38.50227355957031 stress="-4.885419002675917e-06 6.055278589656155e-08 2.3841994334361516e-07 6.055278589656155e-08 -5.41500094186631e-06 1.8525476264130702e-07 2.3841994334361516e-07 1.8525476264130702e-07 -4.980194262316218e-06" pbc="T T T"
Ru       1.74396856       1.23317775       3.02064573       0.00000507       0.00003083       0.00001697
Ru       5.23190539       3.69951509       9.06192292       0.00000787      -0.00000163      -0.00001281
Pd      -0.00000030      -0.00000056      -0.00000115       0.00000009       0.00000147       0.00000905
Se       1.98540952       1.40389935       6.04128358      -0.00142914      -0.00099647      -0.00000222
Se       4.99046319       3.52878722       6.04128436       0.00142485       0.00098687      -0.00000275
Se       4.23919664       1.40389714       4.74005765       0.00069964      -0.00100952      -0.00123316
Se       2.73667500       3.52879080       7.34250974      -0.00070342       0.00099844       0.00122398
Se       2.73667246       3.52878964       4.74005850      -0.00071055       0.00099653      -0.00122505
Se       4.23919837       1.40389782       7.34250948       0.00070569      -0.00100726       0.00122529
