9
Lattice="4.5951430262373165 -7.841470532202901e-07 2.6530059663153667 1.5317132353135077 4.332342113580655 2.653006602783033 -1.2523677386288192e-06 -1.0604701071688608e-07 5.306014101795459" Properties=species:S:1:pos:R:3:forces:R:3 energy=-44.316402435302734 free_energy=-44.316402435302734 stress="2.46532799792476e-05 3.8613279684796e-07 1.6650288898745202e-06 3.8613279684796e-07 2.763769225566648e-05 1.328585199189547e-06 1.6650288898745202e-06 1.328585199189547e-06 2.6131197955692187e-05" pbc="T T T"
Ru       1.53172291       1.08308143       2.65300766       0.00006353      -0.00003066       0.00001226
Ru       4.59514317       3.24926191       7.95900484       0.00001673       0.00004134      -0.00011020
P       -0.00000101       0.00000094       0.00000304      -0.00000886       0.00000733       0.00002628
S        1.65733689       1.17192586       5.30602990       0.00111389       0.00095010       0.00023109
S        4.46951159       3.16042166       5.30603960      -0.00118947      -0.00089550       0.00019791
S        3.76644834       1.17191507       4.08829970      -0.00075126       0.00088674       0.00094837
S        2.36038821       3.16043215       6.52371418       0.00056034      -0.00078887      -0.00108093
S        2.36039513       3.16041961       4.08830101       0.00073189      -0.00088727       0.00094587
S        3.76647528       1.17190623       6.52370536      -0.00053674       0.00071728      -0.00117081
