9
Lattice="5.367496563285702 -1.8699051958199434e-07 3.098925690800404 1.7891653220081005 5.060523600079288 3.0989257302752446 2.1878307131254968e-07 2.0304960331611833e-07 6.197851002657463" Properties=species:S:1:pos:R:3:forces:R:3 energy=-39.45109176635742 free_energy=-39.45109176635742 stress="-6.710160232614726e-05 7.378925914736101e-08 1.1786480236253283e-08 7.378925914736101e-08 -6.705009582219645e-05 -1.6955571169319228e-08 1.1786480236253283e-08 -1.6955571169319228e-08 -6.709435547236353e-05" pbc="T T T"
Ru       1.78916527       1.26512849       3.09892351      -0.00000278      -0.00001467      -0.00001673
Ru       5.36749644       3.79538875       9.29677515      -0.00000062      -0.00002762      -0.00001193
Pt      -0.00000005       0.00000013      -0.00000009      -0.00000122       0.00000452       0.00000584
Se       1.97259834       1.39484037       6.19785100      -0.00450385      -0.00317433      -0.00000186
Se       5.18406275       3.66568571       6.19785380       0.00449800       0.00318432       0.00001476
Se       4.38119873       1.39483992       4.80724633       0.00225738      -0.00317198      -0.00389341
Se       2.77546449       3.66568590       7.58845603      -0.00224844       0.00318420       0.00389597
Se       2.77546629       3.66568670       4.80724734      -0.00224328       0.00319153      -0.00389305
Se       4.38119601       1.39483847       7.58845693       0.00224456      -0.00317615       0.00390053
