9
Lattice="5.255539918778576 -1.0484119139850463e-07 3.0342873175556577 1.7518464579032174 4.954970656733915 3.0342874610464006 -9.666177008649694e-08 1.0738939860097366e-07 6.068574802534419" Properties=species:S:1:pos:R:3:forces:R:3 energy=-39.09480285644531 free_energy=-39.09480285644531 stress="1.1894231647602282e-05 -2.6958712595614998e-08 1.964322038361388e-08 -2.6958712595614998e-08 1.187085308629321e-05 5.209763642710641e-08 1.964322038361388e-08 5.209763642710641e-08 1.1922306839551311e-05" pbc="T T T"
Ru       1.75184499       1.23874229       3.03428939      -0.00001041      -0.00000273       0.00000859
Ru       5.25553900       3.71622743       9.10285889      -0.00000558      -0.00000540      -0.00001945
P       -0.00000008       0.00000015       0.00000002       0.00000279      -0.00000171      -0.00000032
Se       1.88563794       1.33334767       6.06857480      -0.00244856      -0.00173226       0.00000293
Se       5.12174866       3.62162312       6.06857571       0.00245270       0.00173238       0.00000317
Se       4.31272076       1.33334684       4.66729825       0.00122711      -0.00173524      -0.00211978
Se       2.69466662       3.62162431       7.46985172      -0.00122114       0.00173891       0.00212532
Se       2.69466507       3.62162247       4.66729765      -0.00122574       0.00173271      -0.00212359
Se       4.31272203       1.33334831       7.46985197       0.00122899      -0.00172669       0.00212297
