9
Lattice="5.1410227578747145 4.520839886810465e-08 2.9681713545275326 1.7136743575900768 4.847002847975251 2.9681712465476044 1.5167400641394887e-07 -2.4998143240316994e-08 5.936342446347996" Properties=species:S:1:pos:R:3:forces:R:3 energy=-43.20890426635742 free_energy=-43.20890426635742 stress="-9.92008499451913e-05 3.8507792510245054e-08 3.510825052899236e-08 3.8507792510245054e-08 -9.914876136463135e-05 -2.992310754734717e-08 3.510825052899236e-08 -2.992310754734717e-08 -9.923714969772846e-05" pbc="T T T"
Ru       1.71367193       1.21174997       2.96817176      -0.00001411      -0.00000331       0.00000234
Ru       5.14102283       3.63525228       8.90451428      -0.00000538      -0.00000047       0.00000337
Pt       0.00000026      -0.00000014      -0.00000005      -0.00000315       0.00000352       0.00000638
S        1.82787579       1.29250224       5.93634260      -0.00157899      -0.00112152       0.00000218
S        5.02682216       3.55450074       5.93634216       0.00158101       0.00112450      -0.00000295
S        4.22708625       1.29250303       4.55115845       0.00080296      -0.00112271      -0.00137132
S        2.62761191       3.55450044       7.32152684      -0.00078893       0.00111979       0.00136304
S        2.62761175       3.55449924       4.55115734      -0.00079393       0.00111771      -0.00137365
S        4.22708616       1.29250339       7.32152706       0.00080007      -0.00111759       0.00137174
