9
Lattice="4.407664405169063 -8.757365902466146e-08 2.544766244461732 1.469221396421474 4.155585996764015 2.5447662261071273 -5.744311368761785e-08 -6.309812073819616e-08 5.089532588417875" Properties=species:S:1:pos:R:3:forces:R:3 energy=-55.93703842163086 free_energy=-55.93703842163086 stress="-5.9781621530419216e-05 -1.37927145260619e-07 4.841088525608939e-07 -1.37927145260619e-07 -5.984061135677621e-05 4.2931770849463646e-07 4.841088525608939e-07 4.2931770849463646e-07 -6.027737254044041e-05" pbc="T T T"
Ru       1.46922592       1.03889760       2.54476229       0.00008005       0.00001268      -0.00007509
Ru       4.40766466       3.11668766       7.63430423       0.00001376      -0.00002458       0.00009785
P       -0.00000024       0.00000016      -0.00000012      -0.00000638      -0.00000119       0.00000576
O        1.37433962       0.97180635       5.08953327       0.00277317       0.00198376       0.00001175
O        4.50254462       3.18378056       5.08953161      -0.00279355      -0.00196469      -0.00001669
O        3.72049384       0.97180639       3.73497932      -0.00140357       0.00198627       0.00239134
O        2.15639013       3.18377936       6.44408499       0.00137019      -0.00199091      -0.00240993
O        2.15639240       3.18378110       3.73498004       0.00139523      -0.00196457       0.00240409
O        3.72049177       0.97180425       6.44408494      -0.00142896       0.00196338      -0.00240731
