9
Lattice="4.6716302489224715 3.115721247057596e-08 2.6971671460725375 1.5572101523761486 4.404455104266339 2.6971670767443237 8.273311064121766e-09 -7.905929292371904e-08 5.394334277815293" Properties=species:S:1:pos:R:3:forces:R:3 energy=-48.15367126464844 free_energy=-48.15367126464844 stress="0.0007530277362093329 6.090054682772461e-08 -6.533653063023337e-10 6.090054682772461e-08 0.0007525887340307236 1.2763052836817224e-07 -6.533653063023337e-10 1.2763052836817224e-07 0.00075266242492944" pbc="T T T"
Ru       1.55720535       1.10111449       2.69716498      -0.00006353       0.00000804      -0.00003229
Ru       4.67162849       3.30333801       8.09149697      -0.00003213      -0.00004429      -0.00005597
Pt       0.00000015       0.00000003       0.00000039       0.00000118       0.00000202      -0.00001290
O        1.56165251       1.10425544       5.39433471      -0.00513318      -0.00362455       0.00001096
O        4.66718884       3.30019953       5.39433639       0.00514721       0.00362138       0.00002515
O        3.89080686       1.10425550       4.04959936       0.00259748      -0.00361898      -0.00442125
O        2.33803770       3.30019997       6.73907158      -0.00255165       0.00363343       0.00445814
O        2.33803672       3.30020054       4.04959779      -0.00255284       0.00362645      -0.00442737
O        3.89080515       1.10425688       6.73907181       0.00258749      -0.00360370       0.00445541
