9
Lattice="4.943373962745237 -9.678913848934716e-08 2.854058104193292 1.6477912927098268 4.660656791747344 2.854057994990233 -7.692646514006491e-08 -1.881411219227634e-07 5.708116341627123" Properties=species:S:1:pos:R:3:forces:R:3 energy=-45.55753707885742 free_energy=-45.55753707885742 stress="1.1748827091651037e-05 5.637954991755123e-09 2.038371071932943e-08 5.637954991755123e-09 1.1902394362550694e-05 6.37427532979018e-08 2.038371071932943e-08 6.37427532979018e-08 1.1798377272498328e-05" pbc="T T T"
Ru       1.64779166       1.16516402       2.85405734       0.00000243      -0.00000211      -0.00000631
Ru       4.94337345       3.49549187       8.56217272      -0.00000155      -0.00000371      -0.00001409
Rh      -0.00000001      -0.00000002       0.00000004      -0.00000345      -0.00000413       0.00000483
S        1.79665228       1.27042450       5.70811605       0.00053740       0.00037581       0.00000160
S        4.79451293       3.39023198       5.70811704      -0.00052905      -0.00037211       0.00000640
S        4.04504775       1.27042503       4.41000474      -0.00026619       0.00037849       0.00046349
S        2.54611728       3.39023173       7.00622846       0.00026578      -0.00038087      -0.00045788
S        2.54611718       3.39023217       4.41000526       0.00026375      -0.00037438       0.00046515
S        4.04504830       1.27042480       7.00622826      -0.00026959       0.00038213      -0.00046253
