9
Lattice="4.687784068155028 1.2461475895574185e-07 2.706493061359925 1.5625948726998065 4.419685192673407 2.7064929473444055 -4.165938189032267e-08 -1.690974732660622e-07 5.412986194876069" Properties=species:S:1:pos:R:3:forces:R:3 energy=-59.51551818847656 free_energy=-59.51551818847656 stress="0.0003028179635293782 4.883272453071186e-08 -8.259356150119856e-07 4.883272453071186e-08 0.0003038097347598523 -5.024486426918884e-07 -8.259356150119856e-07 -5.024486426918884e-07 0.00030295830219984055" pbc="T T T"
Ru       1.56261714       1.10492512       2.70649978       0.00042933       0.00004560       0.00008117
Ru       4.68781052       3.31473786       8.11942625       0.00049161      -0.00046324      -0.00094641
Re       0.00000170      -0.00000055       0.00000117      -0.00000407       0.00000276       0.00000316
O        1.54763623       1.09436462       5.41298452      -0.00458789      -0.00290626      -0.00000239
O        4.70272742       3.32533549       5.41301154       0.00430930       0.00316596       0.00038632
O        3.91395153       1.09434937       4.04679962       0.00203323      -0.00314444      -0.00373816
O        2.33641044       3.32533633       6.77917706      -0.00229901       0.00313723       0.00385976
O        2.33640901       3.32533031       4.04679828      -0.00243896       0.00307816      -0.00368631
O        3.91395128       1.09436215       6.77919085       0.00206727      -0.00291562       0.00404286
