9
Lattice="5.65662281940034 -3.187972656268966e-08 3.265852711788822 1.8855409157988734 5.333115246084819 3.2658527013008123 1.744805674817728e-09 -1.161137168390494e-08 6.531705420555543" Properties=species:S:1:pos:R:3:forces:R:3 energy=-45.2022705078125 free_energy=-45.2022705078125 stress="0.00011693515261868015 2.1396431293396745e-08 2.817000677168835e-08 2.1396431293396745e-08 0.00011684845230774954 -2.4714076118925732e-08 2.817000677168835e-08 -2.4714076118925732e-08 0.00011690403334796429" pbc="T T T"
Ru       1.88554106       1.33327891       3.26585270      -0.00000015      -0.00000117      -0.00000079
Ru       5.65662281       3.99983624       9.79755822      -0.00000037       0.00000135      -0.00000092
Re      -0.00000010      -0.00000001       0.00000002       0.00000063       0.00000003      -0.00000025
Se       1.97617327       1.39736554       6.53170544       0.00483263       0.00341713       0.00000001
Se       5.56599048       3.93574972       6.53170533      -0.00483334      -0.00341853       0.00000029
Se       4.66853614       1.39736552       4.97726892      -0.00241786       0.00342041       0.00418791
Se       2.87362758       3.93574959       8.08614182       0.00241745      -0.00341848      -0.00418639
Se       2.87362759       3.93574972       4.97726902       0.00241685      -0.00341853       0.00418639
Se       4.66853610       1.39736553       8.08614185      -0.00241625       0.00341809      -0.00418621
