9
Lattice="4.639770725841487 3.2975827420262303e-07 2.6787727635921397 1.5465904256629874 4.374418167463845 2.6787729838800245 1.7665498308507068e-07 3.947103616283096e-07 5.357545221208946" Properties=species:S:1:pos:R:3:forces:R:3 energy=-49.38985061645508 free_energy=-49.38985061645508 stress="0.00012634031008929014 -4.7481872655907864e-08 -2.712854438868817e-07 -4.7481872655907864e-08 0.00012554082786664367 -1.9114419558263762e-07 -2.712854438868817e-07 -1.9114419558263762e-07 0.0001258583361050114" pbc="T T T"
Ru       1.54658259       1.09361331       2.67877304      -0.00012668       0.00012159       0.00001375
Ru       4.63976831       3.28081467       8.03632762      -0.00004999       0.00001389       0.00013951
Rh      -0.00000055      -0.00000030       0.00000032       0.00000226       0.00000067      -0.00000756
O        1.57560425       1.11411872       5.35754623       0.00045374       0.00029327      -0.00000050
O        4.61076134       3.26029276       5.35754229      -0.00037891      -0.00038412      -0.00005740
O        3.85197071       1.11412226       4.04328312      -0.00019290       0.00034295       0.00036964
O        2.33439204       3.26029840       6.67180529       0.00021620      -0.00033213      -0.00037923
O        2.33439431       3.26029843       4.04328413       0.00025633      -0.00033386       0.00034928
O        3.85197185       1.11411798       6.67180193      -0.00018024       0.00027788      -0.00042754
