9
Lattice="5.022383115047909 -1.0647992312340746e-07 2.899673768319056 1.6741276081697711 4.73514773909702 2.8996737621805524 5.117727718229975e-08 2.8669738721741412e-08 5.799347447996396" Properties=species:S:1:pos:R:3:forces:R:3 energy=-50.79484176635742 free_energy=-50.79484176635742 stress="4.285587419872172e-05 6.079228787037039e-10 -8.2540672963205e-08 6.079228787037039e-10 4.29136780439876e-05 4.496749639315567e-08 -8.2540672963205e-08 4.496749639315567e-08 4.3063144403276965e-05" pbc="T T T"
Ru       1.67412764       1.18378666       2.89967354      -0.00000072       0.00000035       0.00000073
Ru       5.02238377       3.55136130       8.69902317       0.00000310       0.00000208       0.00001516
Re       0.00000001       0.00000015       0.00000052       0.00000072      -0.00000834      -0.00000866
S        1.83138799       1.29498714       5.79934706       0.00596559       0.00421631      -0.00000615
S        4.86512210       3.44016060       5.79934660      -0.00595903      -0.00421488      -0.00000645
S        4.10668955       1.29498681       4.48570241      -0.00298035       0.00421524       0.00516772
S        2.58982129       3.44016013       7.11299193       0.00297129      -0.00420904      -0.00515580
S        2.58982219       3.44016072       4.48570225       0.00298440      -0.00421572       0.00516021
S        4.10668830       1.29498689       7.11299260      -0.00298536       0.00421429      -0.00516701
