9
Lattice="5.1946987462598235 5.200930973736482e-07 2.999160534157558 1.7315665602597374 4.897608874733545 2.9991608439211155 5.599028090155047e-08 4.189725072396389e-07 5.998320971337191" Properties=species:S:1:pos:R:3:forces:R:3 energy=-41.04238510131836 free_energy=-41.04238510131836 stress="2.139844946213998e-05 -2.0788236554381e-07 -4.5378376967164513e-07 -2.0788236554381e-07 2.116495306836441e-05 -1.3047096558693738e-07 -4.5378376967164513e-07 -1.3047096558693738e-07 2.0749170289491303e-05" pbc="T T T"
Ru       1.73156033       1.22440025       2.99915991      -0.00003577      -0.00001925       0.00000724
Ru       5.19470229       3.67320485       8.99749185       0.00001341      -0.00001583       0.00006098
Rh      -0.00000074      -0.00000019      -0.00000277       0.00001354       0.00000656       0.00000745
Se       1.95654119       1.38348488       5.99832023       0.00047469       0.00033909      -0.00001512
Se       4.96972447       3.51412639       5.99831944      -0.00047719      -0.00033361      -0.00000606
Se       4.21643229       1.38348506       4.69357544      -0.00022134       0.00034297       0.00039953
Se       2.70983329       3.51412607       7.30306505       0.00022808      -0.00033706      -0.00042659
Se       2.70983903       3.51412868       4.69357435       0.00024921      -0.00032854       0.00039846
Se       4.21642941       1.38348323       7.30306610      -0.00024435       0.00034577      -0.00042659
