9
Lattice="4.695199038491845 -2.468838443885232e-07 2.7107740542471666 1.5650661315179106 4.426676821906176 2.7107740228653885 -7.021764402468155e-07 -5.349483782797686e-07 5.421549324699615" Properties=species:S:1:pos:R:3:forces:R:3 energy=-47.6698112487793 free_energy=-47.6698112487793 stress="0.0002393952163401991 9.35439885552114e-08 1.627737219678238e-06 9.35439885552114e-08 0.00023776304442435503 1.1295728654658888e-06 1.627737219678238e-06 1.1295728654658888e-06 0.00023966241860762239" pbc="T T T"
Ru       1.56506885       1.10667400       2.71077857       0.00004731       0.00008476       0.00007453
Ru       4.69519814       3.31999681       8.13229866      -0.00000413      -0.00016754      -0.00040534
Sn       0.00000012       0.00000001      -0.00000032      -0.00000097       0.00000609      -0.00000171
O        1.62401734       1.14835555       5.42154790       0.00106281       0.00079834      -0.00002460
O        4.63624605       3.27832245       5.42156098      -0.00109023      -0.00076872       0.00018816
O        3.88318921       1.14835414       4.11721618      -0.00056061       0.00075716       0.00095397
O        2.37707687       3.27832119       6.72588398       0.00059038      -0.00077897      -0.00089306
O        2.37706981       3.27831785       4.11721572       0.00045827      -0.00082332       0.00095880
O        3.88319142       1.14836215       6.72588750      -0.00050321       0.00089204      -0.00085014
