9
Lattice="4.700085414818121 8.027833267192428e-09 2.7135960615809505 1.5666951460955802 4.4312838563383075 2.713596061140513 -7.82620618155288e-08 -5.587897735320381e-08 5.427192258715962" Properties=species:S:1:pos:R:3:forces:R:3 energy=-43.93726348876953 free_energy=-43.93726348876953 stress="0.00016344210598617792 -1.7627301929223904e-07 4.61106111515619e-07 -1.7627301929223904e-07 0.00016300298739224672 3.658671801076707e-07 4.61106111515619e-07 3.658671801076707e-07 0.00016301096184179187" pbc="T T T"
Ru       1.56669202       1.10782241       2.71359401      -0.00002138       0.00001017      -0.00002901
Ru       4.70008758       3.32346186       8.14077539       0.00001162      -0.00000608      -0.00009844
Si       0.00000062      -0.00000037       0.00000348       0.00000369      -0.00000049       0.00004208
S        1.68768691       1.19337384       5.42719392      -0.00014400      -0.00011343       0.00002819
S        4.57909504       3.23790847       5.42719586       0.00015199       0.00010735       0.00000811
S        3.85623988       1.19337301       4.17517695       0.00006613      -0.00011069      -0.00011981
S        2.41053742       3.23790994       6.67920949      -0.00008139       0.00010270       0.00013560
S        2.41053600       3.23790842       4.17517818      -0.00008082       0.00010443      -0.00011444
S        3.85624687       1.19337784       6.67921063       0.00009391      -0.00009388       0.00014746
