9
Lattice="4.399473749121377 -1.463062051692552e-08 2.5400372582609365 1.4664911967264007 4.147863793156381 2.5400373261345583 -1.6640338008388042e-08 7.13613675616546e-08 5.080074545343771" Properties=species:S:1:pos:R:3:forces:R:3 energy=-56.13459014892578 free_energy=-56.13459014892578 stress="0.000617363431956619 -2.023569933840008e-08 -5.433701844026473e-08 -2.023569933840008e-08 0.0006176886381581426 5.566565874914886e-09 -5.433701844026473e-08 5.566565874914886e-09 0.0006174756563268602" pbc="T T T"
Ru       1.46649279       1.03696860       2.54003621       0.00002911       0.00004325      -0.00002232
Ru       4.39947384       3.11089183       7.62011239       0.00000148      -0.00011579       0.00001166
Si      -0.00000000       0.00000016       0.00000009       0.00000296      -0.00000431       0.00000661
O        1.41586333       1.00116900       5.08007479      -0.00136507      -0.00092161       0.00000710
O        4.45010084       3.14669628       5.08007409       0.00134885       0.00094813      -0.00000545
O        3.69154182       1.00116847       3.76621138       0.00067824      -0.00092483      -0.00118077
O        2.17442270       3.14669575       6.39393732      -0.00068772       0.00094831       0.00117600
O        2.17442363       3.14669598       3.76621141      -0.00067466       0.00094593      -0.00118208
O        3.69154108       1.00116931       6.39393901       0.00066584      -0.00091910       0.00118899
