9
Lattice="4.6063619087937395 -1.3919000713293403e-07 2.659484521930926 1.5354538805888782 4.3429180233591635 2.659484448802994 1.3802350199113444e-06 8.864102489831875e-07 5.318966653224443" Properties=species:S:1:pos:R:3:forces:R:3 energy=-41.59945297241211 free_energy=-41.59945297241211 stress="0.0003760924155358225 7.435774591613153e-07 -2.043707581833587e-06 7.435774591613153e-07 0.0003773522621486336 -1.8313118061996647e-06 -2.043707581833587e-06 -1.8313118061996647e-06 0.0003783425490837544" pbc="T T T"
Ru       1.53546873       1.08572757       2.65946746       0.00018332      -0.00003105      -0.00021234
Ru       4.60636611       3.25718743       7.97845746       0.00002729      -0.00001598       0.00008770
Se      -0.00000202       0.00000052       0.00000131      -0.00003165       0.00001056      -0.00000118
S        1.66721061       1.17889836       5.31897184       0.00550026       0.00391036       0.00005017
S        4.47460169       3.16402284       5.31896741      -0.00555986      -0.00389153      -0.00001427
S        3.77275354       1.17889724       4.10333224      -0.00278741       0.00393277       0.00479209
S        2.36905837       3.16402123       6.53460559       0.00272322      -0.00391483      -0.00475979
S        2.36906028       3.16402354       4.10333317       0.00276288      -0.00389266       0.00480115
S        3.77275119       1.17889639       6.53460614      -0.00281739       0.00389194      -0.00474346
