9
Lattice="5.384921679951276 3.388345036581971e-08 3.108985934530021 1.7949739159120857 5.076952876752189 3.1089859507257906 -1.4845818365624206e-08 9.338111964026446e-09 6.2179718947737" Properties=species:S:1:pos:R:3:forces:R:3 energy=-38.68115234375 free_energy=-38.68115234375 stress="1.1663154509733431e-05 1.3045364788411007e-09 -1.7777614047531642e-08 1.3045364788411007e-09 1.1551723218872212e-05 -3.159033257205124e-09 -1.7777614047531642e-08 -3.159033257205124e-09 1.1600544894463383e-05" pbc="T T T"
Ru       1.79497309       1.26923992       3.10898647      -0.00000511       0.00001265       0.00000603
Ru       5.38492214       3.80771506       9.32695976       0.00000200       0.00000400       0.00001325
Si      -0.00000022       0.00000005      -0.00000021       0.00000241      -0.00000042       0.00000185
Se       1.88492927       1.33284614       6.21797153      -0.00032582      -0.00023177      -0.00000164
Se       5.29496677       3.74410609       6.21797126       0.00032794       0.00022505      -0.00000425
Se       4.44245737       1.33284672       4.74138213       0.00016430      -0.00022965      -0.00028481
Se       2.73743788       3.74410625       7.69456145      -0.00016578       0.00022574       0.00027990
Se       2.73743857       3.74410607       4.74138207      -0.00016315       0.00022870      -0.00028434
Se       4.44245745       1.33284535       7.69456067       0.00016312      -0.00023419       0.00027410
