9
Lattice="4.596837777966998 -2.3735771609195984e-08 2.6539853593099707 1.532279193612637 4.333940324134212 2.653985434362148 -1.614862985613646e-07 -2.2268291723968458e-08 5.307970998322416" Properties=species:S:1:pos:R:3:forces:R:3 energy=-47.963157653808594 free_energy=-47.963157653808594 stress="-0.0006227766862139106 -2.6158055277392123e-08 5.6866195308202805e-08 -2.6158055277392123e-08 -0.0006226554978638887 3.624247213451781e-08 5.6866195308202805e-08 3.624247213451781e-08 -0.0006227280828170478" pbc="T T T"
Ru       1.53227917       1.08348468       2.65398625      -0.00000681      -0.00000437       0.00000772
Ru       4.59683248       3.25045638       7.96194850      -0.00007435       0.00001426      -0.00010465
Se      -0.00000093      -0.00000008      -0.00000008      -0.00001475       0.00000212      -0.00001718
O        1.48838838       1.05244802       5.30797106       0.00037527       0.00024092       0.00000132
O        4.64073004       3.28149154       5.30797386      -0.00035012      -0.00025320       0.00004304
O        3.85264439       1.05244772       3.94296808      -0.00017285       0.00024092       0.00032997
O        2.27647488       3.28149170       6.67297631       0.00021368      -0.00025082      -0.00028920
O        2.27647399       3.28149132       3.94296671       0.00019485      -0.00025892       0.00031877
O        3.85264489       1.05245001       6.67297665      -0.00016457       0.00026858      -0.00028884
