9
Lattice="4.40898727873296 6.446099322266285e-09 2.5455301054705193 1.4696624153201128 4.156833190827435 2.545530134918249 -4.1124802239029405e-08 6.986316803909562e-09 5.091060282171322" Properties=species:S:1:pos:R:3:forces:R:3 energy=-52.15064239501953 free_energy=-52.15064239501953 stress="-0.00011451157479314134 1.0862370913855557e-07 1.6593038765222445e-07 1.0862370913855557e-07 -0.00011466025898698717 1.1319544768184642e-07 1.6593038765222445e-07 1.1319544768184642e-07 -0.00011475577775854617" pbc="T T T"
Ru       1.46966208       1.03921060       2.54553077      -0.00000411       0.00002691       0.00001105
Ru       4.40898647       3.11762748       7.63659432      -0.00000748       0.00003303       0.00005043
S        0.00000005       0.00000002      -0.00000005       0.00000175      -0.00001551       0.00000371
O        1.33203618       0.94189035       5.09105935       0.00342357       0.00240660      -0.00001059
O        4.54661429       3.21494100       5.09105982      -0.00340521      -0.00242102      -0.00000950
O        3.74296945       0.94189161       3.69910577      -0.00170654       0.00241458       0.00295615
O        2.13567973       3.21494070       6.48301381       0.00170624      -0.00243461      -0.00296593
O        2.13568093       3.21494162       3.69910611       0.00170934      -0.00241804       0.00295269
O        3.74296955       0.94188965       6.48301248      -0.00171804       0.00240827      -0.00298798
