9
Lattice="5.186960625310177 -3.392597644653741e-08 2.9946932505581643 1.7289868477443349 4.890313541876131 2.9946932425445536 -3.6342506475987006e-08 -3.5512640387569473e-08 5.9893865640634285" Properties=species:S:1:pos:R:3:forces:R:3 energy=-50.92061996459961 free_energy=-50.92061996459961 stress="-7.306663610506803e-05 2.540893051516946e-09 5.08771424989618e-09 2.540893051516946e-09 -7.307916530407965e-05 6.338831237684417e-09 5.08771424989618e-09 6.338831237684417e-09 -7.301638834178448e-05" pbc="T T T"
Ru       1.72898686       1.22257815       2.99469388       0.00000046       0.00000024       0.00000331
Ru       5.18696024       3.66773504       8.98407769      -0.00000294      -0.00000039      -0.00001421
Ta      -0.00000005       0.00000014       0.00000045       0.00000478      -0.00000096      -0.00000581
S        1.88076968       1.32990481       5.98938563      -0.00432914      -0.00306180      -0.00000571
S        5.03517797       3.56040865       5.98938781       0.00432575       0.00305820       0.00000783
S        4.24657570       1.32990495       4.62348754       0.00216228      -0.00305724      -0.00374481
S        2.66937217       3.56040870       7.35528587      -0.00216311       0.00306469       0.00375307
S        2.66937160       3.56040857       4.62348758      -0.00216165       0.00305915      -0.00374460
S        4.24657558       1.32990485       7.35528579       0.00216404      -0.00306225       0.00375065
