9
Lattice="5.594707980262942 3.007896590883351e-08 3.2301062095650916 1.8649026860916584 5.274741219655835 3.23010621364358 2.6239432849060946e-08 2.3549189547903304e-08 6.46021237368216" Properties=species:S:1:pos:R:3:forces:R:3 energy=-45.5543327331543 free_energy=-45.5543327331543 stress="-0.00010051901335828006 3.391516756323654e-08 2.9010738700208094e-08 3.391516756323654e-08 -0.00010049151023849845 -2.2570528557253056e-08 2.9010738700208094e-08 -2.2570528557253056e-08 -0.00010058374027721584" pbc="T T T"
Ru       1.86490085       1.31868564       3.23010608      -0.00001630       0.00000196      -0.00000016
Ru       5.59470787       3.95605555       9.69031917      -0.00000073      -0.00000211       0.00000577
Ta       0.00000025      -0.00000034      -0.00000005      -0.00000389       0.00000544       0.00000439
Se       2.00087990       1.41483627       6.46021230      -0.00440337      -0.00311022       0.00000092
Se       5.45873117       3.85990492       6.46021199       0.00440510       0.00310639      -0.00000406
Se       4.59426843       1.41483589       4.96291939       0.00220608      -0.00311112      -0.00381003
Se       2.86534290       3.85990570       7.95750569      -0.00219482       0.00310909       0.00380561
Se       2.86534306       3.85990577       4.96291914      -0.00219726       0.00311394      -0.00381032
Se       4.59426830       1.41483568       7.95750546       0.00220546      -0.00311353       0.00380823
