9
Lattice="4.8363954527573725 1.2553668410617906e-07 2.7922946982999552 1.6121318004201206 4.559799157724064 2.7922949330322173 -3.2379691567189746e-07 5.852812650356633e-08 5.584589957432632" Properties=species:S:1:pos:R:3:forces:R:3 energy=-47.752010345458984 free_energy=-47.752010345458984 stress="-3.404344170121476e-05 -8.057261879912403e-08 1.1430898183562022e-07 -8.057261879912403e-08 -3.4436245186952874e-05 7.835571302905464e-09 1.1430898183562022e-07 7.835571302905464e-09 -3.427952105994336e-05" pbc="T T T"
Ru       1.61212967       1.13994894       2.79229413      -0.00001605      -0.00000484      -0.00001672
Ru       4.83639591       3.41984988       8.37687501       0.00000192       0.00000031      -0.00007821
Ti       0.00000066      -0.00000010       0.00000198       0.00000076       0.00000928       0.00002671
S        1.75214991       1.23895673       5.58459050      -0.00068575      -0.00049454       0.00001185
S        4.69637771       3.32084290       5.58459189       0.00068152       0.00048465       0.00001672
S        3.96032051       1.23895670       4.30970249       0.00035089      -0.00048894      -0.00057930
S        2.48820549       3.32084282       6.85947943      -0.00034177       0.00048530       0.00059736
S        2.48820564       3.32084100       4.30970260      -0.00034636       0.00048202      -0.00058371
S        3.96032207       1.23895868       6.85948019       0.00035506      -0.00047272       0.00060534
