9
Lattice="4.671711761824701 7.751657728318564e-09 2.697214324641348 1.5572372052280274 4.404532325110667 2.6972144216741367 -3.4633051420207926e-08 9.435110174644657e-08 5.394428709268933" Properties=species:S:1:pos:R:3:forces:R:3 energy=-61.70420837402344 free_energy=-61.70420837402344 stress="-0.00022928703401703387 -2.4579719593020855e-08 -5.1430465219937105e-08 -2.4579719593020855e-08 -0.0002296750171808526 9.733865624639293e-08 -5.1430465219937105e-08 9.733865624639293e-08 -0.00022945234377402812" pbc="T T T"
Ru       1.55723033       1.10113352       2.69721420      -0.00013008       0.00001186      -0.00000601
Ru       4.67171134       3.30338010       8.09164477      -0.00000155      -0.00035768       0.00003298
Ta      -0.00000055      -0.00000084      -0.00000048       0.00000389       0.00001495       0.00000119
O        1.60199304       1.13278908       5.39442801      -0.00618762      -0.00422588      -0.00000736
O        4.62695508       3.27174768       5.39442951       0.00617558       0.00431690      -0.00000310
O        3.87071651       1.13278875       4.08458174       0.00312912      -0.00423750      -0.00535887
O        2.35823692       3.27175172       6.70427270      -0.00306076       0.00436324       0.00531787
O        2.35823730       3.27175341       4.08458525      -0.00304124       0.00438023      -0.00531125
O        3.87071545       1.13278612       6.70427421       0.00311255      -0.00426629       0.00533426
