9
Lattice="4.287089708671612 -6.670221355710037e-08 2.4751522849409997 1.4290298665847778 4.041906924594098 2.475152238900154 -4.341862519099141e-08 -8.70898921799723e-08 4.950304645085235" Properties=species:S:1:pos:R:3:forces:R:3 energy=-56.113059997558594 free_energy=-56.113059997558594 stress="-9.686674275144469e-06 -7.551496850055628e-08 2.481820899902232e-07 -7.551496850055628e-08 -9.682456948212348e-06 2.9564239412138704e-07 2.481820899902232e-07 2.9564239412138704e-07 -9.258508725906722e-06" pbc="T T T"
Ru       1.42902826       1.01047451       2.47515372      -0.00004210      -0.00005639       0.00002470
Ru       4.28708689       3.03142746       7.42545551      -0.00006632      -0.00006481      -0.00002402
Ti      -0.00000008      -0.00000031      -0.00000021      -0.00000104       0.00000640       0.00000009
O        1.51005464       1.06776956       4.95030435      -0.00191152      -0.00135189      -0.00000418
O        4.20606512       2.97413825       4.95030485       0.00191814       0.00137430       0.00000433
O        3.53206347       1.06777059       3.78289733       0.00098318      -0.00133443      -0.00166929
O        2.18405831       2.97413834       6.11771176      -0.00093180       0.00138187       0.00166225
O        2.18405747       2.97413769       3.78289740      -0.00094250       0.00136834      -0.00166017
O        3.53206410       1.06777091       6.11771186       0.00099370      -0.00132316       0.00166541
