9
Lattice="5.525441625483968 4.110974133451288e-08 3.1901152616392543 1.8418139441994437 5.209436281854846 3.1901152091936718 1.0317561854448085e-07 8.723696348487974e-09 6.3802303445731345" Properties=species:S:1:pos:R:3:forces:R:3 energy=-42.47299575805664 free_energy=-42.47299575805664 stress="-8.93870455911383e-05 -2.0101579067954845e-08 -1.0818045126370635e-08 -2.0101579067954845e-08 -8.944681758293882e-05 -6.663744045454223e-08 -1.0818045126370635e-08 -6.663744045454223e-08 -8.93996621016413e-05" pbc="T T T"
Ru       1.84181448       1.30235945       3.19011568       0.00000412       0.00000524       0.00000555
Ru       5.52544064       3.90707879       9.57034461      -0.00000937       0.00001316      -0.00000629
Ti      -0.00000017       0.00000020       0.00000011       0.00000113      -0.00000710       0.00000052
Se       1.95543448       1.38269976       6.38023028      -0.00109208      -0.00078295       0.00000013
Se       5.41182144       3.82673605       6.38023058       0.00109838       0.00077793       0.00000092
Se       4.54772457       1.38270000       4.88357071       0.00054574      -0.00077960      -0.00094783
Se       2.81953116       3.82673568       7.87689049      -0.00054603       0.00077502       0.00095540
Se       2.81953093       3.82673492       4.88357054      -0.00055174       0.00077573      -0.00095841
Se       4.54772516       1.38270049       7.87689029       0.00054986      -0.00077727       0.00094987
