9
Lattice="4.582309766092549 -7.906287239236988e-08 2.6455978835166016 1.5274364643822587 4.320243348315212 2.645597969727812 7.038941420245165e-08 1.5535955792204922e-07 5.291195645115153" Properties=species:S:1:pos:R:3:forces:R:3 energy=-54.63153076171875 free_energy=-54.63153076171875 stress="-5.81562562729232e-05 -3.7240717176700855e-08 -2.568127683844068e-07 -3.7240717176700855e-08 -5.821474769618362e-05 -1.1929485310702148e-07 -2.568127683844068e-07 -1.1929485310702148e-07 -5.793084346805699e-05" pbc="T T T"
Ru       1.52742206       1.08006289       2.64559363      -0.00029427       0.00002775      -0.00005798
Ru       4.58229432       3.24017105       7.93681773      -0.00031120      -0.00022352       0.00046690
V       -0.00000108      -0.00000030       0.00000126      -0.00001495      -0.00000478       0.00000589
O        1.53529073       1.08561188       5.29119607       0.00070447       0.00047326       0.00001137
O        4.57446199       3.23462979       5.29118460      -0.00057155      -0.00048602      -0.00019493
O        3.81467305       1.08561934       3.97519237      -0.00016266       0.00060278       0.00049263
O        2.29508086       3.23462953       6.60719487       0.00035855      -0.00047076      -0.00058573
O        2.29509004       3.23463422       3.97519241       0.00050193      -0.00041622       0.00047910
O        3.81467337       1.08561560       6.60719293      -0.00021017       0.00049770      -0.00061744
