9
Lattice="4.876746699732575 1.1399381545556709e-07 2.8155910942974693 1.6255823309437913 4.597840812401631 2.8155911112279166 1.1536903152699977e-07 1.0231374364631183e-07 5.631181988769919" Properties=species:S:1:pos:R:3:forces:R:3 energy=-48.59860610961914 free_energy=-48.59860610961914 stress="-8.873355545802042e-05 9.970028713723877e-08 -3.40223778039217e-08 9.970028713723877e-08 -8.880077075446025e-05 1.961153195395582e-08 -3.40223778039217e-08 1.961153195395582e-08 -8.89313014340587e-05" pbc="T T T"
Ru       1.62558232       1.14945969       2.81559135      -0.00000051      -0.00000817       0.00000483
Ru       4.87674657       3.44838006       8.44677350      -0.00000263      -0.00000620       0.00000310
V       -0.00000001       0.00000021      -0.00000007      -0.00000265       0.00000668       0.00000291
S        1.75755590       1.24277983       5.63118210       0.00247037       0.00175178       0.00000286
S        4.74477306       3.35506186       5.63118239      -0.00247329      -0.00174195       0.00000295
S        3.99796883       1.24277977       4.33767870      -0.00123385       0.00174576       0.00213653
S        2.50435987       3.35506221       6.92468551       0.00124183      -0.00175315      -0.00215167
S        2.50436052       3.35506130       4.33767815       0.00123876      -0.00175071       0.00214398
S        3.99796955       1.24277918       6.92468500      -0.00123820       0.00175577      -0.00214511
