9
Lattice="5.40651135046444 -1.2381096036722379e-07 3.1214513788302574 1.8021703743133368 5.097307792634672 3.121451308009088 7.290596729048078e-08 -3.518560235607406e-08 6.2429026313836475" Properties=species:S:1:pos:R:3:forces:R:3 energy=-42.64509201049805 free_energy=-42.64509201049805 stress="1.844752114266157e-05 -1.6031698635288194e-07 -8.504706272560725e-09 -1.6031698635288194e-07 1.8625649317982607e-05 -8.25732648923605e-10 -8.504706272560725e-09 -8.25732648923605e-10 1.861511373135727e-05" pbc="T T T"
Ru       1.80216399       1.27432633       3.12145265      -0.00005829      -0.00000472       0.00001355
Ru       5.40650836       3.82297930       9.36435604      -0.00002786      -0.00001593       0.00001793
V       -0.00000001      -0.00000015      -0.00000098       0.00001009       0.00000280       0.00000194
Se       1.93143882       1.36573314       6.24290334      -0.00030670      -0.00022259       0.00000234
Se       5.27724482       3.73157410       6.24290095       0.00031787       0.00021309      -0.00001414
Se       4.44079391       1.36573447       4.79412708       0.00017978      -0.00022057      -0.00027633
Se       2.76789222       3.73157509       7.69167815      -0.00014515       0.00023612       0.00027272
Se       2.76789020       3.73157352       4.79412659      -0.00015344       0.00022975      -0.00028178
Se       4.44079496       1.36573450       7.69167757       0.00018403      -0.00021791       0.00026393
