9
Lattice="5.633986748693464 9.631915252971331e-08 3.252783692102513 1.877995713186224 5.311773428582599 3.252783623724949 2.238958957491762e-07 7.457318082078269e-08 6.505566996405974" Properties=species:S:1:pos:R:3:forces:R:3 energy=-45.83297348022461 free_energy=-45.83297348022461 stress="-8.231038918893319e-06 6.705274557816665e-08 1.6356038301523768e-08 6.705274557816665e-08 -8.196417184080929e-06 -7.357316178513429e-08 1.6356038301523768e-08 -7.357316178513429e-08 -8.25232382339891e-06" pbc="T T T"
Ru       1.87799624       1.32794378       3.25278275       0.00000736       0.00000763      -0.00000557
Ru       5.63398766       3.98383028       9.75835385       0.00000632       0.00000102       0.00002660
W        0.00000004       0.00000020      -0.00000016       0.00000097      -0.00000009       0.00000350
Se       1.97457731       1.39623785       6.50556769      -0.00081877      -0.00057420       0.00000414
Se       5.53740568       3.91553647       6.50556605       0.00081015       0.00057551      -0.00001283
Se       4.64669777       1.39623713       4.96281731       0.00040219      -0.00056893      -0.00070459
Se       2.86528365       3.91553620       8.04831661      -0.00040826       0.00056712       0.00069748
Se       2.86528444       3.91553594       4.96281696      -0.00040355       0.00057365      -0.00070763
Se       4.64669787       1.39623658       8.04831627       0.00040372      -0.00058179       0.00069901
