9
Lattice="4.693049773472059 -6.767522593158446e-08 2.709533449812766 1.5643500329084594 4.424649059306925 2.709533151514489 3.3313442738135275e-07 -1.2977765595119132e-07 5.419066322619786" Properties=species:S:1:pos:R:3:forces:R:3 energy=-55.25548553466797 free_energy=-55.25548553466797 stress="0.0006988939130678773 7.868676732414315e-08 7.378687882919621e-09 7.868676732414315e-08 0.0006990182446315885 5.39410365263393e-08 7.378687882919621e-09 5.39410365263393e-08 0.0006988387904129922" pbc="T T T"
Ru       1.56435689       1.10615609       2.70952945       0.00012288      -0.00010553      -0.00006579
Ru       4.69304802       3.31848864       8.12859626      -0.00004135       0.00003409      -0.00006474
W       -0.00000018       0.00000016      -0.00000025      -0.00000681      -0.00000117       0.00000767
O        1.58036381       1.11748450       5.41906857      -0.00671369      -0.00474679       0.00002983
O        4.67703590       3.30716461       5.41906809       0.00669432       0.00477833       0.00002117
O        3.90286669       1.11748332       4.07816971       0.00333205      -0.00477141      -0.00579226
O        2.35453312       3.30716691       6.75996360      -0.00334698       0.00478065       0.00580907
O        2.35453285       3.30716410       4.07816702      -0.00334144       0.00475872      -0.00580585
O        3.90286342       1.11748703       6.75996948       0.00330123      -0.00472695       0.00586158
