9
Lattice="5.004679122622677 7.965333876266315e-08 2.889452536083871 1.668226415753829 4.718456834010847 2.88945259419698 -5.854350771606608e-08 2.9777232087165848e-08 5.778905173568096" Properties=species:S:1:pos:R:3:forces:R:3 energy=-51.12205123901367 free_energy=-51.12205123901367 stress="-7.169331365730613e-05 -2.0880603912587503e-08 -1.6142992720347138e-08 -2.0880603912587503e-08 -7.169609307311475e-05 1.8817880587107538e-08 -1.6142992720347138e-08 1.8817880587107538e-08 -7.170090975705534e-05" pbc="T T T"
Ru       1.66822682       1.17961481       2.88945361       0.00000331       0.00000250       0.00001101
Ru       5.00467945       3.53884210       8.66835969       0.00000666      -0.00000281       0.00001723
W       -0.00000011       0.00000016      -0.00000091      -0.00000575       0.00000608       0.00000037
S        1.81785305       1.28541679       5.77890536       0.00006205       0.00004566      -0.00000027
S        4.85505243       3.43304015       5.77890425      -0.00006968      -0.00004870      -0.00000643
S        4.09575187       1.28541620       4.46375942      -0.00003344       0.00004238       0.00004750
S        2.57715277       3.43304021       7.09405030       0.00003657      -0.00004840      -0.00006449
S        2.57715281       3.43304042       4.46375928       0.00003254      -0.00004452       0.00005352
S        4.09575279       1.28541688       7.09405016      -0.00003257       0.00004762      -0.00005883
