9
Lattice="5.3159683765317824 -7.208767867173039e-08 3.06917585895625 1.7719894430603433 5.011942975896592 3.0691757685755845 1.4203685599558992e-07 -1.0258094591382315e-08 6.1383514718974395" Properties=species:S:1:pos:R:3:forces:R:3 energy=-46.287437438964844 free_energy=-46.287437438964844 stress="-4.9688416766002774e-05 -1.200896377895333e-07 1.9134803963538616e-08 -1.200896377895333e-07 -4.9605368985794485e-05 -4.373719164618706e-08 1.9134803963538616e-08 -4.373719164618706e-08 -4.946727494825609e-05" pbc="T T T"
Ru       1.77198961       1.25298636       3.06917594      -0.00000109       0.00000611       0.00000125
Ru       5.31596815       3.75895756       9.20752885      -0.00000136       0.00000284       0.00001197
Zr       0.00000001      -0.00000022       0.00000002       0.00000131       0.00000584      -0.00000565
S        1.94425336       1.37479457       6.13835191      -0.00661394      -0.00467536       0.00000168
S        5.14370475       3.63714850       6.13835130       0.00660491       0.00467414      -0.00000359
S        4.34384195       1.37479471       4.75294860       0.00330870      -0.00467566      -0.00573131
S        2.74411555       3.63714750       7.52375421      -0.00331149       0.00467435       0.00572494
S        2.74411654       3.63714789       4.75294826      -0.00330156       0.00467503      -0.00573218
S        4.34384192       1.37479469       7.52375327       0.00331448      -0.00468692       0.00573307
