9
Lattice="4.724860089955006 2.054160628590562e-07 2.7279003682288545 1.5749535852438235 4.4546394147362935 2.727900319285886 8.065893697516682e-07 5.104021334058421e-07 5.455799339403769" Properties=species:S:1:pos:R:3:forces:R:3 energy=-56.45751953125 free_energy=-56.45751953125 stress="0.0003300525131635368 -1.382897494295321e-06 -2.913546495619812e-06 -1.382897494295321e-06 0.000337905075866729 -2.0605841655196855e-06 -2.913546495619812e-06 -2.0605841655196855e-06 0.0003267831343691796" pbc="T T T"
Ru       1.57492237       1.11360271       2.72786760      -0.00060252      -0.00113277      -0.00064299
Ru       4.72487669       3.34104268       8.18374759       0.00031733       0.00122945       0.00092854
Zr      -0.00000122       0.00000013       0.00000170       0.00000200       0.00000323      -0.00000744
O        1.66901695       1.18015498       5.45581056      -0.00471032      -0.00368038       0.00023578
O        4.63080203       3.27447940       5.45577929       0.00478685       0.00360277      -0.00037087
O        3.89036596       1.18015617       4.17331782       0.00265065      -0.00367728      -0.00397539
O        2.40945390       3.27448781       6.73828169      -0.00256178       0.00370196       0.00393927
O        2.40947041       3.27449525       4.17331501      -0.00222310       0.00389612      -0.00401169
O        3.89035051       1.18014154       6.73827887       0.00234115      -0.00394315       0.00390452
