9
Lattice="6.070054378306515 -5.067847407854298e-08 3.504547320331586 2.0233514089318003 5.722901919785273 3.5045473250490486 -7.054252246148619e-08 -4.410349031245543e-08 7.009094762846413" Properties=species:S:1:pos:R:3:forces:R:3 energy=-17.537376403808594 free_energy=-17.537376403808594 stress="-4.0788071942188253e-07 -1.133133031849809e-09 -1.8053210482094073e-08 -1.133133031849809e-09 -4.1168658526657964e-07 3.88201160106405e-09 -1.8053210482094073e-08 3.88201160106405e-09 -4.0945278101389704e-07" pbc="T T T"
S        2.02335146       1.43072448       3.50454818       0.00000054      -0.00000291       0.00000280
S        6.07005347       4.29217528      10.51364195      -0.00000290      -0.00000332       0.00000067
Be       0.00000063      -0.00000023      -0.00000013      -0.00000098       0.00000159      -0.00000053
Br       1.99165383       1.40831122       7.00909445       0.00205648       0.00145574      -0.00000062
Br       6.10175236       4.31459054       7.00909450      -0.00205748      -0.00145163      -0.00000036
Br       5.07422744       1.40831251       5.22937006      -0.00102647       0.00145391       0.00177817
Br       3.01917836       4.31459063       8.78881947       0.00102838      -0.00145325      -0.00178294
Br       3.01917824       4.31459021       5.22936972       0.00102922      -0.00145407       0.00178185
Br       5.07422712       1.40831279       8.78881947      -0.00102665       0.00145404      -0.00177900
