9
Lattice="6.518178103027139 2.181387864495593e-07 3.7632719263459102 2.1727262594357226 6.145396240034885 3.763271892691976 7.670283765266579e-07 5.011534571012774e-07 7.526542524159701" Properties=species:S:1:pos:R:3:forces:R:3 energy=-15.622906684875488 free_energy=-15.622906684875488 stress="1.4868467587803025e-05 1.8161816939255004e-08 -1.898252577348103e-08 1.8161816939255004e-08 1.4883056792314164e-05 -2.661412779048078e-08 -1.898252577348103e-08 -2.661412779048078e-08 1.4870945051370654e-05" pbc="T T T"
S        2.17272759       1.53635068       3.76327254       0.00000340       0.00000330       0.00000146
S        6.51817698       4.60904636      11.28981468      -0.00000532      -0.00000327       0.00000179
Be      -0.00000002       0.00000014       0.00000041       0.00000060      -0.00000157      -0.00000055
I        2.12720706       1.50416213       7.52654313      -0.00190100      -0.00134479      -0.00000046
I        6.56369775       4.64123492       7.52654306       0.00190289       0.00134490      -0.00000045
I        5.45457586       1.50416213       5.60548538       0.00094938      -0.00134109      -0.00164749
I        3.23632972       4.64123479       9.44760000      -0.00095016       0.00134268       0.00164829
I        3.23632992       4.64123397       5.60548557      -0.00094923       0.00134251      -0.00165085
I        5.45457560       1.50416268       9.44760063       0.00094943      -0.00134270       0.00164826
