9
Lattice="2.838325898924803 -0.28254460768662865 0.7440906763031419 0.8885264417565709 3.071362783364955 1.4418246086996438 0.3330416509288896 0.8431343319452145 3.31216951912627" Properties=species:S:1:pos:R:3:forces:R:3 energy=-39795948.0 free_energy=-39795948.0 stress="3778278.5 984202.8125 1891303.5 984202.8125 -127604.359375 567785.0625 1891303.5 567785.0625 5249469.0" pbc="T T T"
S        1.58107995       1.15452608       6.18318062 20858292.00000000 183743328.00000000 41198572.00000000
S        4.51410016       1.26545977       7.34264907 -2359994.00000000 107273192.00000000 -174018528.00000000
Be       1.05390258      -0.98682209       4.44268609 -40337228.00000000 -13737512.00000000 50227968.00000000
F        2.57177380       0.25115161       6.23970514 28042252.00000000 -8174080.00000000 14662201.00000000
F        3.01848776       1.82707350       5.85927695 29365020.00000000 5079349.00000000 -17542472.00000000
F        2.27110672       0.40564367       5.49238813 25794300.00000000 -6106021.00000000 -6075204.00000000
F        0.99157139       4.04551618       7.42606031 -280408544.00000000 32929580.00000000 -16597164.00000000
F        1.65785652       1.56395117       6.35812289 -24487770.00000000 -278136640.00000000 83866544.00000000
F        2.93533348       0.71254281       6.77361561 243533632.00000000 -22871380.00000000 24277998.00000000
