9
Lattice="5.568196654863794 1.3294323534890262e-07 3.2147998458525557 1.856065660904655 5.249746100102715 3.2147998736635746 -4.207411979427918e-08 4.310488820981304e-09 6.429599764579609" Properties=species:S:1:pos:R:3:forces:R:3 energy=-20.352325439453125 free_energy=-20.352325439453125 stress="0.00017465448763687164 -3.4686873817690866e-08 -2.367593232577292e-08 -3.4686873817690866e-08 0.00017461254901718348 -4.349131188519095e-08 -2.367593232577292e-08 -4.349131188519095e-08 0.00017469219164922833" pbc="T T T"
S        1.85606679       1.31243673       3.21480071       0.00000424       0.00000101       0.00000431
S        5.56819585       3.93730945       9.64439940      -0.00000448      -0.00000067       0.00000027
Be      -0.00000000      -0.00000000      -0.00000012      -0.00000110       0.00000010      -0.00000168
Cl       1.79915270       1.27219291       6.42959936       0.00393319       0.00278161      -0.00000566
Cl       5.62510919       3.97755339       6.42959918      -0.00393510      -0.00278099      -0.00000177
Cl       4.66862024       1.27219273       4.77291192      -0.00196700       0.00278109       0.00340734
Cl       2.75564235       3.97755298       8.08628795       0.00196968      -0.00278147      -0.00340489
Cl       2.75564199       3.97755324       4.77291170       0.00196798      -0.00278310       0.00340596
Cl       4.66862004       1.27219353       8.08628788      -0.00196759       0.00278226      -0.00340435
