9
Lattice="6.1611857439078515 1.0678811170351724e-07 3.5571625021692546 2.0537285808092713 5.808821884953466 3.5571626774080642 9.88860889042027e-08 2.8454586242001687e-07 7.114324833062766" Properties=species:S:1:pos:R:3:forces:R:3 energy=-17.7575626373291 free_energy=-17.7575626373291 stress="-0.00013657975068781525 -3.530900016812666e-08 -4.6923389618314104e-09 -3.530900016812666e-08 -0.00013663849676959217 4.059976532744258e-08 -4.6923389618314104e-09 4.059976532744258e-08 -0.0001366079377476126" pbc="T T T"
S        2.05372958       1.45220549       3.55716297       0.00000419       0.00000029       0.00000062
S        6.16118297       4.35661632      10.67148726      -0.00000695       0.00000077      -0.00000093
C        0.00000000       0.00000013       0.00000013       0.00000136       0.00000096      -0.00000126
Br       1.89096605       1.33711450       7.11432450      -0.00123081      -0.00086915       0.00000014
Br       6.32394920       4.47170796       7.11432536       0.00122982       0.00086778      -0.00000020
Br       5.21570310       1.33711463       5.19478659       0.00061758      -0.00087096      -0.00106829
Br       2.99921216       4.47170782       9.03386347      -0.00061665       0.00087066       0.00106856
Br       2.99921176       4.47170753       5.19478638      -0.00061572       0.00086930      -0.00106731
Br       5.21570295       1.33711479       9.03386342       0.00061716      -0.00086987       0.00106877
