9
Lattice="5.710174636510379 4.566733155061295e-09 3.2967707579655996 1.9033915756513962 5.383604393104925 3.2967707132053063 1.5411240593967784e-08 -4.392255019062622e-08 6.5935414892381585" Properties=species:S:1:pos:R:3:forces:R:3 energy=-19.45118522644043 free_energy=-19.45118522644043 stress="-0.0001466215617256239 -3.50319417918854e-09 2.2112223163617273e-08 -3.50319417918854e-09 -0.00014653145626652986 -9.937710210294881e-09 2.2112223163617273e-08 -9.937710210294881e-09 -0.000146504447911866" pbc="T T T"
S        1.90339026       1.34590095       3.29677327      -0.00000514      -0.00000077       0.00001119
S        5.71017495       4.03770347       9.89031475      -0.00000002      -0.00000098       0.00001196
C       -0.00000129       0.00000073       0.00001114      -0.00001596       0.00001007       0.00011936
Cl       1.77193876       1.25294969       6.59354045       0.00359151       0.00253802      -0.00000965
Cl       5.84162833       4.13065479       6.59354037      -0.00358374      -0.00253448      -0.00000826
Cl       4.82420739       1.25294765       4.83131076      -0.00177716       0.00251426       0.00307052
Cl       2.78936234       4.13065273       8.35576446       0.00181274      -0.00256058      -0.00313765
Cl       2.78935954       4.13065632       4.83131148       0.00178425      -0.00251930       0.00307779
Cl       4.82420478       1.25295112       8.35576536      -0.00180680       0.00255363      -0.00313561
