9
Lattice="8.01462090105607 -1.5404472248254386 4.977491440399469 1.5085466374347203 2.1595386603990514 4.878460918269764 3.6533754200424755 -1.5428196273291588 9.086779248883706" Properties=species:S:1:pos:R:3:forces:R:3 energy=-113075656.0 free_energy=-113075656.0 stress="1263813.75 1383915.875 869705.25 1383915.875 1970123.375 982611.0625 869705.25 982611.0625 933423.6875" pbc="T T T"
S       -1.17313959       1.60696247      -2.37761821 -6918263.50000000 39137012.00000000 -17953080.00000000
S        7.56975919       0.80916361      12.38308205  159955.26562500 -538689.50000000 -226805.00000000
C        1.81914669      -2.23624133       3.50088540  908322.00000000 -2627942.75000000 -817603.56250000
F        1.40710983      -0.63284413       5.64024877 95899352.00000000 404966976.00000000 879815488.00000000
F        9.89875445      -1.54639065      11.01354316 -270103744.00000000 -514178432.00000000 52061496.00000000
F       15.29084599      -2.95206042       7.62171150 -6273935.50000000 3745653.75000000 -3403852.00000000
F        8.33203414      -1.34004921      14.40962842 2979042.25000000 1602085.62500000 1040148.12500000
F        1.49195686      -0.50866273       5.77275526 525533760.00000000 222879616.00000000 -522646720.00000000
F       11.83393692      -5.53686196      15.09685000 -342184448.00000000 -154986432.00000000 -387869184.00000000
