9
Lattice="6.430226456485875 -2.6762099012955597e-07 3.7124925359394436 2.1434085029742582 6.06247527052167 3.7124926459919623 -6.23799621078195e-07 -3.063066783382916e-07 7.42498615233148" Properties=species:S:1:pos:R:3:forces:R:3 energy=-15.922220230102539 free_energy=-15.922220230102539 stress="6.340678373817354e-05 -4.3417577866300405e-10 7.243805999479491e-09 -4.3417577866300405e-10 6.345280417008325e-05 -7.218938335995517e-09 7.243805999479491e-09 -7.218938335995517e-09 6.343926361296326e-05" pbc="T T T"
S        2.14340831       1.51561920       3.71249534      -0.00000185       0.00000057       0.00000870
S        6.43022493       4.54685307      11.13748074      -0.00000234      -0.00000863       0.00000706
C       -0.00000059      -0.00000086       0.00000220      -0.00000261      -0.00000475       0.00001007
I        2.21009321       1.56277334       7.42498538      -0.00245345      -0.00173116      -0.00000206
I        6.36354186       4.49970385       7.42498493       0.00246125       0.00173855      -0.00000009
I        5.32517971       1.56277169       5.62648859       0.00123104      -0.00173825      -0.00213194
I        3.24845636       4.49970080       9.22348076      -0.00122580       0.00173134       0.00212556
I        3.24845549       4.49970312       5.62649007      -0.00123042       0.00174010      -0.00213367
I        5.32517796       1.56277478       9.22347722       0.00122431      -0.00172782       0.00211638
