9
Lattice="4.717682921366838 -0.36278690457438245 1.735377077164945 3.624975532706834 1.4221247466491025 0.8378669096184913 1.149602862682357 -0.6270215183955827 2.7107175642378114" Properties=species:S:1:pos:R:3:forces:R:3 energy=-137585393664.0 free_energy=-137585393664.0 stress="0.0 120524368.0 5224837632.0 120524368.0 0.0 2768333568.0 5224837632.0 2768333568.0 0.0" pbc="T T T"
S        1.53009048      -0.08188461       1.45046494 -256545095680.00000000 -40832475136.00000000 206564376576.00000000
S        8.71734162       1.02002384       4.22934318 22093780992.00000000 -19005394944.00000000 -32922476544.00000000
C       -0.32790377       0.25030114       1.39341576 -37245198336.00000000 -68955971584.00000000 11554097152.00000000
O        2.74225275      -0.77391551       4.41779652 -162804924416.00000000 181588623360.00000000 -135127973888.00000000
O        7.49946513       0.78109498       4.11912699 56716062720.00000000 104941838336.00000000 -4611195904.00000000
O        6.20928787      -0.31305864       3.37914466 97216765952.00000000 -307521224704.00000000 -69433483264.00000000
O        4.87119050       1.09237453       2.27298141 276938752000.00000000 216396169216.00000000 41519644672.00000000
O        0.92096696       1.16044518       2.08893769 18356768768.00000000 6150933504.00000000 -3541839872.00000000
O        2.96655476       1.33412706       2.38183648 -14727058432.00000000 -72762679296.00000000 -14000837632.00000000
