9
Lattice="3.9706164232516485 -0.4196574236768406 1.1456805541421136 2.087326305174335 2.042177502640885 1.8353886332091653 0.012598235228940798 0.39604294773921955 2.390906594066975" Properties=species:S:1:pos:R:3:forces:R:3 energy=-9687357440.0 free_energy=-9687357440.0 stress="5799077888.0 256818640.0 71430432.0 256818640.0 5593471488.0 173529280.0 71430432.0 173529280.0 6058594304.0" pbc="T T T"
S        3.02784564      -2.20674031       0.95276326 -2927982848.00000000 3042821120.00000000 6925618176.00000000
S        9.86284032      -1.04432351       2.21599892 -4858206208.00000000 2495463424.00000000 5080749056.00000000
P        0.71051159      -0.11804759      -2.34671054 4013328640.00000000 -3396872704.00000000 -4079183872.00000000
O        0.91671459      -1.67767766       0.92882038 -5828618752.00000000 -707333248.00000000 -6510892544.00000000
O        5.23452366      -1.31959365       2.81540572 -6676315136.00000000 -2477217024.00000000 -2456438272.00000000
O        2.67557414       0.01018789       2.70817324 5188391424.00000000 10419456000.00000000 -2899299328.00000000
O        3.04918048       0.71635867       2.47875233 -1037603136.00000000 -10311305216.00000000 6756687872.00000000
O        3.01058006       0.60604764       0.88587424 8186669056.00000000 -395341824.00000000 4173796864.00000000
O        5.53550628      -0.81918743       1.71791258 3940337664.00000000 1330334720.00000000 -6991034368.00000000
