9
Lattice="5.913535826370228 5.070979320923986e-08 3.41418147091244 1.9711786316124154 5.57533540703403 3.414181514191714 -7.230095823578685e-08 1.8815855276021925e-09 6.828363067053804" Properties=species:S:1:pos:R:3:forces:R:3 energy=-32.50273132324219 free_energy=-32.50273132324219 stress="0.00010784840560518205 2.7908664268494476e-09 2.090552264633061e-08 2.7908664268494476e-09 0.00010788108920678496 7.556710812650635e-09 2.090552264633061e-08 7.556710812650635e-09 0.00010785509221022949" pbc="T T T"
Sc       1.97117954       1.39383202       3.41418292       0.00000510      -0.00001315       0.00001084
Sc       5.91353555       4.18150264      10.24254371      -0.00000024       0.00000709      -0.00000466
Au      -0.00000012      -0.00000012      -0.00000016       0.00000078      -0.00000408       0.00000223
Cl       2.03405907       1.43829668       6.82836263       0.00199151       0.00140233      -0.00000349
Cl       5.85065473       4.13703919       6.82836335      -0.00199111      -0.00139856       0.00000128
Cl       4.89650618       1.43829695       5.17572810      -0.00099692       0.00140320       0.00172274
Cl       2.98820811       4.13703922       8.48099739       0.00099414      -0.00140158      -0.00172357
Cl       2.98820783       4.13703830       5.17572813       0.00099248      -0.00140324       0.00171836
Cl       4.89650666       1.43829710       8.48099805      -0.00099572       0.00140779      -0.00172400
