9
Lattice="6.620660169120247 -5.537347433630165e-08 3.8224399693729625 2.2068866929756763 6.2420181937235 3.8224399310215627 3.220653444624993e-08 -2.4197225428429517e-08 7.644879882962562" Properties=species:S:1:pos:R:3:forces:R:3 energy=-26.257061004638672 free_energy=-26.257061004638672 stress="7.921946962596849e-05 -1.9275547824548767e-09 5.557137860989769e-09 -1.9275547824548767e-09 7.922294025775045e-05 9.990486216082672e-10 5.557137860989769e-09 9.990486216082672e-10 7.921693759271875e-05" pbc="T T T"
Sc       2.20688644       1.56050434       3.82244018      -0.00000135      -0.00000090       0.00000063
Sc       6.62066022       4.68151290      11.46732037      -0.00000047      -0.00000375       0.00000329
Ag      -0.00000007      -0.00000002      -0.00000015       0.00000074      -0.00000040       0.00000103
I        2.28269236       1.61410750       7.64487974       0.00090155       0.00063817       0.00000001
I        6.54485455       4.62791087       7.64487965      -0.00090177      -0.00063806      -0.00000089
I        5.47931386       1.61410749       5.79930941      -0.00045020       0.00063951       0.00078000
I        3.34823292       4.62791114       9.49045005       0.00045097      -0.00063767      -0.00078157
I        3.34823316       4.62791085       5.79930968       0.00045120      -0.00063638       0.00077923
I        5.47931417       1.61410738       9.49045020      -0.00045055       0.00063946      -0.00078177
