9
Lattice="6.142746307069636 7.261007945881785e-10 3.5465163295677473 2.0475821241983287 5.791436567404856 3.5465162929223735 3.930572203342564e-08 -1.70878739680653e-08 7.093032591055999" Properties=species:S:1:pos:R:3:forces:R:3 energy=-29.84975814819336 free_energy=-29.84975814819336 stress="0.000160691182827577 -5.354998666717847e-09 -5.537602820737675e-09 -5.354998666717847e-09 0.00016069905541371554 -1.760692924790419e-08 -5.537602820737675e-09 -1.760692924790419e-08 0.00016068039985839278" pbc="T T T"
Sc       2.04758148       1.44785925       3.54651651      -0.00000479       0.00000018       0.00000127
Sc       6.14274639       4.34357757      10.63954871       0.00000043       0.00000113      -0.00000229
Au       0.00000012      -0.00000001      -0.00000003      -0.00000125       0.00000107       0.00000089
Br       2.10607639       1.48922094       7.09303255       0.00221043       0.00156378       0.00000007
Br       6.08425223       4.30221549       7.09303267      -0.00220974      -0.00156504       0.00000159
Br       5.08970812       1.48922074       5.37043222      -0.00110404       0.00156253       0.00191461
Br       3.10062048       4.30221588       8.81563296       0.00110676      -0.00156309      -0.00191559
Br       3.10062048       4.30221564       5.37043210       0.00110574      -0.00156390       0.00191464
Br       5.08970822       1.48922073       8.81563322      -0.00110355       0.00156339      -0.00191523
