9
Lattice="6.1204855649847 1.8533195548514867e-08 3.5336639088636144 2.040161871127529 5.770449100849535 3.5336639111856663 -2.1389956132985643e-08 -1.2281073836471657e-08 7.067327854775702" Properties=species:S:1:pos:R:3:forces:R:3 energy=-30.009904861450195 free_energy=-30.009904861450195 stress="0.0003178654005751014 -2.905704787892205e-09 3.49174666958163e-09 -2.905704787892205e-09 0.0003178684855811298 7.148954317415246e-09 3.49174666958163e-09 7.148954317415246e-09 0.0003178783517796546" pbc="T T T"
Sc       2.04016173       1.44261226       3.53366452       0.00000005       0.00000022       0.00000412
Sc       6.12048585       4.32783703      10.60099074       0.00000025      -0.00000049      -0.00000853
Ag      -0.00000000       0.00000012      -0.00000020       0.00000061      -0.00000054      -0.00000038
Br       2.12195203       1.50044691       7.06732777      -0.00230411      -0.00162929      -0.00000031
Br       6.03869526       4.27000228       7.06732819       0.00230335       0.00162878       0.00000349
Br       5.05950919       1.50044664       5.37132836       0.00115108      -0.00163162      -0.00199445
Br       3.10113806       4.27000235       8.76332738      -0.00115030       0.00163121       0.00199625
Br       3.10113769       4.27000210       5.37132848      -0.00115515       0.00162987      -0.00199564
Br       5.05950989       1.50044672       8.76332744       0.00115409      -0.00162804       0.00199558
