9
Lattice="4.7317496932046295 5.865971641332782e-09 2.7318770064362843 1.5772499038945083 4.461136417262163 2.7318770053465755 -5.501880986447329e-08 -4.0238792374621656e-08 5.463754108167935" Properties=species:S:1:pos:R:3:forces:R:3 energy=-45.52652359008789 free_energy=-45.52652359008789 stress="0.0003011874505318701 -5.3018069934296363e-08 -8.3124360727993e-09 -5.3018069934296363e-08 0.00030100689036771655 5.826738647130014e-09 -8.3124360727993e-09 5.826738647130014e-09 0.00030095234978944063" pbc="T T T"
Sc       1.57724919       1.11528375       2.73187623      -0.00000934      -0.00000413      -0.00000873
Sc       4.73174996       3.34585131       8.19563043       0.00000439      -0.00000715      -0.00000999
Ag      -0.00000008       0.00000012      -0.00000029       0.00000287      -0.00000037       0.00002125
F        1.70688193       1.20694828       5.46375403      -0.00217605      -0.00153433       0.00000365
F        4.60211749       3.25418902       5.46375453       0.00217012       0.00153658       0.00000720
F        3.87830974       1.20694789       4.21008096       0.00109925      -0.00154063      -0.00187968
F        2.43069026       3.25418902       6.71742780      -0.00108357       0.00153234       0.00187245
F        2.43069076       3.25418827       4.21008000      -0.00109138       0.00154280      -0.00188642
F        3.87830885       1.20694830       6.71742839       0.00108415      -0.00152543       0.00188043
