9
Lattice="6.670894280816157 2.997442817840763e-08 3.8514425675698996 2.223631458146106 6.289379362283474 3.851442562465144 1.2539626586843732e-08 2.6148339972247886e-09 7.702885113420489" Properties=species:S:1:pos:R:3:forces:R:3 energy=-26.16983985900879 free_energy=-26.16983985900879 stress="6.842255243100226e-05 -1.8484617170244633e-09 5.011089765361021e-09 -1.8484617170244633e-09 6.842382572358474e-05 -1.2274957439384337e-10 5.011089765361021e-09 -1.2274957439384337e-10 6.842856964794919e-05" pbc="T T T"
Sc       2.22363126       1.57234485       3.85144232      -0.00000073       0.00000002      -0.00000051
Sc       6.67089434       4.71703462      11.55432789      -0.00000023       0.00000003       0.00000057
Au      -0.00000011      -0.00000005       0.00000005       0.00000058      -0.00000041      -0.00000074
I        2.30776776       1.63183802       7.70288507       0.00069784       0.00049322       0.00000032
I        6.58675801       4.65754151       7.70288503      -0.00069810      -0.00049338      -0.00000051
I        5.51701077       1.63183799       5.85002799      -0.00034851       0.00049414       0.00060477
I        3.37751513       4.65754119       9.55574236       0.00034847      -0.00049315      -0.00060376
I        3.37751527       4.65754133       5.85002786       0.00034945      -0.00049345       0.00060426
I        5.51701062       1.63183813       9.55574241      -0.00034876       0.00049295      -0.00060438
