9
Lattice="5.81871321376434 6.747971106460527e-08 3.3594356044018334 1.9395711206275628 5.485935412781815 3.359435629079548 -2.3052757265733645e-08 1.3923159255837457e-08 6.718871248732205" Properties=species:S:1:pos:R:3:forces:R:3 energy=-33.11066818237305 free_energy=-33.11066818237305 stress="0.0001311157102463767 -8.578593835295578e-09 2.4297186485000566e-08 -8.578593835295578e-09 0.00013107531412970275 1.2696443896231813e-08 2.4297186485000566e-08 1.2696443896231813e-08 0.00013107035192660987" pbc="T T T"
Sc       1.93956938       1.37148517       3.35943718      -0.00001349       0.00001132       0.00001357
Sc       5.81871456       4.11445110      10.07830337       0.00001186      -0.00000586      -0.00002840
Ag       0.00000007       0.00000013      -0.00000031       0.00000061      -0.00000030       0.00000496
Cl       2.02532881       1.43212429       6.71887149       0.00220896       0.00156649      -0.00000183
Cl       5.73295546       4.05381089       6.71887261      -0.00220755      -0.00156771       0.00001117
Cl       4.80604850       1.43212357       5.11342207      -0.00110625       0.00155950       0.00191550
Cl       2.95223589       4.05381169       8.32432072       0.00110910      -0.00156546      -0.00191417
Cl       2.95223457       4.05381097       5.11342260       0.00109375      -0.00156605       0.00191727
Cl       4.80605006       1.43212416       8.32432023      -0.00109710       0.00156811      -0.00191808
