9
Lattice="6.540591198552159 1.4242222313335276e-07 3.7762121195934943 2.1801972245138046 6.166528368792246 3.7762120779328106 6.579088686903178e-08 -4.502552642200817e-09 7.55242412523385" Properties=species:S:1:pos:R:3:forces:R:3 energy=-27.9847412109375 free_energy=-27.9847412109375 stress="0.000214163024793379 2.8454982814452023e-09 1.5802307018475403e-08 2.8454982814452023e-09 0.00021416772506199777 3.176148899441955e-09 1.5802307018475403e-08 3.176148899441955e-09 0.00021414743969216943" pbc="T T T"
Sc       2.18019693       1.54163183       3.77621164      -0.00000145      -0.00000058      -0.00000112
Sc       6.54059114       4.62489572      11.32863701      -0.00000008      -0.00000213       0.00000293
Be       0.00000005       0.00000016       0.00000004       0.00000032       0.00000012      -0.00000005
I        2.13325545       1.50843997       7.55242439      -0.00004353      -0.00002919       0.00000091
I        6.58753297       4.65808876       7.55242384       0.00004331       0.00003056      -0.00000190
I        5.47396341       1.50843963       5.62366557       0.00002152      -0.00002893      -0.00003787
I        3.24682532       4.65808923       9.48118261      -0.00002092       0.00002982       0.00003667
I        3.24682518       4.65808915       5.62366567      -0.00002085       0.00003151      -0.00003691
I        5.47396351       1.50843958       9.48118255       0.00002158      -0.00003122       0.00003742
