9
Lattice="5.594599690649257 -1.2132514782623404e-07 3.230043309614068 1.8648664621753936 5.274639084847768 3.2300432870764593 -5.022627415629128e-08 -6.311815605318396e-08 6.4600867062225955" Properties=species:S:1:pos:R:3:forces:R:3 energy=-37.532596588134766 free_energy=-37.532596588134766 stress="-4.7285309847211465e-05 1.5755059479261035e-08 -2.9020810643487494e-08 1.5755059479261035e-08 -4.734127287520096e-05 -2.7521933176899438e-08 -2.9020810643487494e-08 -2.7521933176899438e-08 -4.7259993152692914e-05" pbc="T T T"
Sc       1.86486634       1.31865811       3.23004392      -0.00000178      -0.00000893       0.00000474
Sc       5.59459980       3.95598082       9.69012905       0.00000096       0.00000997      -0.00000658
Be      -0.00000020      -0.00000003      -0.00000032       0.00000043      -0.00000044       0.00000354
Cl       1.79966440       1.27255489       6.46008633      -0.00073846      -0.00052425      -0.00000181
Cl       5.65980206       4.00208373       6.46008715       0.00073779       0.00052349       0.00000219
Cl       4.69476726       1.27255456       4.78859849       0.00036883      -0.00052633      -0.00063779
Cl       2.76469913       4.00208453       8.13157516      -0.00036579       0.00052427       0.00063726
Cl       2.76469821       4.00208442       4.78859838      -0.00037001       0.00052642      -0.00063792
Cl       4.69476739       1.27255453       8.13157513       0.00036798      -0.00052402       0.00063624
