9
Lattice="5.916595111229802 1.7173809281711721e-07 3.4159479959080583 1.9721985272849702 5.578219552541057 3.4159480046396853 5.8990643834584015e-08 5.240663003496929e-08 6.831895889641329" Properties=species:S:1:pos:R:3:forces:R:3 energy=-33.2965202331543 free_energy=-33.2965202331543 stress="-9.055829650606029e-06 2.8628741044478545e-10 2.5886859322810096e-09 2.8628741044478545e-10 -9.110871360462625e-06 -6.371203564725647e-09 2.5886859322810096e-09 -6.371203564725647e-09 -9.042208148457576e-06" pbc="T T T"
Sc       1.97219866       1.39455500       3.41594811      -0.00000045       0.00000071      -0.00000091
Sc       5.91659550       4.18366510      10.24784476       0.00000212       0.00000122       0.00000633
Be      -0.00000003      -0.00000023       0.00000033       0.00000002       0.00000101      -0.00000173
Br       1.91801817       1.35624394       6.83189591      -0.00360974      -0.00255264      -0.00000032
Br       5.97077514       4.22197603       6.83189556       0.00360975       0.00255220      -0.00000030
Br       4.95758623       1.35624392       5.07700044       0.00180459      -0.00255349      -0.00312604
Br       2.93120752       4.22197577       8.58679109      -0.00180541       0.00255206       0.00312520
Br       2.93120782       4.22197587       5.07700039      -0.00180489       0.00255192      -0.00312691
Br       4.95758580       1.35624369       8.58679102       0.00180407      -0.00255274       0.00312431
