9
Lattice="4.512691293505923 -3.031276493756172e-07 2.6054030822956866 1.5042301040470005 4.2546061027891 2.6054031538816487 -1.2290885098160577e-07 7.648530536472073e-10 5.210806377475752" Properties=species:S:1:pos:R:3:forces:R:3 energy=-53.086822509765625 free_energy=-53.086822509765625 stress="0.0006377922836691141 -3.9920230676671054e-08 -1.5518642371148417e-08 -3.9920230676671054e-08 0.0006378712714649737 2.6644976003353804e-08 -1.5518642371148417e-08 2.6644976003353804e-08 0.0006377725512720644" pbc="T T T"
Sc       1.50422940       1.06365059       2.60540365      -0.00000526      -0.00000397       0.00000067
Sc       4.51269093       3.19095503       7.81620857      -0.00000145       0.00000169      -0.00000381
Be      -0.00000012      -0.00000013       0.00000008       0.00000031       0.00000156      -0.00000046
F        1.41673647       1.00178390       5.21080661       0.00003070       0.00002062      -0.00000035
F        4.60018512       3.25282193       5.21080648      -0.00002816      -0.00001943       0.00000220
F        3.80432322       1.00178389       3.83233276      -0.00001410       0.00001805       0.00002700
F        2.21259824       3.25282208       6.58927985       0.00001603      -0.00001796      -0.00002559
F        2.21259857       3.25282224       3.83233289       0.00001366      -0.00002022       0.00002642
F        3.80432320       1.00178375       6.58927965      -0.00001188       0.00001992      -0.00002569
