9
Lattice="5.662264955042452 1.3369227711142295e-08 3.269110213754385 1.887421661275398 5.338434469150751 3.26911021896797 -4.295983349654397e-08 -2.3991886510612204e-08 6.538220501917375" Properties=species:S:1:pos:R:3:forces:R:3 energy=-35.66706466674805 free_energy=-35.66706466674805 stress="0.00035055377520620823 1.395620508048978e-08 7.377428890009696e-09 1.395620508048978e-08 0.0003505876811686903 -3.053855168744235e-09 7.377428890009696e-09 -3.053855168744235e-09 0.0003505622735247016" pbc="T T T"
Sc       1.88742200       1.33460854       3.26911000       0.00000188       0.00000071      -0.00000394
Sc       5.66226552       4.00382619       9.80733105       0.00000298       0.00000065       0.00000264
Cu       0.00000007       0.00000017      -0.00000001      -0.00000016      -0.00000396      -0.00000316
Cl       1.90833795       1.34939859       6.53822072      -0.00008027      -0.00005762       0.00000149
Cl       5.64134848       3.98903581       6.53822026       0.00008236       0.00005818      -0.00000040
Cl       4.70809582       1.34939862       4.92177930       0.00004000      -0.00005578      -0.00006861
Cl       2.84159041       3.98903573       8.15466134      -0.00004377       0.00005917       0.00007264
Cl       2.84159039       3.98903572       4.92177960      -0.00004200       0.00005748      -0.00007184
Cl       4.70809563       1.34939851       8.15466153       0.00003892      -0.00005872       0.00007112
