9
Lattice="6.057554443621116 -8.681464780029981e-08 3.4973306095874435 2.0191847762134625 5.711117063403951 3.4973305342038103 -8.999342103241351e-08 -1.5596064189400285e-07 6.994661375047997" Properties=species:S:1:pos:R:3:forces:R:3 energy=-38.43232727050781 free_energy=-38.43232727050781 stress="0.000315368379233405 1.2749876709960972e-08 2.098371254533049e-08 1.2749876709960972e-08 0.0003153787401970476 -9.228008579498237e-09 2.098371254533049e-08 -9.228008579498237e-09 0.00031532638240605593" pbc="T T T"
Sc       2.01918531       1.42777959       3.49732999       0.00000366       0.00000372      -0.00000443
Sc       6.05755455       4.28333792      10.49199197       0.00000057      -0.00000040       0.00000163
Cr       0.00000001      -0.00000018      -0.00000022      -0.00000188      -0.00000127      -0.00000020
Br       1.96445993       1.38908288       6.99466139       0.00363916       0.00257239       0.00000049
Br       6.11227906       4.32203370       6.99466115      -0.00363752      -0.00257173       0.00000033
Br       5.07532468       1.38908304       5.19860277      -0.00182053       0.00257407       0.00315353
Br       3.00141424       4.32203357       8.79071986       0.00181903      -0.00257500      -0.00315216
Br       3.00141474       4.32203387       5.19860275       0.00181930      -0.00257394       0.00315264
Br       5.07532400       1.38908291       8.79072027      -0.00182186       0.00257210      -0.00315180
