9
Lattice="5.969383194162208 8.661093023486035e-09 3.4464250166220944 1.9897943878342605 5.627988480471149 3.4464250484667938 -1.2993295011336503e-08 2.981399654509752e-08 6.892850055749231" Properties=species:S:1:pos:R:3:forces:R:3 energy=-32.21097183227539 free_energy=-32.21097183227539 stress="0.00031210470478981733 1.7744941072095344e-09 8.501530590621087e-10 1.7744941072095344e-09 0.0003121125919278711 -4.00715016724007e-09 8.501530590621087e-10 -4.00715016724007e-09 0.00031210039742290974" pbc="T T T"
Sc       1.98979458       1.40699688       3.44642518       0.00000168      -0.00000393       0.00000203
Sc       5.96938221       4.22099210      10.33927503      -0.00000549       0.00000503       0.00000135
Cu      -0.00000001      -0.00000000       0.00000003      -0.00000054       0.00000160      -0.00000043
Br       2.01272040       1.42320762       6.89285012      -0.00205606      -0.00145739       0.00000007
Br       5.94645743       4.20478063       6.89285015       0.00205685       0.00145714      -0.00000084
Br       4.96302304       1.42320811       5.18949186       0.00102861      -0.00145596      -0.00178453
Br       2.99615473       4.20478050       8.59620828      -0.00102714       0.00145473       0.00178119
Br       2.99615464       4.20478028       5.18949184      -0.00102732       0.00145566      -0.00178218
Br       4.96302329       1.42320796       8.59620802       0.00102938      -0.00145690       0.00178324
