9
Lattice="6.534194049117476 5.039938830049006e-08 3.772518661283958 2.1780647187963758 6.160497201964761 3.7725186816525405 -6.821831280600006e-09 2.012249394872198e-08 7.545037334383693" Properties=species:S:1:pos:R:3:forces:R:3 energy=-27.824575424194336 free_energy=-27.824575424194336 stress="9.03289983398281e-05 5.4471822608093134e-09 -1.0208609513284728e-09 5.4471822608093134e-09 9.033226524479687e-05 -2.9887281538520938e-09 -1.0208609513284728e-09 -2.9887281538520938e-09 9.032359230332077e-05" pbc="T T T"
Sc       2.17806424       1.54012437       3.77251898      -0.00000186       0.00000104       0.00000012
Sc       6.53419417       4.62037290      11.31755567      -0.00000003      -0.00000108      -0.00000165
Cu       0.00000003       0.00000018      -0.00000002      -0.00000005      -0.00000082       0.00000041
I        2.20338315       1.55802743       7.54503740       0.00044516       0.00031426       0.00000019
I        6.50887571       4.60246994       7.54503744      -0.00044402      -0.00031433       0.00000054
I        5.43250251       1.55802714       5.68070436      -0.00022216       0.00031404       0.00038538
I        3.27975641       4.60247008       9.40937022       0.00022274      -0.00031445      -0.00038470
I        3.27975612       4.60246989       5.68070445       0.00022150      -0.00031424       0.00038487
I        5.43250271       1.55802717       9.40937024      -0.00022140       0.00031557      -0.00038510
