9
Lattice="5.838503810798544 -1.1959957354101519e-08 3.3708617407109664 1.946167858417191 5.50459421853764 3.370861857173528 -1.175895673231278e-07 5.948855510982908e-08 6.741723685093" Properties=species:S:1:pos:R:3:forces:R:3 energy=-41.795814514160156 free_energy=-41.795814514160156 stress="0.00018604651268105954 1.0397574357057238e-08 5.600516672643607e-08 1.0397574357057238e-08 0.0001861880300566554 4.182312096645546e-08 5.600516672643607e-08 4.182312096645546e-08 0.0001861067139543593" pbc="T T T"
Sc       1.94616665       1.37615026       3.37086016      -0.00000596       0.00000953      -0.00001067
Sc       5.83850396       4.12844438      10.11258734       0.00000442      -0.00001027       0.00000985
Cr       0.00000017      -0.00000003      -0.00000032      -0.00000096      -0.00000001       0.00000488
Cl       1.87825075       1.32812447       6.74172415       0.00154755       0.00109763       0.00000241
Cl       5.90642133       4.17646970       6.74172295      -0.00154835      -0.00109990      -0.00000271
Cl       4.89937859       1.32812466       4.99747516      -0.00076927       0.00109883       0.00133997
Cl       2.88529281       4.17646962       8.48597219       0.00077207      -0.00109920      -0.00134099
Cl       2.88529359       4.17647006       4.99747494       0.00077496      -0.00109334       0.00133845
Cl       4.89937828       1.32812383       8.48597259      -0.00077464       0.00109658      -0.00134122
