9
Lattice="6.108421269243389 1.7491350743088684e-07 3.526698645281486 2.0361405843329896 5.759074859146311 3.5266986516176444 -4.7401947748140285e-09 4.4083380664877775e-09 7.053397298773222" Properties=species:S:1:pos:R:3:forces:R:3 energy=-31.0396785736084 free_energy=-31.0396785736084 stress="-0.00012128267553634942 -3.899507383664513e-09 -1.7212412606326666e-09 -3.899507383664513e-09 -0.00012127577792853117 3.941551085517858e-09 -1.7212412606326666e-09 3.941551085517858e-09 -0.00012128015805501491" pbc="T T T"
Sc       2.03614114       1.43976665       3.52669795       0.00000281      -0.00001328      -0.00000587
Sc       6.10842318       4.31930629      10.58009618       0.00001092       0.00000158       0.00000152
C       -0.00000027       0.00000009      -0.00000060       0.00000015      -0.00000036       0.00000044
Br       2.07568416       1.46773036       7.05339775      -0.00096464      -0.00068177       0.00000233
Br       6.06887711       4.29134579       7.05339741       0.00095900       0.00068668      -0.00000121
Br       5.07057950       1.46773049       5.32429409       0.00048226      -0.00068094      -0.00083203
Br       3.07398191       4.29134477       8.78250012      -0.00048500       0.00068409       0.00083142
Br       3.07398154       4.29134513       5.32429444      -0.00048365       0.00068475      -0.00082999
Br       5.07057919       1.46773058       8.78250095       0.00047824      -0.00068062       0.00083323
