9
Lattice="6.657104351555602 3.171623696387945e-08 3.8434810495914284 2.219034800489132 6.276378241243764 3.8434810725671626 1.0921440040073405e-08 3.5862088318896717e-08 7.686962080266373" Properties=species:S:1:pos:R:3:forces:R:3 energy=-33.5438117980957 free_energy=-33.5438117980957 stress="0.00027853570645675063 1.2935021054261142e-08 -7.927186906897532e-09 1.2935021054261142e-08 0.00027852485072799027 -2.6340343239894537e-09 -7.927186906897532e-09 -2.6340343239894537e-09 0.0002785183605737984" pbc="T T T"
Sc       2.21903482       1.56909466       3.84348114      -0.00000055      -0.00000096      -0.00000026
Sc       6.65710453       4.70728413      11.53044255       0.00000072       0.00000229      -0.00000245
Cr      -0.00000015      -0.00000020       0.00000032      -0.00000059       0.00000095      -0.00000307
I        2.19647599       1.55314280       7.68696230       0.00085974       0.00060808      -0.00000057
I        6.67966317       4.72323523       7.68696250      -0.00085895      -0.00060792       0.00000079
I        5.55886633       1.55314278       5.74568508      -0.00043068       0.00060874       0.00074563
I        3.31727302       4.72323512       9.62823889       0.00042949      -0.00060779      -0.00074320
I        3.31727256       4.72323551       5.74568511       0.00043063      -0.00061029       0.00074644
I        5.55886638       1.55314318       9.62823895      -0.00042985       0.00060695      -0.00074332
