9
Lattice="5.959502995099826 -5.103914283350896e-08 3.4407205925356954 1.9865009374907168 5.618673310560926 3.4407206146292157 -6.662375221827888e-08 -2.0051117543555127e-08 6.881441300467043" Properties=species:S:1:pos:R:3:forces:R:3 energy=-35.002681732177734 free_energy=-35.002681732177734 stress="0.00015650305431336164 -1.693326723284372e-08 2.3829922923823688e-08 -1.693326723284372e-08 0.00015651792637072504 1.7383300132678414e-08 2.3829922923823688e-08 1.7383300132678414e-08 0.00015647899999748915" pbc="T T T"
Sc       1.98650135       1.40466879       3.44071972       0.00000287       0.00000432      -0.00000654
Sc       5.95950256       4.21400451      10.32216285      -0.00000145      -0.00000190       0.00000579
Co      -0.00000004      -0.00000000       0.00000026       0.00000078       0.00000142      -0.00000126
Br       1.96213102       1.38743607       6.88144148       0.00185601       0.00131380       0.00000229
Br       5.98387314       4.23123725       6.88144098      -0.00186067      -0.00131568      -0.00000104
Br       4.97843762       1.38743630       5.13997590      -0.00092668       0.00131494       0.00160803
Br       2.96756625       4.23123682       8.62290656       0.00092814      -0.00131594      -0.00160963
Br       2.96756655       4.23123715       5.13997570       0.00093078      -0.00131508       0.00160987
Br       4.97843700       1.38743606       8.62290658      -0.00092972       0.00131394      -0.00160744
