9
Lattice="5.6729854215435465 8.894629525819596e-09 3.2752996174002744 1.8909951559381628 5.348541705234828 3.2752996052105963 4.293469249098419e-08 1.5430169249229602e-08 6.550599160435497" Properties=species:S:1:pos:R:3:forces:R:3 energy=-38.798248291015625 free_energy=-38.798248291015625 stress="0.0004119052900932729 -1.2150085382245379e-08 4.072500114915556e-09 -1.2150085382245379e-08 0.000411912624258548 1.9002499129783246e-08 4.072500114915556e-09 1.9002499129783246e-08 0.0004118184733670205" pbc="T T T"
Sc       1.89099694       1.33713571       3.27530016       0.00001504       0.00000354       0.00000550
Sc       5.67298444       4.01140384       9.82589986      -0.00000697      -0.00001752       0.00000927
Co      -0.00000003       0.00000027      -0.00000041      -0.00000335       0.00000070       0.00000215
Cl       1.85672472       1.31290338       6.55059896      -0.00051259      -0.00035554      -0.00000143
Cl       5.70725552       4.03563886       6.55059904       0.00051117       0.00036357      -0.00000230
Cl       4.74462241       1.31290388       4.88326956       0.00025370      -0.00035712      -0.00045094
Cl       2.81935744       4.03563937       8.21792792      -0.00025532       0.00035810       0.00044039
Cl       2.81935805       4.03563891       4.88327002      -0.00025308       0.00036085      -0.00044549
Cl       4.74462290       1.31290278       8.21792836       0.00025130      -0.00035646       0.00044301
