9
Lattice="5.784975208298781 7.186186526091717e-08 3.339956922756178 1.9283251436841327 5.454127090402998 3.3399569114992316 6.916085839178676e-08 3.5117223485104045e-08 6.679913725722227" Properties=species:S:1:pos:R:3:forces:R:3 energy=-33.75198745727539 free_energy=-33.75198745727539 stress="-0.0003486567875370383 5.170047945313172e-09 -9.976167447689477e-09 5.170047945313172e-09 -0.0003486236382741481 -1.3938796783463658e-09 -9.976167447689477e-09 -1.3938796783463658e-09 -0.00034866147325374186" pbc="T T T"
Sc       1.92832518       1.36353164       3.33995662      -0.00000100      -0.00000118      -0.00000380
Sc       5.78497468       4.09059556      10.01987158      -0.00000319       0.00000153       0.00000829
C       -0.00000024      -0.00000020      -0.00000006       0.00000111      -0.00000147      -0.00000184
Cl       1.97790272       1.39858892       6.67991383      -0.00697043      -0.00493014       0.00000154
Cl       5.73539757       4.05553838       6.67991362       0.00697324       0.00492973      -0.00000359
Cl       4.79602434       1.39858834       5.05287067       0.00348387      -0.00492655      -0.00603503
Cl       2.91727670       4.05553902       8.30695667      -0.00348453       0.00492931       0.00603649
Cl       2.91727698       4.05553886       5.05287073      -0.00348185       0.00492908      -0.00603855
Cl       4.79602376       1.39858835       8.30695652       0.00348289      -0.00493049       0.00603660
