9
Lattice="4.631142048833803 -1.8264436576801282e-07 2.6737913685097863 1.543713823653709 4.366282538278957 2.6737914038877633 -1.631338929461263e-07 -7.202410802178904e-08 5.347583019575818" Properties=species:S:1:pos:R:3:forces:R:3 energy=-53.937625885009766 free_energy=-53.937625885009766 stress="-0.00017170335922855884 1.169469943107515e-08 -4.487780458362067e-08 1.169469943107515e-08 -0.0001716377300908789 -2.8704485455222084e-09 -4.487780458362067e-08 -2.8704485455222084e-09 -0.00017156635294668376" pbc="T T T"
Sc       1.54371389       1.09156979       2.67379096      -0.00000057      -0.00000467      -0.00000497
Sc       4.63114134       3.27471234       8.02137476      -0.00000516       0.00000138       0.00000213
Cr       0.00000018      -0.00000013      -0.00000031       0.00000002       0.00000597       0.00001960
F        1.54020897       1.08909237       5.34758351       0.00329530       0.00232804      -0.00000047
F        4.63464673       3.27719024       5.34758289      -0.00329602      -0.00233090      -0.00000145
F        3.86103746       1.08909242       4.00765112      -0.00164592       0.00232875       0.00285041
F        2.31381861       3.27718954       6.68751432       0.00165266      -0.00233388      -0.00285798
F        2.31381891       3.27719058       4.00765162       0.00165081      -0.00232714       0.00285298
F        3.86103696       1.08909197       6.68751419      -0.00165129       0.00233173      -0.00285983
