9
Lattice="4.490132842166543 -1.1562601373785024e-08 2.5923793141059717 1.4967109535045033 4.233337736391404 2.592379284631708 -2.5005332977111808e-08 -5.377987491184664e-08 5.184758671522445" Properties=species:S:1:pos:R:3:forces:R:3 energy=-52.347652435302734 free_energy=-52.347652435302734 stress="0.00010618278611218557 1.8447904537310933e-08 -1.9328043165955933e-08 1.8447904537310933e-08 0.0001061330403899774 8.524319916602963e-09 -1.9328043165955933e-08 8.524319916602963e-09 0.00010613865015329793" pbc="T T T"
Sc       1.49671094       1.05833468       2.59237917      -0.00000113       0.00000256      -0.00000114
Sc       4.49013280       3.17500302       7.77713799      -0.00000048      -0.00000100      -0.00000167
Co      -0.00000015       0.00000011      -0.00000013       0.00000505      -0.00000228       0.00000530
F        1.52432815       1.07786275       5.18475883       0.00741595       0.00524452      -0.00000048
F        4.46251583       3.15547475       5.18475865      -0.00741827      -0.00524575       0.00000051
F        3.72796886       1.07786285       3.91248620      -0.00370881       0.00524446       0.00642365
F        2.25887499       3.15547499       6.45703141       0.00370939      -0.00524455      -0.00642484
F        2.25887494       3.15547504       3.91248591       0.00370950      -0.00524569       0.00642473
F        3.72796863       1.07786269       6.45703116      -0.00371096       0.00524741      -0.00642586
