9
Lattice="6.572876000248498 1.8220613114237326e-08 3.794851745846017 2.190958669442097 6.19696712872203 3.7948517709364484 -2.0397456027566794e-08 1.6306156105230864e-08 7.589703527021539" Properties=species:S:1:pos:R:3:forces:R:3 energy=-27.915042877197266 free_energy=-27.915042877197266 stress="-1.065653941623168e-05 -5.736388697386019e-09 -7.457974682267832e-09 -5.736388697386019e-09 -1.0669888069969602e-05 7.57660156835982e-09 -7.457974682267832e-09 7.57660156835982e-09 -1.0661357919161674e-05" pbc="T T T"
Sc       2.19095922       1.54924230       3.79485209       0.00000220       0.00000064       0.00000170
Sc       6.57287555       4.64772488      11.38455337      -0.00000242      -0.00000064      -0.00001019
C        0.00000020       0.00000016      -0.00000020      -0.00000002      -0.00000017       0.00000057
I        2.21847644       1.56869976       7.58970328      -0.00033616      -0.00023880      -0.00000019
I        6.54535797       4.62826713       7.58970442       0.00033660       0.00023845       0.00000360
I        5.46363751       1.56869962       5.71610901       0.00016711      -0.00023848      -0.00029112
I        3.30019735       4.62826731       9.46329849      -0.00016633       0.00023680       0.00029385
I        3.30019667       4.62826734       5.71610912      -0.00016901       0.00023788      -0.00029125
I        5.46363767       1.56870014       9.46329857       0.00016803      -0.00023567       0.00029308
