9
Lattice="6.547317568420729 2.7059768019607884e-08 3.7800955376951877 2.182439198333596 6.172870341515668 3.7800955665376135 -2.4352119435508836e-08 1.8105022012279423e-08 7.5601911175695315" Properties=species:S:1:pos:R:3:forces:R:3 energy=-30.380136489868164 free_energy=-30.380136489868164 stress="0.00025487999664619565 4.602422443156229e-09 4.956894339436246e-10 4.602422443156229e-09 0.0002548960910644382 -3.0333808798133077e-09 4.956894339436246e-10 -3.0333808798133077e-09 0.0002548757183831185" pbc="T T T"
Sc       2.18243922       1.54321781       3.78009570      -0.00000042       0.00000150      -0.00000012
Sc       6.54731740       4.62965225      11.34028728      -0.00000104      -0.00000314       0.00000247
Co       0.00000011       0.00000010      -0.00000009       0.00000029      -0.00000058       0.00000101
I        2.15433298       1.52334362       7.56019114      -0.00117191      -0.00082794       0.00000013
I        6.57542367       4.64952679       7.56019089       0.00117190       0.00082916      -0.00000132
I        5.47015121       1.52334375       5.64580243       0.00058650      -0.00082784      -0.00101533
I        3.25960553       4.64952679       9.47457950      -0.00058596       0.00082792       0.00101441
I        3.25960564       4.64952677       5.64580254      -0.00058557       0.00082845      -0.00101526
I        5.47015121       1.52334368       9.47457950       0.00058619      -0.00082746       0.00101402
