9
Lattice="4.556066268794589 -1.6521982210031272e-07 2.630445936124383 1.5186887322093405 4.295498546593812 2.630445707986818 6.001940727524406e-07 1.4499100950868062e-07 5.260890832682211" Properties=species:S:1:pos:R:3:forces:R:3 energy=-47.97563171386719 free_energy=-47.97563171386719 stress="0.00013928808039054275 2.5933132974387263e-07 -2.695993543966324e-07 2.5933132974387263e-07 0.000140097297844477 -2.441634876504395e-07 -2.695993543966324e-07 -2.441634876504395e-07 0.00013979757204651833" pbc="T T T"
Sc       1.51868628       1.07387441       2.63044952      -0.00000678      -0.00001046       0.00002319
Sc       4.55607108       3.22161953       7.89133396       0.00001788      -0.00001249      -0.00000004
C        0.00000001       0.00000150       0.00000084      -0.00000690      -0.00000577      -0.00001050
F        1.56312780       1.10529631       5.26089152      -0.00422138      -0.00295132       0.00000068
F        4.51162858       3.19020266       5.26088854       0.00420779       0.00297213       0.00000925
F        3.77449993       1.10529706       3.98415374       0.00210565      -0.00298452      -0.00365508
F        2.30025302       3.19020517       6.53763064      -0.00208914       0.00297105       0.00362051
F        2.30025545       3.19020361       3.98415185      -0.00210911       0.00297993      -0.00362843
F        3.77450103       1.10529390       6.53762933       0.00210223      -0.00295967       0.00364095
