9
Lattice="5.9316557907678895 5.274422239263719e-08 3.4246430063822526 1.9772185880483464 5.592418684427974 3.4246431078838833 -1.1667534553256921e-07 4.1811705850266025e-08 6.8492862148521265" Properties=species:S:1:pos:R:3:forces:R:3 energy=-37.0119743347168 free_energy=-37.0119743347168 stress="6.821833812864497e-05 4.221796601200367e-08 7.188709361116707e-08 4.221796601200367e-08 6.818966357968748e-05 -4.3780379321844975e-09 7.188709361116707e-08 -4.3780379321844975e-09 6.823118746979162e-05" pbc="T T T"
Sc       1.97721769       1.39810403       3.42464268      -0.00000366      -0.00000261      -0.00000274
Sc       5.93165613       4.19431478      10.27393132       0.00000291       0.00000442       0.00001282
Fe      -0.00000008       0.00000003      -0.00000043      -0.00000293       0.00000227      -0.00000093
Br       1.86437575       1.31831262       6.84928617      -0.00063343      -0.00044983       0.00000000
Br       6.04449860       4.27410615       6.84928549       0.00063611       0.00044912      -0.00000272
Br       4.99946849       1.31831288       5.03923959       0.00031850      -0.00044792      -0.00054744
Br       2.90940581       4.27410633       8.65933258      -0.00031746       0.00044549       0.00054303
Br       2.90940668       4.27410617       5.03923942      -0.00031596       0.00044940      -0.00054896
Br       4.99946800       1.31831212       8.65933249       0.00031563      -0.00044991       0.00054685
