9
Lattice="5.701069823753822 2.0832499825865393e-09 3.291514281935732 1.9003566154172837 5.375020208043375 3.291514272348406 1.1761607222509089e-07 7.142513041315571e-08 6.583028360154446" Properties=species:S:1:pos:R:3:forces:R:3 energy=-40.16141128540039 free_energy=-40.16141128540039 stress="0.00017077720258384943 2.48662317403614e-08 -1.7681974995298333e-08 2.48662317403614e-08 0.0001707502087811008 -2.5339813802816025e-08 -1.7681974995298333e-08 -2.5339813802816025e-08 0.000170788582181558" pbc="T T T"
Sc       1.90035562       1.34375500       3.29151480      -0.00001021      -0.00000164       0.00000779
Sc       5.70107059       4.03126435       9.87454219       0.00000767      -0.00000697      -0.00000506
Fe       0.00000008      -0.00000001       0.00000011       0.00000074       0.00000515      -0.00000528
Cl       1.82821925       1.29274703       6.58302854       0.00179007       0.00127011      -0.00000135
Cl       5.77320778       4.08227373       6.58302886      -0.00179415      -0.00127099      -0.00000002
Cl       4.78696017       1.29274596       4.87479853      -0.00089672       0.00127260       0.00155472
Cl       2.81446673       4.08227448       8.29125807       0.00089689      -0.00126554      -0.00155551
Cl       2.81446565       4.08227379       4.87479835       0.00089704      -0.00127094       0.00155683
Cl       4.78696040       1.29274683       8.29125821      -0.00089146       0.00126827      -0.00155225
