9
Lattice="4.567700885909021 8.638703530170092e-08 2.6371634456690094 1.5225669586678083 4.306470182724877 2.63716359245744 -9.772688138292307e-08 1.1067501901125128e-07 5.274327060605951" Properties=species:S:1:pos:R:3:forces:R:3 energy=-52.82186508178711 free_energy=-52.82186508178711 stress="0.00021151035616640002 6.162013566068936e-09 7.301258264647004e-09 6.162013566068936e-09 0.0002114193484885618 1.2282729500157075e-08 7.301258264647004e-09 1.2282729500157075e-08 0.0002115151728503406" pbc="T T T"
Sc       1.52256706       1.07661863       2.63716347      -0.00000045       0.00000711      -0.00000255
Sc       4.56770082       3.22985210       7.91149065       0.00000164      -0.00000453      -0.00000251
Fe      -0.00000004      -0.00000018       0.00000009       0.00000206       0.00000144      -0.00000234
F        1.58549834       1.12111768       5.27432708       0.00075445       0.00053906       0.00000075
F        4.50476932       3.18535257       5.27432714      -0.00075457      -0.00054097       0.00000139
F        3.77495139       1.12111692       4.01024569      -0.00038096       0.00053634       0.00065658
F        2.31531649       3.18535329       6.53840834       0.00037792      -0.00053585      -0.00065394
F        2.31531652       3.18535351       4.01024577       0.00038076      -0.00053861       0.00065707
F        3.77495111       1.12111709       6.53840837      -0.00038111       0.00053577      -0.00065445
