9
Lattice="6.746419920595337 -7.352837573081776e-08 3.8950472721855145 2.248806620982348 6.360585370116718 3.8950471853974333 9.483554740476594e-08 -3.9234406896902134e-08 7.7900943801110305" Properties=species:S:1:pos:R:3:forces:R:3 energy=-27.96190643310547 free_energy=-27.96190643310547 stress="4.987584543414414e-05 4.119356411536046e-09 1.4992378449818489e-09 4.119356411536046e-09 4.986713611287996e-05 -4.006118548005588e-09 1.4992378449818489e-09 -4.006118548005588e-09 4.9865619075717404e-05" pbc="T T T"
Sc       2.24880605       1.59014617       3.89504769      -0.00000235      -0.00000027       0.00000169
Sc       6.74642031       4.77043878      11.68514167       0.00000075      -0.00000139      -0.00000053
Ge      -0.00000000      -0.00000023      -0.00000005      -0.00000031       0.00000086       0.00000091
I        2.33324658       1.64985437       7.79009449       0.00068347       0.00048338       0.00000021
I        6.66198002       4.71073101       7.79009433      -0.00068311      -0.00048342       0.00000007
I        5.57979649       1.64985441       5.91569787      -0.00034104       0.00048285       0.00059113
I        3.41542991       4.71073122       9.66449073       0.00034214      -0.00048326      -0.00059285
I        3.41542996       4.71073080       5.91569788       0.00034114      -0.00048284       0.00059192
I        5.57979725       1.64985446       9.66449069      -0.00034074       0.00048413      -0.00059256
