9
Lattice="6.22138085301465 1.1005233234615012e-07 3.591915964352295 2.0737937077905833 5.865574317803813 3.591915987976236 -1.811532911099012e-07 -9.91614014956803e-08 7.183832242471284" Properties=species:S:1:pos:R:3:forces:R:3 energy=-31.893226623535156 free_energy=-31.893226623535156 stress="6.395280070137233e-05 -2.1911588099499113e-09 -4.633440298107416e-09 -2.1911588099499113e-09 6.395226228050888e-05 6.7344205767483345e-09 -4.633440298107416e-09 6.7344205767483345e-09 6.394676165655255e-05" pbc="T T T"
Sc       2.07379163       1.46639335       3.59191499      -0.00000904      -0.00000056      -0.00000622
Sc       6.22138264       4.39918067      10.77574662       0.00000772       0.00000070      -0.00000823
Ge      -0.00000016      -0.00000010       0.00000002       0.00000320       0.00000036       0.00000332
Br       2.09882013       1.48409047       7.18383244       0.00049895       0.00035408       0.00000159
Br       6.19635411       4.38148412       7.18383275      -0.00049794      -0.00035502       0.00000342
Br       5.17197128       1.48409012       5.40954832      -0.00024864       0.00035189       0.00043787
Br       3.12320374       4.38148398       8.95811647       0.00024879      -0.00035420      -0.00043404
Br       3.12320348       4.38148459       5.40954873       0.00024550      -0.00035170       0.00043756
Br       5.17197076       1.48409012       8.95811651      -0.00024869       0.00035436      -0.00043525
