9
Lattice="5.9724976101636065 2.1484085546248482e-07 3.4482232482107804 1.9908326525420752 5.630925164327063 3.44822339843674 -1.1438343708073918e-08 1.7590035052826915e-07 6.8964465162332305" Properties=species:S:1:pos:R:3:forces:R:3 energy=-35.11375427246094 free_energy=-35.11375427246094 stress="-0.00027411384508013725 1.7380269667910397e-08 -4.0394002809307494e-08 1.7380269667910397e-08 -0.0002740955678746104 2.15301465544826e-09 -4.0394002809307494e-08 2.15301465544826e-09 -0.0002741305797826499" pbc="T T T"
Sc       1.99083262       1.40773077       3.44822290       0.00000042      -0.00000087      -0.00000178
Sc       5.97249842       4.22319455      10.34467097       0.00000646       0.00000494       0.00000691
Ge       0.00000022      -0.00000137       0.00000012       0.00000044       0.00001934      -0.00000539
Cl       1.98597104       1.40429337       6.89644665       0.00501809       0.00354844      -0.00000042
Cl       5.97736087       4.22663314       6.89644649      -0.00503221      -0.00355601      -0.00000288
Cl       4.97951227       1.40429320       5.16812473      -0.00250988       0.00355138       0.00434864
Cl       2.98381692       4.22663204       8.62476924       0.00251076      -0.00355355      -0.00435647
Cl       2.98381709       4.22663319       5.16812284       0.00251687      -0.00355877       0.00435898
Cl       4.97951151       1.40429334       8.62476856      -0.00251083       0.00354514      -0.00434759
