9
Lattice="4.8182336030787445 -1.2765867042569083e-06 2.7818081664093715 1.6060772305916555 4.542670350958679 2.7818071852438546 2.778154729855522e-07 -1.0052322457851694e-06 5.563615851628252" Properties=species:S:1:pos:R:3:forces:R:3 energy=-47.365867614746094 free_energy=-47.365867614746094 stress="0.0006986606167629361 3.7843506106582936e-08 -6.420122389272365e-08 3.7843506106582936e-08 0.0006990096298977733 3.683329552472969e-08 -6.420122389272365e-08 3.683329552472969e-08 0.0006987018859945238" pbc="T T T"
Sc       1.60607884       1.13566674       2.78181154       0.00000324      -0.00001634       0.00003848
Sc       4.81823233       3.40699831       8.34543057      -0.00000285      -0.00001994       0.00005879
Ge       0.00000006      -0.00000052      -0.00000183      -0.00000375       0.00000306       0.00000322
F        1.67197012       1.18226041       5.56361519      -0.00447789      -0.00315925      -0.00001052
F        4.75233869       3.36040890       5.56361317       0.00447240       0.00317249      -0.00003248
F        3.98224745       1.18225888       4.22977575       0.00223064      -0.00315769      -0.00389498
F        2.44206367       3.36040942       6.89745197      -0.00223854       0.00317347       0.00385943
F        2.44206333       3.36041061       4.22977600      -0.00222655       0.00316584      -0.00388691
F        3.98224996       1.18226058       6.89745290       0.00224353      -0.00316180       0.00386521
