9
Lattice="6.627494745403693 7.335642179822128e-09 3.826386040087117 2.209164948199607 6.248462199472561 3.826385994795843 1.8409042388850677e-08 -4.245311367759991e-08 7.652772048288787" Properties=species:S:1:pos:R:3:forces:R:3 energy=-33.38315200805664 free_energy=-33.38315200805664 stress="-6.346304144244641e-05 -2.7978890315694116e-09 6.185253420554204e-10 -2.7978890315694116e-09 -6.345415749819949e-05 -4.218747573503379e-09 6.185253420554204e-10 -4.218747573503379e-09 -6.345992733258754e-05" pbc="T T T"
Sc       2.20916488       1.56211527       3.82638591       0.00000024      -0.00000008      -0.00000013
Sc       6.62749473       4.68634620      11.47915897      -0.00000049      -0.00000184       0.00000551
Mn       0.00000011      -0.00000028       0.00000034       0.00000183       0.00000382      -0.00000117
I        2.21716476       1.56777254       7.65277187      -0.00162180      -0.00114521      -0.00000022
I        6.61949517       4.68069016       7.65277166       0.00161749       0.00114334      -0.00000277
I        5.51891231       1.56777246       5.74650699       0.00081117      -0.00114451      -0.00140330
I        3.31774705       4.68069001       9.55903698      -0.00081103       0.00114561       0.00140132
I        3.31774752       4.68068998       5.74650671      -0.00080822       0.00114486      -0.00140230
I        5.51891228       1.56777234       9.55903687       0.00081077      -0.00114591       0.00140312
