9
Lattice="5.724878058536109 4.279441707884774e-08 3.3052598844257957 1.9082926831522078 5.397467034018583 3.305259959550871 -5.024452920290006e-08 5.648076051819676e-08 6.610519855877668" Properties=species:S:1:pos:R:3:forces:R:3 energy=-42.090518951416016 free_energy=-42.090518951416016 stress="0.00031098100589588284 -2.695879075531593e-09 6.65244970221579e-09 -2.695879075531593e-09 0.0003111116529908031 -3.152099248282525e-09 6.65244970221579e-09 -3.152099248282525e-09 0.0003109468671027571" pbc="T T T"
Sc       1.90829421       1.34936885       3.30526120       0.00001167       0.00001594       0.00000828
Sc       5.72487751       4.04809816       9.91578102      -0.00000553      -0.00001821       0.00000577
Mn       0.00000005       0.00000013      -0.00000072      -0.00000228      -0.00000286       0.00001589
Cl       1.88822854       1.33517987       6.61051947       0.00266041       0.00188516      -0.00000157
Cl       5.74494183       4.06228740       6.61051941      -0.00265947      -0.00188150      -0.00000378
Cl       4.78076279       1.33518045       4.94051313      -0.00133169       0.00188447       0.00229545
Cl       2.85240688       4.06228763       8.28052580       0.00133330      -0.00188833      -0.00230842
Cl       2.85240706       4.06228635       4.94051335       0.00132824      -0.00188445       0.00229560
Cl       4.78076385       1.33517965       8.28052606      -0.00133478       0.00188974      -0.00230717
