9
Lattice="5.777507238269543 1.3759168964107436e-07 3.33564549198332 1.9258358526477093 5.447086417094186 3.3356455321059473 -2.6154228128958705e-08 3.064620177470208e-08 6.671291029267056" Properties=species:S:1:pos:R:3:forces:R:3 energy=-36.54910659790039 free_energy=-36.54910659790039 stress="0.00015848735347390175 -2.1672063255095964e-08 -1.893299916844171e-08 -2.1672063255095964e-08 0.00015849772898945957 4.2088132978790327e-10 -1.893299916844171e-08 4.2088132978790327e-10 0.00015849577903281897" pbc="T T T"
Sc       1.92583619       1.36177240       3.33564617       0.00000284       0.00000648       0.00000328
Sc       5.77750754       4.08531488      10.00693584       0.00000340      -0.00000117      -0.00000402
Mg      -0.00000007       0.00000004      -0.00000034      -0.00000114      -0.00000102       0.00000889
Cl       1.93920306       1.37122344       6.67129101       0.00136019       0.00096305      -0.00000071
Cl       5.76414005       4.07586268       6.67129084      -0.00136036      -0.00096308       0.00000104
Cl       4.80790537       1.37122390       5.01504451      -0.00068131       0.00095938       0.00117508
Cl       2.89543716       4.07586263       8.32753773       0.00068020      -0.00096522      -0.00117947
Cl       2.89543695       4.07586231       5.01504484       0.00067595      -0.00096254       0.00117630
Cl       4.80790602       1.37122408       8.32753765      -0.00067993       0.00096416      -0.00118069
