9
Lattice="6.082241565976448 5.7223118717922905e-08 3.511583749383044 2.0274139029737808 5.7343924788681155 3.511583760298739 -6.408039767951929e-08 -3.194276316776053e-08 7.02316760975659" Properties=species:S:1:pos:R:3:forces:R:3 energy=-32.37190246582031 free_energy=-32.37190246582031 stress="0.0002592533710412681 -7.671435930944881e-09 -3.0659914607156225e-09 -7.671435930944881e-09 0.00025925113004632294 1.9760753033892797e-08 -3.0659914607156225e-09 1.9760753033892797e-08 0.00025924871442839503" pbc="T T T"
Sc       2.02741400       1.43359855       3.51158470       0.00000196       0.00000409       0.00000608
Sc       6.08224150       4.30079373      10.53474989      -0.00000083      -0.00000369      -0.00000835
Mg       0.00000012       0.00000019      -0.00000017       0.00000095      -0.00000085      -0.00000086
Br       2.06020944       1.45678834       7.02316729      -0.00010315      -0.00007175      -0.00000223
Br       6.04944602       4.27760430       7.02316802       0.00010151       0.00007218       0.00000224
Br       5.05213640       1.45678824       5.29577764       0.00005004      -0.00007349      -0.00008954
Br       3.05751856       4.27760433       8.75055769      -0.00005085       0.00007279       0.00008938
Br       3.05751854       4.27760394       5.29577753      -0.00005126       0.00007087      -0.00008728
Br       5.05213704       1.45678839       8.75055792       0.00005168      -0.00007024       0.00009055
