9
Lattice="6.672207666886623 -5.266743312731977e-09 3.8522008904790987 2.2240691790164338 6.290617783986868 3.852200956840141 -1.984180359072447e-08 6.724506203640451e-08 7.70440181532521" Properties=species:S:1:pos:R:3:forces:R:3 energy=-27.307458877563477 free_energy=-27.307458877563477 stress="7.12910114089027e-05 5.130998292912636e-09 6.882513226003084e-09 5.130998292912636e-09 7.130823360057548e-05 -4.152337140794771e-09 6.882513226003084e-09 -4.152337140794771e-09 7.130267476895824e-05" pbc="T T T"
Sc       2.22406927       1.57265403       3.85220099       0.00000219      -0.00000259      -0.00000013
Sc       6.67220766       4.71796331      11.55660273       0.00000025      -0.00000094      -0.00000242
Mg      -0.00000002       0.00000016      -0.00000018       0.00000113      -0.00000010       0.00000296
I        2.27931127       1.61171662       7.70440174       0.00121755       0.00086135       0.00000086
I        6.61696541       4.67890145       7.70440173      -0.00121873      -0.00086115       0.00000138
I        5.53255187       1.61171677       5.82614245      -0.00060936       0.00086051       0.00105414
I        3.36372486       4.67890134       9.58266124       0.00060946      -0.00086174      -0.00105442
I        3.36372493       4.67890119       5.82614273       0.00060742      -0.00085852       0.00105351
I        5.53255205       1.61171654       9.58266123      -0.00060984       0.00086320      -0.00105592
