9
Lattice="5.968783128791553 -1.7173565312133303e-07 3.4460784685190062 1.9895941839979145 5.627422406905348 3.4460785210902114 -1.0794070851650943e-07 -1.1939288691982264e-08 6.892157123996746" Properties=species:S:1:pos:R:3:forces:R:3 energy=-38.36030578613281 free_energy=-38.36030578613281 stress="7.492546137655154e-05 -1.5994494617643795e-08 6.470617108789156e-08 -1.5994494617643795e-08 7.496411126339808e-05 4.222726346370109e-08 6.470617108789156e-08 4.222726346370109e-08 7.492418808396906e-05" pbc="T T T"
Sc       1.98959601       1.40685711       3.44607657       0.00000759       0.00000823      -0.00000891
Sc       5.96878307       4.22056545      10.33823907      -0.00000001      -0.00000609       0.00001741
Mn       0.00000009      -0.00000001      -0.00000082      -0.00000480      -0.00000054       0.00001455
Br       1.92611031       1.36196635       6.89215724       0.00217143       0.00153809       0.00000394
Br       6.03226614       4.26545579       6.89215617      -0.00216785      -0.00153349      -0.00000312
Br       5.00572723       1.36196692       5.11413973      -0.00108110       0.00153028       0.00186839
Br       2.95264890       4.26545607       8.67017458       0.00108516      -0.00154407      -0.00188278
Br       2.95265041       4.26545578       5.11413932       0.00108298      -0.00152973       0.00187164
Br       5.00572662       1.36196536       8.67017464      -0.00109338       0.00153726      -0.00188120
