9
Lattice="4.630855826616911 5.069367114957394e-08 2.673625652218855 1.5436186344312952 4.366012774928358 2.6736256907318063 -4.3105849182680996e-08 1.66880982965657e-08 5.347251379099246" Properties=species:S:1:pos:R:3:forces:R:3 energy=-51.49951171875 free_energy=-51.49951171875 stress="0.0004798340378329158 3.2549327677600104e-09 -6.721269762977045e-09 3.2549327677600104e-09 0.00047977559734135866 1.3611051841166955e-08 -6.721269762977045e-09 1.3611051841166955e-08 0.0004797207657247782" pbc="T T T"
Sc       1.54361835       1.09150328       2.67362592      -0.00000124      -0.00000134       0.00000248
Sc       4.63085586       3.27450974       8.02087716      -0.00000059       0.00000246      -0.00000005
Mg      -0.00000008       0.00000011       0.00000008      -0.00000096       0.00000110       0.00000262
F        1.55954602       1.10276531       5.34725126      -0.00696865      -0.00492612      -0.00000065
F        4.61492853       3.26324736       5.34725117       0.00696930       0.00492541      -0.00000070
F        3.85108285       1.10276533       4.02423198       0.00348367      -0.00492771      -0.00603363
F        2.32339170       3.26324739       6.67027071      -0.00348130       0.00492539       0.00603053
F        2.32339160       3.26324741       4.02423187      -0.00348455       0.00492585      -0.00603223
F        3.85108279       1.10276529       6.67027089       0.00348434      -0.00492477       0.00603142
