9
Lattice="6.225111767217109 1.7105758811061084e-07 3.5940703545893364 2.0750374793219475 5.869091077648611 3.5940702466683008 1.9603754894230152e-07 6.443743890522313e-09 7.188140369631693" Properties=species:S:1:pos:R:3:forces:R:3 energy=-37.64012908935547 free_energy=-37.64012908935547 stress="-8.65358451846987e-05 -5.255303747730977e-09 -6.9521299828068095e-09 -5.255303747730977e-09 -8.657015132484958e-05 -1.1864440985220881e-08 -6.9521299828068095e-09 -1.1864440985220881e-08 -8.658094884594902e-05" pbc="T T T"
Sc       2.07503715       1.46727246       3.59407245      -0.00000074      -0.00000206       0.00001094
Sc       6.22511066       4.40181805      10.78221217      -0.00000730      -0.00000060       0.00000566
Nb       0.00000032      -0.00000018      -0.00000033      -0.00000506       0.00000148      -0.00000331
Br       2.10626877       1.48935654       7.18813918      -0.00046998      -0.00033475      -0.00000394
Br       6.19388071       4.37973483       7.18814024       0.00047532       0.00033744      -0.00000265
Br       5.17197802       1.48935690       5.41815189       0.00023614      -0.00033137      -0.00041205
Br       3.12817205       4.37973518       8.95812825      -0.00023425       0.00033368       0.00040647
Br       3.12817179       4.37973469       5.41815192      -0.00023293       0.00033194      -0.00041083
Br       5.17197830       1.48935654       8.95812823       0.00023870      -0.00033578       0.00040969
