9
Lattice="4.518224985363408 -9.286654937592725e-08 2.608598387692824 1.5060749528709072 4.2598230039589415 2.6085983092219327 3.6956454333410064e-08 -6.99746531307156e-08 5.217196711375189" Properties=species:S:1:pos:R:3:forces:R:3 energy=-49.95575714111328 free_energy=-49.95575714111328 stress="0.00014638078573625535 -3.006820747941674e-08 -3.834878370412298e-08 -3.006820747941674e-08 0.00014649312652181834 2.6229225014162694e-08 -3.834878370412298e-08 2.6229225014162694e-08 0.00014641262532677501" pbc="T T T"
Sc       1.50607494       1.06495563       2.60859813      -0.00000183      -0.00000223      -0.00000097
Sc       4.51822505       3.19486744       7.82579499       0.00000095       0.00000348      -0.00000014
Ni      -0.00000012      -0.00000030      -0.00000004      -0.00000017       0.00000430      -0.00000296
F        1.53719226       1.08695882       5.21719671       0.00002980       0.00002025      -0.00000086
F        4.48710761       3.17286379       5.21719689      -0.00002974      -0.00002083       0.00000072
F        3.74962895       1.08695909       3.93984604      -0.00001466       0.00002088       0.00002402
F        2.27467118       3.17286365       6.49454756       0.00001343      -0.00002068      -0.00002497
F        2.27467106       3.17286419       3.93984591       0.00001644      -0.00002256       0.00002939
F        3.74962888       1.08695893       6.49454742      -0.00001402       0.00001711      -0.00002423
