9
Lattice="4.902018072558804 2.498611820152767e-07 2.830182546111216 1.6340064620728236 4.6216679625910615 2.83018219569109 5.989229749077729e-07 -5.672838776934546e-09 5.660364054857608" Properties=species:S:1:pos:R:3:forces:R:3 energy=-54.64826202392578 free_energy=-54.64826202392578 stress="-0.00012402303400449455 -3.607468670452363e-07 -2.1422047780106368e-07 -3.607468670452363e-07 -0.00012564969074446708 -1.2432629148406704e-07 -2.1422047780106368e-07 -1.2432629148406704e-07 -0.00012509046064224094" pbc="T T T"
Sc       1.63400131       1.15542119       2.83017506      -0.00005116       0.00004329      -0.00006153
Sc       4.90201624       3.46624916       8.49054191      -0.00000830      -0.00002367      -0.00004540
Nb       0.00000066       0.00000071      -0.00000224      -0.00000323      -0.00000069       0.00000142
F        1.70224862       1.20367687       5.66037168       0.00428200       0.00305009       0.00004442
F        4.83377847       3.41799029       5.66036868      -0.00426292      -0.00306422       0.00002567
F        4.05089931       1.20367352       4.30437670      -0.00210485       0.00303507       0.00373226
F        2.48513076       3.41799087       7.01635554       0.00214416      -0.00305945      -0.00369889
F        2.48512862       3.41799412       4.30437414       0.00213119      -0.00303280       0.00371516
F        4.05089659       1.20367586       7.01635338      -0.00212717       0.00305259      -0.00371331
