9
Lattice="5.979489477885808 -7.441136608746021e-08 3.4522597008897966 1.993163077604377 5.637516388490271 3.452259720869332 -3.610713606564763e-08 -1.0617534503437447e-09 6.904519464318971" Properties=species:S:1:pos:R:3:forces:R:3 energy=-34.036773681640625 free_energy=-34.036773681640625 stress="9.87739404081367e-05 6.746501579613096e-09 -3.931516889821296e-09 6.746501579613096e-09 9.877120464807376e-05 -9.031870362719019e-09 -3.931516889821296e-09 -9.031870362719019e-09 9.87675302894786e-05" pbc="T T T"
Sc       1.99316327       1.40937878       3.45225973      -0.00000153      -0.00000175       0.00000241
Sc       5.97948952       4.22813753      10.35677913       0.00000023       0.00000085      -0.00000082
Ni      -0.00000005      -0.00000006      -0.00000021       0.00000128       0.00000039      -0.00000047
Br       1.97519643       1.39667485       6.90451935       0.00084648       0.00059746       0.00000084
Br       5.99745595       4.24084136       6.90451946      -0.00084731      -0.00059798       0.00000054
Br       4.99189107       1.39667478       5.16283005      -0.00042417       0.00059791       0.00073315
Br       2.98076136       4.24084181       8.64620898       0.00042459      -0.00059774      -0.00073393
Br       2.98076127       4.24084161       5.16283003       0.00042313      -0.00059824       0.00073233
Br       4.99189129       1.39667457       8.64620900      -0.00042268       0.00059901      -0.00073417
