9
Lattice="5.691687375698982 4.933309913853793e-08 3.286097244071403 1.8972292160391024 5.3661742556771 3.2860971673511514 1.977052405727648e-08 -7.99827949016826e-08 6.5721944538992" Properties=species:S:1:pos:R:3:forces:R:3 energy=-37.38901138305664 free_energy=-37.38901138305664 stress="0.00013479952758643776 1.8674624513437266e-08 -4.0036415072108866e-08 1.8674624513437266e-08 0.00013476423919200897 -2.5556758487255138e-08 -4.0036415072108866e-08 -2.5556758487255138e-08 0.00013479901826940477" pbc="T T T"
Sc       1.89722855       1.34154558       3.28609796      -0.00000266       0.00001284       0.00000466
Sc       5.69168720       4.02463058       9.85829050      -0.00000191      -0.00000174      -0.00000556
Ni       0.00000013      -0.00000023       0.00000025       0.00000027       0.00000106      -0.00000365
Cl       1.87597210       1.32651251       6.57219399       0.00115075       0.00081274      -0.00000206
Cl       5.71294494       4.03966121       6.57219498      -0.00114918      -0.00081921       0.00000241
Cl       4.75370162       1.32651218       4.91073660      -0.00057629       0.00081567       0.00099734
Cl       2.83521519       4.03966135       8.23365252       0.00057561      -0.00081586      -0.00099324
Cl       2.83521482       4.03966134       4.91073632       0.00057647      -0.00081953       0.00099654
Cl       4.75370193       1.32651243       8.23365233      -0.00057313       0.00081401      -0.00099646
