9
Lattice="6.519979201069205 5.474494641030864e-09 3.764311780444783 2.1733264107749806 6.147095275378062 3.76431177133909 1.0168572174299283e-08 -3.961871546610709e-09 7.528623543277003" Properties=species:S:1:pos:R:3:forces:R:3 energy=-29.581274032592773 free_energy=-29.581274032592773 stress="0.00020371486607473344 -2.9728561834474476e-09 -3.253879388154246e-09 -2.9728561834474476e-09 0.00020374006999190897 5.552464266145307e-09 -3.253879388154246e-09 5.552464266145307e-09 0.0002037277299677953" pbc="T T T"
Sc       2.17332683       1.53677442       3.76431147       0.00000117       0.00000401      -0.00000155
Sc       6.51997895       4.61032104      11.29293591      -0.00000076      -0.00000260       0.00000418
Ni      -0.00000005       0.00000006      -0.00000002      -0.00000066      -0.00000089       0.00000058
I        2.16263453       1.52921386       7.52862365      -0.00099044      -0.00070001       0.00000045
I        6.53067097       4.61788145       7.52862328       0.00099081       0.00070043      -0.00000089
I        5.43866196       1.52921380       5.63720824       0.00049523      -0.00070066      -0.00085863
I        3.25464367       4.61788135       9.42003884      -0.00049553       0.00069971       0.00085685
I        3.25464389       4.61788144       5.63720816      -0.00049439       0.00070011      -0.00085838
I        5.43866174       1.52921366       9.42003885       0.00049446      -0.00070016       0.00085748
