9
Lattice="6.593929922665057 -2.2700661845908075e-08 3.8070072619978124 2.1979766337994984 6.216816715981639 3.8070072372059935 -9.299964369088521e-09 -3.693970484084431e-08 7.614014540103636" Properties=species:S:1:pos:R:3:forces:R:3 energy=-29.459808349609375 free_energy=-29.459808349609375 stress="0.00024049643252510577 -9.000435063910572e-09 -4.326840663537723e-09 -9.000435063910572e-09 0.00024050801584962755 3.3319784709107125e-09 -4.326840663537723e-09 3.3319784709107125e-09 0.000240514607867226" pbc="T T T"
Sc       2.19797677       1.55420449       3.80700737       0.00000062       0.00000242      -0.00000041
Sc       6.59392948       4.66261196      11.42102112      -0.00000140      -0.00000293      -0.00000181
Pd      -0.00000008      -0.00000003       0.00000003       0.00000146      -0.00000092      -0.00000157
I        2.21037753       1.56297304       7.61401451       0.00034190       0.00024128       0.00000007
I        6.58152908       4.65384366       7.61401478      -0.00034270      -0.00024249       0.00000017
I        5.48874094       1.56297310       5.72125052      -0.00017079       0.00024219       0.00029608
I        3.30316573       4.65384349       9.50677862       0.00017067      -0.00024060      -0.00029337
I        3.30316554       4.65384348       5.72125059       0.00017012      -0.00024150       0.00029501
I        5.48874120       1.56297340       9.50677864      -0.00016989       0.00024262      -0.00029415
