9
Lattice="4.624397169350189 2.591816042179488e-09 2.669897116003133 1.5414657218146226 4.359923652085217 2.6698971224908568 -2.5174297648653725e-08 -9.855106402555899e-09 5.33979427560943" Properties=species:S:1:pos:R:3:forces:R:3 energy=-48.288238525390625 free_energy=-48.288238525390625 stress="0.0005609572981484234 -8.569211473741234e-08 -8.837844944764583e-08 -8.569211473741234e-08 0.0005609597428701818 -9.043083615267733e-09 -8.837844944764583e-08 -9.043083615267733e-09 0.0005609751679003239" pbc="T T T"
Sc       1.54146539       1.08998025       2.66989647      -0.00000482      -0.00000453      -0.00000883
Sc       4.62439725       3.26994268       8.00969217       0.00000048      -0.00000217       0.00000908
Pd      -0.00000017       0.00000001      -0.00000007      -0.00000067      -0.00000368       0.00000222
F        1.64790974       1.16524831       5.33979503      -0.00710370      -0.00502222       0.00000686
F        4.51795284       3.19467532       5.33979369       0.00710714       0.00502454      -0.00000621
F        3.80044254       1.16524882       4.09702911       0.00355604      -0.00502251      -0.00615705
F        2.36542074       3.19467552       6.58255927      -0.00355325       0.00502714       0.00615529
F        2.36542046       3.19467541       4.09702937      -0.00355389       0.00502663      -0.00615253
F        3.80044251       1.16524817       6.58255920       0.00355274      -0.00502309       0.00615183
