9
Lattice="6.684037694653711 4.093223549295538e-08 3.859030905883237 2.228012641591777 6.301771237686745 3.859030839864424 6.969143044232599e-08 -3.157687605941432e-08 7.718061691057377" Properties=species:S:1:pos:R:3:forces:R:3 energy=-25.82296371459961 free_energy=-25.82296371459961 stress="5.823476385558024e-05 -1.6973875638370828e-09 4.393011732162222e-09 -1.6973875638370828e-09 5.822872117278166e-05 5.017037008059333e-09 4.393011732162222e-09 5.017037008059333e-09 5.823137325933203e-05" pbc="T T T"
Sc       2.22801198       1.57544261       3.85903085      -0.00000178      -0.00000145      -0.00000054
Sc       6.68403832       4.72632870      11.57709377       0.00000180       0.00000197       0.00000486
S        0.00000009       0.00000018       0.00000004       0.00000019      -0.00000024      -0.00000025
I        2.35343249       1.66412776       7.71806169       0.00251341       0.00177713      -0.00000047
I        6.55861818       4.63764334       7.71806121      -0.00251395      -0.00177766      -0.00000221
I        5.50732173       1.66412795       5.89716296      -0.00125592       0.00177799       0.00217721
I        3.40472857       4.63764334       9.53896004       0.00125532      -0.00177670      -0.00217789
I        3.40472870       4.63764348       5.89716288       0.00125735      -0.00177673       0.00217746
I        5.50732159       1.66412765       9.53896024      -0.00125647       0.00177571      -0.00217813
