9
Lattice="6.249460032999698 1.68857412312636e-08 3.6081276742362838 2.0831533739654304 5.892047136440281 3.6081276504862263 4.699660098778811e-08 4.143747122484034e-09 7.216255267072092" Properties=species:S:1:pos:R:3:forces:R:3 energy=-29.018808364868164 free_energy=-29.018808364868164 stress="-1.1612312846409623e-05 -8.795641548431377e-09 -2.1899964508520497e-08 -8.795641548431377e-09 -1.1591465408855584e-05 -1.2003706473251441e-08 -2.1899964508520497e-08 -1.2003706473251441e-08 -1.156832240667427e-05" pbc="T T T"
Sc       2.08315274       1.47301083       3.60812608      -0.00000391      -0.00000558      -0.00000829
Sc       6.24945763       4.41903543      10.82438795      -0.00001287       0.00000008       0.00002680
S        0.00000037       0.00000013      -0.00000030      -0.00000109      -0.00000055       0.00000090
Br       2.13211818       1.50763459       7.21625505      -0.00103366      -0.00073433       0.00000292
Br       6.20049567       4.38441199       7.21625365       0.00103867       0.00073507      -0.00000902
Br       5.18340254       1.50763578       5.45459529       0.00052422      -0.00072861      -0.00090057
Br       3.14921202       4.38441306       8.97791519      -0.00051716       0.00073230       0.00089377
Br       3.14921365       4.38441299       5.45459493      -0.00050890       0.00073734      -0.00090134
Br       5.18340106       1.50763388       8.97791467       0.00051498      -0.00073549       0.00089461
