9
Lattice="6.037155055111324 3.466308832575793e-07 3.485553564265373 2.012385302861998 5.691885315765479 3.4855536375573295 6.745550953591295e-08 1.3746219670153814e-07 6.9711070116943965" Properties=species:S:1:pos:R:3:forces:R:3 energy=-31.1866397857666 free_energy=-31.1866397857666 stress="4.2110921640414745e-05 -3.171209073116188e-08 -4.493029948093863e-08 -3.171209073116188e-08 4.1983978007920086e-05 -3.607018328466438e-08 -4.493029948093863e-08 -3.607018328466438e-08 4.2046049202326685e-05" pbc="T T T"
Sc       2.01238566       1.42297735       3.48555208       0.00000111       0.00004482      -0.00001296
Sc       6.03716088       4.26891371      10.45666766       0.00004065      -0.00000501       0.00004984
S       -0.00000036      -0.00000030      -0.00000050      -0.00000590      -0.00000288      -0.00000206
Cl       2.07009241       1.46377818       6.97110633      -0.00057793      -0.00039911       0.00000062
Cl       5.97944701       4.22810754       6.97110482       0.00057572       0.00039685      -0.00001910
Cl       5.00211031       1.46377801       5.27830743       0.00029236      -0.00039816      -0.00049829
Cl       3.04742784       4.22810550       8.66390676      -0.00031254       0.00038642       0.00049043
Cl       3.04743015       4.22810670       5.27830644      -0.00029376       0.00039196      -0.00049967
Cl       5.00210770       1.46377660       8.66390582       0.00028020      -0.00041503       0.00049102
