9
Lattice="4.438040197329007 -7.189185708368619e-09 2.5623034888629097 1.4793467331412198 4.184224224725912 2.5623034759136627 6.816126610264787e-08 3.233776903635079e-08 5.124606859667053" Properties=species:S:1:pos:R:3:forces:R:3 energy=-44.6268424987793 free_energy=-44.6268424987793 stress="0.00015884441381786019 6.1234777248841965e-09 -1.3196341797083733e-07 6.1234777248841965e-09 0.00015910909860394895 -2.1191715049440063e-08 -1.3196341797083733e-07 -2.1191715049440063e-08 0.00015915511175990105" pbc="T T T"
Sc       1.47934676       1.04605580       2.56230203       0.00000031      -0.00000141      -0.00001691
Sc       4.43803988       3.13816806       7.68690874      -0.00000545      -0.00000254      -0.00002155
S       -0.00000005      -0.00000001       0.00000023       0.00000080       0.00000495      -0.00000538
F        1.61752774       1.14376497       5.12460688       0.00043249       0.00030762       0.00000381
F        4.29985947       3.04045954       5.12460763      -0.00043762      -0.00030869       0.00001079
F        3.62927646       1.14376476       3.96312376      -0.00021559       0.00030720       0.00037861
F        2.28811094       3.04045899       6.28609115       0.00022233      -0.00031245      -0.00036740
F        2.28811105       3.04046003       3.96312386       0.00022346      -0.00030124       0.00038278
F        3.62927564       1.14376492       6.28609097      -0.00022084       0.00030529      -0.00036430
