9
Lattice="4.773882741205303 2.598629702332687e-07 2.7562025831500683 1.5912944573740422 4.500859911546733 2.756202643244529 1.9754475863132381e-07 2.132856433886327e-07 5.512404824142555" Properties=species:S:1:pos:R:3:forces:R:3 energy=-55.567359924316406 free_energy=-55.567359924316406 stress="0.00016782527382019907 -1.0784483350789742e-07 -1.6318518092361955e-08 -1.0784483350789742e-07 0.0001678619155427441 -3.3828040812977633e-08 -1.6318518092361955e-08 -3.3828040812977633e-08 0.00016802393656689674" pbc="T T T"
Sc       1.59129473       1.12521649       2.75620205      -0.00000186       0.00001245      -0.00000810
Sc       4.77388162       3.37564347       8.26860599      -0.00001071      -0.00001089      -0.00000469
Ti      -0.00000040       0.00000053       0.00000095       0.00000523       0.00000019      -0.00000181
F        1.61750190       1.14374708       5.51240558      -0.00664145      -0.00469220       0.00000390
F        4.74767634       3.35711308       5.51240397       0.00663817       0.00468805       0.00000129
F        3.96513225       1.14374779       4.15700131       0.00332361      -0.00469404      -0.00575295
F        2.40004475       3.35711316       6.86781030      -0.00331870       0.00469306       0.00575820
F        2.40004611       3.35711293       4.15700074      -0.00331885       0.00469539      -0.00575471
F        3.96513236       1.14374725       6.86780953       0.00332460      -0.00469214       0.00575888
