9
Lattice="6.7825861819707685 -3.098279496905421e-08 3.9159279708822856 2.260862062049897 6.394683197968018 3.915927917874857 3.660036340747942e-08 -3.904019236603418e-08 7.831855878370875" Properties=species:S:1:pos:R:3:forces:R:3 energy=-32.80646896362305 free_energy=-32.80646896362305 stress="5.087132376502268e-05 1.8098659237963943e-09 1.4570715745065854e-09 1.8098659237963943e-09 5.08693337906152e-05 -7.91724019677531e-09 1.4570715745065854e-09 -7.91724019677531e-09 5.087063618702814e-05" pbc="T T T"
Sc       2.26086199       1.59867094       3.91592839       0.00000086       0.00000152       0.00000180
Sc       6.78258646       4.79601229      11.74778296       0.00000071      -0.00000124      -0.00000359
Ti      -0.00000009      -0.00000011       0.00000000       0.00000046      -0.00000051       0.00000092
I        2.26715774       1.60312262       7.83185568       0.00127205       0.00089928      -0.00000026
I        6.77629042       4.79156091       7.83185613      -0.00127293      -0.00089940       0.00000122
I        5.64900739       1.60312261       5.87934421      -0.00063615       0.00089931       0.00110230
I        3.39444089       4.79156048       9.78436775       0.00063599      -0.00089966      -0.00110187
I        3.39444083       4.79156019       5.87934420       0.00063477      -0.00089960       0.00110130
I        5.64900750       1.60312262       9.78436778      -0.00063583       0.00090024      -0.00110182
