9
Lattice="5.826013995175127 -1.590823094993949e-07 3.3636506607300785 1.942004567887005 5.492818054797232 3.3636505692555336 1.485670523138503e-07 -6.98021435938868e-09 6.727301064134513" Properties=species:S:1:pos:R:3:forces:R:3 energy=-41.12847900390625 free_energy=-41.12847900390625 stress="7.921676296973601e-05 2.2985362946315036e-08 -4.474345871585683e-08 2.2985362946315036e-08 7.929013372631744e-05 1.1536993582694777e-08 -4.474345871585683e-08 1.1536993582694777e-08 7.92554856161587e-05" pbc="T T T"
Sc       1.94200188       1.37320468       3.36365153      -0.00001812       0.00000413       0.00000941
Sc       5.82601604       4.11961287      10.09094801       0.00001204      -0.00000232      -0.00002452
Ti       0.00000019      -0.00000005       0.00000031      -0.00000484       0.00000197      -0.00000050
Cl       1.95480199       1.38225390       6.72730049       0.00130042       0.00092533      -0.00000342
Cl       5.81321691       4.11056383       6.72730292      -0.00129884      -0.00092360       0.00000990
Cl       4.84861324       1.38225319       5.05655998      -0.00064515       0.00091469       0.00113028
Cl       2.91940574       4.11056484       8.39804319       0.00065179      -0.00092039      -0.00113025
Cl       2.91940542       4.11056416       5.05655923       0.00064790      -0.00092375       0.00113520
Cl       4.84861324       1.38225415       8.39804356      -0.00064506       0.00092411      -0.00112596
