9
Lattice="6.168355515938955 -4.174076321546903e-08 3.5613019894367346 2.0561185930252917 5.815580684529943 3.561301769352165 8.294976343234855e-08 -2.1089311991792427e-07 7.122603835200291" Properties=species:S:1:pos:R:3:forces:R:3 energy=-37.405155181884766 free_energy=-37.405155181884766 stress="-4.4052712837583385e-06 1.1005192313007228e-09 6.54194431959354e-09 1.1005192313007228e-09 -4.405591425893363e-06 1.016882666959873e-08 6.54194431959354e-09 1.016882666959873e-08 -4.39689983977587e-06" pbc="T T T"
Sc       2.05611903       1.45389461       3.56130175       0.00000224      -0.00000069      -0.00000142
Sc       6.16835538       4.36168617      10.68390779       0.00000024       0.00000222       0.00000816
Ti      -0.00000027      -0.00000021      -0.00000031       0.00000324      -0.00000091      -0.00000186
Br       2.05939844       1.45621405       7.12260413       0.00015083       0.00010540      -0.00000034
Br       6.16507598       4.35936665       7.12260315      -0.00015354      -0.00010732      -0.00000424
Br       5.13865664       1.45621418       5.34479256      -0.00007664       0.00010855       0.00013185
Br       3.08581761       4.35936576       8.90041474       0.00007279      -0.00010507      -0.00013030
Br       3.08581748       4.35936634       5.34479227       0.00007683      -0.00010656       0.00013044
Br       5.13865643       1.45621414       8.90041429      -0.00007597       0.00010440      -0.00013241
