9
Lattice="6.092235976003836 3.422631860090826e-08 3.517354094466307 2.0307453932870496 5.743814894461331 3.517354032660586 9.942637859638866e-08 -5.391165785448733e-09 7.034708016721064" Properties=species:S:1:pos:R:3:forces:R:3 energy=-37.918827056884766 free_energy=-37.918827056884766 stress="0.00022731228091288358 3.837168449649653e-08 1.0301947739321804e-08 3.837168449649653e-08 0.00022723372967448086 1.3622173389293835e-09 1.0301947739321804e-08 1.3622173389293835e-09 0.0002272646379424259" pbc="T T T"
Sc       2.03074482       1.43595261       3.51735444      -0.00000222      -0.00000559       0.00000128
Sc       6.09223623       4.30786335      10.55206216      -0.00000028       0.00001152       0.00000055
V        0.00000025       0.00000012      -0.00000023      -0.00000352      -0.00000245      -0.00000088
Br       2.03237078       1.43710258       7.03470786       0.00018317       0.00012522      -0.00000057
Br       6.09061072       4.30671212       7.03470821      -0.00017947      -0.00012539      -0.00000005
Br       5.07605083       1.43710245       5.27743871      -0.00009127       0.00012735       0.00015910
Br       3.04693068       4.30671218       8.79197754       0.00009255      -0.00012825      -0.00015981
Br       3.04693073       4.30671194       5.27743861       0.00009131      -0.00012756       0.00015908
Br       5.07605080       1.43710230       8.79197725      -0.00009023       0.00012522      -0.00015887
