9
Lattice="6.674163814936913 -9.549548165059332e-08 3.8533302562791323 2.22472118493948 6.292461971539787 3.853330250515147 -3.502225431965442e-08 -3.182388974318453e-08 7.706660573218599" Properties=species:S:1:pos:R:3:forces:R:3 energy=-33.35356521606445 free_energy=-33.35356521606445 stress="0.0001795612188288942 -3.363055611771415e-09 4.880466697443353e-09 -3.363055611771415e-09 0.00017956036026589572 -5.565345961855428e-09 4.880466697443353e-09 -5.565345961855428e-09 0.00017956319788936526" pbc="T T T"
Sc       2.22472165       1.57311572       3.85333025       0.00000025      -0.00000054      -0.00000068
Sc       6.67416400       4.71934607      11.55999133       0.00000200      -0.00000078       0.00000285
V       -0.00000024      -0.00000013      -0.00000017       0.00000158       0.00000030       0.00000110
I        2.21717115       1.56777695       7.70666051       0.00133853       0.00094779      -0.00000019
I        6.68171364       4.72468496       7.70666030      -0.00133944      -0.00094751       0.00000027
I        5.56557804       1.56777712       5.77345691      -0.00067013       0.00094717       0.00115820
I        3.33330661       4.72468507       9.63986415       0.00066882      -0.00094722      -0.00116031
I        3.33330698       4.72468496       5.77345688       0.00066837      -0.00094627       0.00115842
I        5.56557801       1.56777667       9.63986414      -0.00066992       0.00094700      -0.00115962
