9
Lattice="4.851111634141453 -5.501622938997672e-07 2.800791530793026 1.6170367837574686 4.573671233431419 2.8007913730466534 -3.5515515807025024e-07 -4.4433172649613697e-07 5.601583676732901" Properties=species:S:1:pos:R:3:forces:R:3 energy=-54.36040115356445 free_energy=-54.36040115356445 stress="0.0004160966200288385 4.635233707972475e-08 -6.311757783095118e-09 4.635233707972475e-08 0.00041605494334362447 5.964467675312335e-08 -6.311757783095118e-09 5.964467675312335e-08 0.0004156619543209672" pbc="T T T"
Sc       1.61703448       1.14341876       2.80079940      -0.00002048       0.00001129       0.00005453
Sc       4.85111306       3.43025923       8.40237746       0.00001957       0.00005582       0.00002848
V        0.00000301       0.00000123      -0.00000105      -0.00007565      -0.00003732       0.00002944
F        1.59778328       1.12979936       5.60158051      -0.00205362      -0.00148284      -0.00003089
F        4.87036218       3.44386669       5.60158083       0.00213259       0.00150222      -0.00001203
F        4.05222091       1.12980130       4.18451307       0.00104603      -0.00149876      -0.00181282
F        2.41592607       3.44386800       7.01865278      -0.00105122       0.00148124       0.00179046
F        2.41592641       3.44386751       4.18451172      -0.00105730       0.00146943      -0.00181937
F        4.05222255       1.12979767       7.01865136       0.00106022      -0.00150108       0.00177288
