9
Lattice="6.633067066624693 2.9695687173124753e-08 3.829603000190341 2.2110223769899218 6.253715750264507 3.829603011533558 -8.646717420841306e-09 7.778400372166306e-09 7.659206015357237" Properties=species:S:1:pos:R:3:forces:R:3 energy=-25.657154083251953 free_energy=-25.657154083251953 stress="0.0002007800794672221 2.2137802702104636e-09 3.965952899420699e-09 2.2137802702104636e-09 0.00020077399676665664 -6.4617897699292826e-09 3.965952899420699e-09 -6.4617897699292826e-09 0.00020077424414921552" pbc="T T T"
Sc       2.21102239       1.56342840       3.82960293       0.00000035      -0.00000349      -0.00000103
Sc       6.63306690       4.69028691      11.48880871      -0.00000150       0.00000021      -0.00000130
Zn      -0.00000001      -0.00000019      -0.00000030       0.00000012       0.00000011       0.00000228
I        2.24157954       1.58503616       7.65920608       0.00042626       0.00030096       0.00000007
I        6.60250959       4.66867984       7.65920625      -0.00042591      -0.00029969       0.00000156
I        5.51227739       1.58503631       5.77086790      -0.00021178       0.00030006       0.00036841
I        3.33181244       4.66867963       9.54754421       0.00021329      -0.00030085      -0.00036898
I        3.33181231       4.66867987       5.77086812       0.00021254      -0.00029852       0.00036852
I        5.51227718       1.58503625       9.54754421      -0.00021338       0.00030128      -0.00036952
