9
Lattice="4.672411247275826 1.0236237171020975e-07 2.6976179845389012 1.5574704080109008 4.405192086539919 2.69761816511532 -8.239723249504511e-08 1.6289644370464832e-07 5.395236111793936" Properties=species:S:1:pos:R:3:forces:R:3 energy=-47.04428482055664 free_energy=-47.04428482055664 stress="0.00014295632718130946 -1.4202289122522416e-08 -2.6531910890525978e-08 -1.4202289122522416e-08 0.00014302373165264726 2.1669043448468983e-08 -2.6531910890525978e-08 2.1669043448468983e-08 0.0001430067204637453" pbc="T T T"
Sc       1.55747027       1.10129855       2.69761742       0.00000122       0.00000329      -0.00000429
Sc       4.67241124       3.30389490       8.09285348      -0.00000112       0.00000688      -0.00000378
Zn       0.00000008      -0.00000032       0.00000029      -0.00000293       0.00000516      -0.00000702
F        1.59557601       1.12824300       5.39523614       0.00563303       0.00398186       0.00000154
F        4.63430519       3.27694929       5.39523609      -0.00563121      -0.00398208       0.00000156
F        3.87462304       1.12824300       4.07942808      -0.00281461       0.00397661       0.00487836
F        2.35525887       3.27694893       6.71104496       0.00281468      -0.00398333      -0.00487290
F        2.35525874       3.27694884       4.07942776       0.00281718      -0.00398643       0.00488117
F        3.87462285       1.12824304       6.71104449      -0.00281636       0.00397798      -0.00487462
