9
Lattice="6.052813681556833 1.3908043458810049e-09 3.4945936124910717 2.0176045664968685 5.706647288197126 3.494593604408207 -2.4280847722760616e-08 -2.7068640059832816e-08 6.989187267037789" Properties=species:S:1:pos:R:3:forces:R:3 energy=-30.32721519470215 free_energy=-30.32721519470215 stress="7.215909863589332e-05 4.205290782266502e-09 2.5340973763832153e-09 4.205290782266502e-09 7.215963705675676e-05 -3.757559152717249e-09 2.5340973763832153e-09 -3.757559152717249e-09 7.217821257654577e-05" pbc="T T T"
Sc       2.01760364       1.42666123       3.49459360      -0.00000558      -0.00000139      -0.00000008
Sc       6.05281460       4.27998547      10.48378145       0.00000475      -0.00000079       0.00000387
Zn      -0.00000001      -0.00000008      -0.00000007       0.00000060      -0.00000076      -0.00000101
Br       2.03719192       1.44051275       6.98918711       0.00128931       0.00091338      -0.00000034
Br       6.03322629       4.26613480       6.98918706      -0.00128913      -0.00091326      -0.00000203
Br       5.03421775       1.44051234       5.25885362      -0.00064445       0.00091378       0.00111918
Br       3.03620041       4.26613521       8.71952067       0.00064355      -0.00091065      -0.00111854
Br       3.03620067       4.26613524       5.25885371       0.00064532      -0.00091080       0.00111782
Br       5.03421762       1.44051205       8.71952079      -0.00064428       0.00091052      -0.00111882
