9
Lattice="4.626700201129059 -4.2206502913634475e-08 2.6712264719603085 1.542233408640491 4.362094438578421 2.671226388723473 7.718919138649921e-08 -4.736289475342159e-08 5.34245281022503" Properties=species:S:1:pos:R:3:forces:R:3 energy=-26.172046661376953 free_energy=-26.172046661376953 stress="0.0007259097183123231 -4.201621095489827e-08 2.5641559986411266e-08 -4.201621095489827e-08 0.0007262258441187441 4.877523096524783e-08 2.5641559986411266e-08 4.877523096524783e-08 0.0007261119317263365" pbc="T T T"
Se       1.54223263       1.09052049       2.67122870      -0.00000964      -0.00004302       0.00003393
Se       4.62669974       3.27156827       8.01368137      -0.00000677      -0.00003690       0.00003165
Au       0.00000008       0.00000093      -0.00000093       0.00000548       0.00001178      -0.00000759
F        1.60121748       1.13223187       5.34245223      -0.00151527      -0.00106132      -0.00001161
F        4.56771672       3.22986398       5.34245219       0.00150895       0.00107989      -0.00001038
F        3.82609187       1.13223240       4.05792063       0.00076196      -0.00105900      -0.00132400
F        2.34284209       3.22986379       6.62698384      -0.00075580       0.00108644       0.00130078
F        2.34284223       3.22986363       4.05792053      -0.00075239       0.00108212      -0.00131801
F        3.82609204       1.13223203       6.62698410       0.00076360      -0.00105989       0.00130492
