9
Lattice="5.8835124883202035 -4.951536086046231e-09 3.3968474791915235 1.961170835655469 5.547028265364491 3.396847460340298 3.821265799927923e-08 3.932495729364528e-09 6.793694892196797" Properties=species:S:1:pos:R:3:forces:R:3 energy=-17.90215301513672 free_energy=-17.90215301513672 stress="4.5437041990226135e-05 1.887172018655292e-08 2.366553353283507e-08 1.887172018655292e-08 4.540491499938071e-05 2.083100447691777e-08 2.366553353283507e-08 2.083100447691777e-08 4.548356810119003e-05" pbc="T T T"
Se       1.96117067       1.38675671       3.39684790      -0.00000094      -0.00000214       0.00000304
Se       5.88351211       4.16027149      10.19054306      -0.00000057       0.00000099       0.00000016
Au       0.00000001       0.00000002       0.00000027       0.00000032       0.00000014      -0.00000331
Cl       1.99261598       1.40899214       6.79369502       0.00242728       0.00171518      -0.00000085
Cl       5.85206710       4.13803667       6.79369428      -0.00242603      -0.00171673      -0.00000112
Cl       4.88720407       1.40899183       5.12250252      -0.00121431       0.00171804       0.00209957
Cl       2.95747966       4.13803600       8.46488686       0.00121127      -0.00171366      -0.00209886
Cl       2.95747850       4.13803659       5.12250346       0.00121310      -0.00171545       0.00210202
Cl       4.88720536       1.40899160       8.46488590      -0.00121008       0.00171360      -0.00210083
