9
Lattice="6.182142579420406 2.422520642323171e-09 3.5692617383199567 2.060714179164793 5.828580002114336 3.5692617664819375 1.4053711403268206e-08 4.4428705973812804e-08 7.13852345229818" Properties=species:S:1:pos:R:3:forces:R:3 energy=-16.050762176513672 free_energy=-16.050762176513672 stress="0.0003137315798085183 -7.15160730635489e-09 -6.047709444345628e-09 -7.15160730635489e-09 0.00031374054378829896 -1.3680795385440092e-09 -6.047709444345628e-09 -1.3680795385440092e-09 0.00031374330865219235" pbc="T T T"
Se       2.06071435       1.45714525       3.56926181      -0.00000005       0.00000082       0.00000075
Se       6.18214241       4.37143506      10.70778550       0.00000036      -0.00000016      -0.00000026
Au       0.00000010       0.00000006      -0.00000019      -0.00000126      -0.00000062       0.00000010
Br       2.11054166       1.49237826       7.13852334       0.00281933       0.00199415       0.00000016
Br       6.13231524       4.33620159       7.13852344      -0.00281879      -0.00199376       0.00000011
Br       5.12687175       1.49237828       5.39704438      -0.00140940       0.00199373       0.00244184
Br       3.11598495       4.33620165       8.88000253       0.00140980      -0.00199406      -0.00244199
Br       3.11598496       4.33620169       5.39704452       0.00140956      -0.00199328       0.00244156
Br       5.12687171       1.49237835       8.88000253      -0.00140955       0.00199337      -0.00244220
