9
Lattice="6.1368798703677845 -8.710665917084327e-08 3.543129137822622 2.0456265615868645 5.785905722688452 3.5431291027384133 -1.0894361739814255e-08 -5.067269610503188e-08 7.086258294514847" Properties=species:S:1:pos:R:3:forces:R:3 energy=-16.290451049804688 free_energy=-16.290451049804688 stress="8.372223237529397e-05 2.7787476764018493e-09 -1.761021994894918e-09 2.7787476764018493e-09 8.371489821001887e-05 6.938020158386848e-10 -1.761021994894918e-09 6.938020158386848e-10 8.371149306185544e-05" pbc="T T T"
Se       2.04562667       1.44647640       3.54312916       0.00000023      -0.00000024      -0.00000019
Se       6.13687966       4.33942915      10.62938728      -0.00000050       0.00000102      -0.00000026
Ag      -0.00000013       0.00000003      -0.00000019       0.00000058       0.00000071       0.00000043
Br       2.08333067       1.47313734       7.08625823       0.00064525       0.00045546       0.00000030
Br       6.09917575       4.31276832       7.08625827      -0.00064582      -0.00045647       0.00000044
Br       5.09521450       1.47313722       5.34734645      -0.00032264       0.00045541       0.00055922
Br       3.08729192       4.31276839       8.82517023       0.00032361      -0.00045677      -0.00055921
Br       3.08729199       4.31276836       5.34734643       0.00032260      -0.00045596       0.00055934
Br       5.09521462       1.47313711       8.82517028      -0.00032323       0.00045681      -0.00056005
