9
Lattice="6.468234347753197 1.0801076935168705e-08 3.734436831275923 2.1560781588603297 6.0983096821046 3.734436774535234 3.9874020425872744e-08 -4.12976587828015e-08 7.46887359348801" Properties=species:S:1:pos:R:3:forces:R:3 energy=-15.343460083007812 free_energy=-15.343460083007812 stress="0.00019180940580554307 1.2297129536875673e-08 -8.336530576968926e-09 1.2297129536875673e-08 0.00019183766562491655 -4.122787000682138e-09 -8.336530576968926e-09 -4.122787000682138e-09 0.0001918187626870349" pbc="T T T"
Se       2.15607819       1.52457746       3.73443668       0.00000151       0.00000050       0.00000071
Se       6.46823443       4.57373226      11.20331064      -0.00000140       0.00000055      -0.00000032
Au       0.00000006       0.00000007      -0.00000002       0.00000001      -0.00000024       0.00000182
I        2.27967797       1.61197575       7.46887369      -0.00738914      -0.00522530       0.00000034
I        6.34463447       4.48633388       7.46887348       0.00738940       0.00522508       0.00000001
I        5.32839543       1.61197554       5.70869571       0.00369480      -0.00522611      -0.00640072
I        3.29591718       4.48633400       9.22905148      -0.00369430       0.00522469       0.00639929
I        3.29591711       4.48633395       5.70869571      -0.00369491       0.00522578      -0.00640056
I        5.32839534       1.61197570       9.22905143       0.00369404      -0.00522499       0.00639942
