9
Lattice="5.842401455930269 -2.944286541745557e-08 3.3731117892114124 1.947467204215857 5.508268650657265 3.373111650650606 1.0356629067007197e-07 -9.646921093346495e-08 6.746223399040782" Properties=species:S:1:pos:R:3:forces:R:3 energy=-17.961490631103516 free_energy=-17.961490631103516 stress="0.0003647143312264234 -2.327359283071928e-08 1.0007858541882797e-08 -2.327359283071928e-08 0.00036473304498940706 1.970488483493682e-08 1.0007858541882797e-08 1.970488483493682e-08 0.00036470979102887213" pbc="T T T"
Se       1.94746717       1.37706762       3.37311146       0.00000061       0.00000148      -0.00000074
Se       5.84240064       4.13120306      10.11933505      -0.00000392       0.00000409       0.00000106
Ag       0.00000010       0.00000000      -0.00000019      -0.00000284      -0.00000297       0.00000156
Cl       1.98510051       1.40367732       6.74622315       0.00192837       0.00136063      -0.00000110
Cl       5.80476821       4.10459031       6.74622355      -0.00192519      -0.00136141       0.00000160
Cl       4.84985175       1.40367723       5.09225825      -0.00096190       0.00136103       0.00166948
Cl       2.94001747       4.10459061       8.40018902       0.00096522      -0.00136553      -0.00166783
Cl       2.94001753       4.10459089       5.09225841       0.00096312      -0.00135915       0.00166695
Cl       4.84985164       1.40367706       8.40018857      -0.00096349       0.00136188      -0.00167090
