9
Lattice="4.49430282746706 -3.994911722229751e-10 2.5947869242740715 1.4981009431320689 4.237269013059801 2.594786922507892 -1.8211855713144413e-08 -1.5040833790321115e-08 5.189573880091992" Properties=species:S:1:pos:R:3:forces:R:3 energy=-24.40525245666504 free_energy=-24.40525245666504 stress="0.0002575256221462041 -4.419269217237343e-08 4.469550418662038e-08 -4.419269217237343e-08 0.0002581315638963133 1.8239957100263382e-08 4.469550418662038e-08 1.8239957100263382e-08 0.00025756171089597046" pbc="T T T"
Se       1.49810106       1.05931579       2.59478722       0.00000604      -0.00002544       0.00000170
Se       4.49430342       3.17795326       7.78436033       0.00000858       0.00002916      -0.00000699
Ag      -0.00000002      -0.00000002       0.00000003      -0.00000463       0.00000232       0.00000134
F        1.61250281       1.14021090       5.18957363      -0.00504690      -0.00358021      -0.00000237
F        4.37990083       3.09705819       5.18957431       0.00504442       0.00358406       0.00000489
F        3.68805134       1.14021090       3.99125579       0.00252334      -0.00358638      -0.00437099
F        2.30435204       3.09705814       6.38789214      -0.00252681       0.00357999       0.00436769
F        2.30435225       3.09705780       3.99125521      -0.00252672       0.00358096      -0.00437012
F        3.68805127       1.14021112       6.38789232       0.00252275      -0.00358422       0.00437500
