9
Lattice="4.367309681195673 8.025639256875842e-08 2.5214672935523765 1.4557699494120904 4.117538979794551 2.5214673281695728 7.328901029427985e-09 4.757955369792307e-08 5.042934574410717" Properties=species:S:1:pos:R:3:forces:R:3 energy=-33.88848114013672 free_energy=-33.88848114013672 stress="0.00014969617768656462 8.190892231141333e-08 6.520608053506294e-09 8.190892231141333e-08 0.0001497637276770547 1.708420072077388e-08 6.520608053506294e-09 1.708420072077388e-08 0.00014980981359258294" pbc="T T T"
Se       1.45577089       1.02938484       2.52146767       0.00001218       0.00000198       0.00000413
Se       4.36731114       3.08815530       7.56440137       0.00001781       0.00001052      -0.00000624
Be       0.00000004       0.00000016       0.00000017      -0.00000024      -0.00000014       0.00000062
F        1.41182598       0.99831216       5.04293463       0.00111175       0.00078514      -0.00000034
F        4.41125285       3.11922702       5.04293459      -0.00111979      -0.00079039      -0.00000052
F        3.66139578       0.99831150       3.74414448      -0.00056645       0.00078622       0.00096881
F        2.16168316       3.11922689       6.34172444       0.00055525      -0.00078940      -0.00096339
F        2.16168222       3.11922710       3.74414514       0.00055164      -0.00079006       0.00096685
F        3.66139643       0.99831159       6.34172425      -0.00056243       0.00078648      -0.00096971
