9
Lattice="6.383453292435462 -1.0018337984819192e-08 3.68548846392708 2.1278177661129707 6.018377454526824 3.6854884441588216 3.212741862708149e-08 -1.4935315837493e-09 7.37097687220785" Properties=species:S:1:pos:R:3:forces:R:3 energy=-17.08823013305664 free_energy=-17.08823013305664 stress="-7.29455059627071e-05 6.192570456420299e-09 -4.589161939350106e-09 6.192570456420299e-09 -7.292726513696834e-05 -2.1540762507044064e-09 -4.589161939350106e-09 -2.1540762507044064e-09 -7.293725502677262e-05" pbc="T T T"
Se       2.12781818       1.50459458       3.68548849      -0.00000062       0.00000045       0.00000032
Se       6.38345313       4.51378296      11.05646498       0.00000060      -0.00000009      -0.00000041
Be      -0.00000019       0.00000003       0.00000009      -0.00000027       0.00000011      -0.00000019
I        2.11102303       1.49271876       7.37097692       0.00445946       0.00315298       0.00000013
I        6.40024822       4.52565877       7.37097704      -0.00445884      -0.00315273      -0.00000024
I        5.32794182       1.49271862       5.51368797      -0.00223027       0.00315344       0.00386214
I        3.18332925       4.52565866       9.22826578       0.00222996      -0.00315378      -0.00386186
I        3.18332914       4.52565874       5.51368807       0.00222979      -0.00315368       0.00386224
I        5.32794179       1.49271867       9.22826577      -0.00222985       0.00315331      -0.00386218
