9
Lattice="5.557958463145089 3.9069239291672583e-08 3.2088886330593307 1.852652840960186 5.240093422122998 3.208888662370809 1.879527131910558e-08 4.918945884800974e-08 6.417777233564193" Properties=species:S:1:pos:R:3:forces:R:3 energy=-21.48987579345703 free_energy=-21.48987579345703 stress="0.00018522357277106494 -1.7443042565901123e-08 8.451689903488102e-10 -1.7443042565901123e-08 0.00018523303151596338 -1.3996924508319353e-08 8.451689903488102e-10 -1.3996924508319353e-08 0.0001851578417699784" pbc="T T T"
Se       1.85265266       1.31002315       3.20888891      -0.00000099      -0.00000394       0.00000270
Se       5.55795912       3.93007043       9.62666554       0.00000370       0.00000332      -0.00000619
Be       0.00000020       0.00000015       0.00000000       0.00000003      -0.00000018      -0.00000072
Cl       1.80187057       1.27411536       6.41777752      -0.00004545      -0.00003099      -0.00000091
Cl       5.60874066       3.96597786       6.41777744       0.00004280       0.00003020       0.00000094
Cl       4.65702262       1.27411534       4.76935457       0.00002053      -0.00003153      -0.00003639
Cl       2.75358885       3.96597864       8.06619997      -0.00002164       0.00003240       0.00003962
Cl       2.75358809       3.96597830       4.76935449      -0.00002225       0.00003390      -0.00003654
Cl       4.65702254       1.27411477       8.06619979       0.00002316      -0.00003313       0.00003767
