9
Lattice="6.165057501266479 8.719261285036851e-08 3.559397807260101 2.055019282741445 5.812471965918175 3.5593977493288276 6.783219877467793e-09 -6.615454031358263e-08 7.118795602771269" Properties=species:S:1:pos:R:3:forces:R:3 energy=-25.48786735534668 free_energy=-25.48786735534668 stress="0.00024149089585989714 1.1258030063743263e-08 -1.1674783806370215e-08 1.1258030063743263e-08 0.00024148833472281694 -8.082736258074874e-09 -1.1674783806370215e-08 -8.082736258074874e-09 0.0002414488117210567" pbc="T T T"
Se       2.05501917       1.45311885       3.55939795       0.00000104       0.00000164       0.00000023
Se       6.16505654       4.35935406      10.67819247      -0.00000237       0.00000018      -0.00000238
Cr       0.00000021      -0.00000028       0.00000024      -0.00000300       0.00000228       0.00000045
Br       1.97724850       1.39812556       7.11879564       0.00165678       0.00117153       0.00000018
Br       6.24282838       4.41434612       7.11879560      -0.00165386      -0.00117079       0.00000122
Br       5.17643348       1.39812570       5.27174563      -0.00082876       0.00117109       0.00143424
Br       3.04364380       4.41434598       8.96584580       0.00082968      -0.00117346      -0.00143576
Br       3.04364368       4.41434611       5.27174540       0.00082866      -0.00117431       0.00143582
Br       5.17643339       1.39812583       8.96584589      -0.00082808       0.00117182      -0.00143396
