9
Lattice="5.796238330881448 -9.15647815115372e-08 3.3464594905567657 1.932079340632799 5.464745865059097 3.3464595194235596 -1.1963906298950285e-07 -4.924315455308037e-08 6.6929191883344155" Properties=species:S:1:pos:R:3:forces:R:3 energy=-17.081012725830078 free_energy=-17.081012725830078 stress="0.00010324663162464276 -1.931101856200712e-08 -6.053667789274186e-08 -1.931101856200712e-08 0.00010329212818760425 -2.171498891812007e-08 -6.053667789274186e-08 -2.171498891812007e-08 0.00010332579404348508" pbc="T T T"
Se       1.93207880       1.36618657       3.34645954      -0.00000069       0.00000314       0.00000457
Se       5.79623847       4.09855934      10.03937828       0.00000370      -0.00000120      -0.00000394
Cd      -0.00000002       0.00000004       0.00000064      -0.00000008       0.00000089      -0.00000601
Cl       2.05846593       1.45555511       6.69291921       0.00095436       0.00067212      -0.00000029
Cl       5.66985163       4.00919040       6.69291919      -0.00095643      -0.00067628      -0.00000180
Cl       4.76700538       1.45555493       5.12914309      -0.00047831       0.00067340       0.00082763
Cl       2.96131235       4.00919011       8.25669495       0.00047481      -0.00067560      -0.00082211
Cl       2.96131209       4.00919093       5.12914327       0.00047711      -0.00067243       0.00082760
Cl       4.76700558       1.45555547       8.25669470      -0.00047460       0.00067599      -0.00082568
