9
Lattice="4.6350396134763265 2.396197656474697e-07 2.6760417562605996 1.5450134633554864 4.36995786216772 2.676041699193534 3.483600940051894e-07 1.7643517956017623e-07 5.352082909143815" Properties=species:S:1:pos:R:3:forces:R:3 energy=-43.67749786376953 free_energy=-43.67749786376953 stress="-0.0004022794310003519 9.223304897609808e-10 -6.335785656119697e-07 9.223304897609808e-10 -0.0004044781089760363 -8.569394367441419e-07 -6.335785656119697e-07 -8.569394367441419e-07 -0.00040351043571718037" pbc="T T T"
Se       1.54505286       1.09247064       2.67604529       0.00064351      -0.00035150       0.00011707
Se       4.63506196       3.27748689       8.02808742       0.00031147       0.00033518      -0.00064052
Cr      -0.00000424       0.00000014       0.00000232      -0.00008349      -0.00000355       0.00004768
O        1.56200738       1.10450868       5.35208424      -0.00034249      -0.00022799       0.00001007
O        4.61802927       3.26545411       5.35209417       0.00010908       0.00029427       0.00017168
O        3.85401868       1.10450337       4.02878903      -0.00011247      -0.00028563      -0.00015199
O        2.32601582       3.26545117       6.67538457      -0.00018543       0.00023204       0.00027287
O        2.32600876       3.26544828       4.02879072      -0.00030613       0.00019860      -0.00013411
O        3.85402311       1.10450995       6.67538788      -0.00003380      -0.00019133       0.00030911
