9
Lattice="5.333981257768592 -3.7331610201182204e-08 3.079575666613362 1.7779937253078248 5.028925740805751 3.0795756529043796 1.0691919804783749e-07 5.881325900950496e-08 6.159151148037276" Properties=species:S:1:pos:R:3:forces:R:3 energy=-33.865875244140625 free_energy=-33.865875244140625 stress="0.00017281094915233552 -3.0704665476832815e-08 -1.8156866232743596e-08 -3.0704665476832815e-08 0.0001728241186356172 -2.3003318361247693e-08 -1.8156866232743596e-08 -2.3003318361247693e-08 0.00017282184853684157" pbc="T T T"
Se       1.77799346       1.25723206       3.07957565      -0.00000261       0.00000187      -0.00000001
Se       5.33398135       3.77169402       9.23872838       0.00000375      -0.00000018       0.00000721
Co      -0.00000021       0.00000024       0.00000064       0.00000137      -0.00000337      -0.00000403
S        1.76709627       1.24952591       6.15915150      -0.00296218      -0.00209229      -0.00000098
S        5.34487882       3.77939993       6.15915094       0.00296421       0.00209351      -0.00000303
S        4.45043345       1.24952574       4.60992590       0.00147991      -0.00209098      -0.00256565
S        2.66154210       3.77939965       7.70837557      -0.00148539       0.00209647       0.00256786
S        2.66154230       3.77939997       4.60992582      -0.00148148       0.00209288      -0.00256753
S        4.45043282       1.24952550       7.70837556       0.00148217      -0.00209800       0.00256633
