9
Lattice="4.494671854858489 -9.699856165670914e-09 2.595000020326798 1.4982239403526851 4.237617332740205 2.5950000240016817 -1.6307865851013366e-08 -7.0306009968249545e-09 5.190000068899626" Properties=species:S:1:pos:R:3:forces:R:3 energy=-38.45867919921875 free_energy=-38.45867919921875 stress="0.00032101996475830674 -7.208719665641183e-08 -5.8933613544809305e-09 -7.208719665641183e-08 0.00032108798041008413 1.249549264059624e-08 -5.8933613544809305e-09 1.249549264059624e-08 0.00032111344626173377" pbc="T T T"
Se       1.49822397       1.05940429       2.59500007      -0.00000023       0.00000045       0.00000140
Se       4.49467178       3.17821303       7.78500017       0.00000021      -0.00000030      -0.00000064
Cr      -0.00000008      -0.00000003       0.00000003       0.00000332      -0.00000037      -0.00000225
F        1.51067500       1.06820850       5.18999998       0.00042760       0.00030226      -0.00000163
F        4.48222094       3.16940881       5.19000000      -0.00042996      -0.00030349      -0.00000008
F        3.73933430       1.06820862       3.90328298      -0.00021403       0.00030135       0.00036991
F        2.25356144       3.16940865       6.47671712       0.00021200      -0.00029838      -0.00036757
F        2.25356145       3.16940868       3.90328297       0.00021233      -0.00030065       0.00036836
F        3.73933433       1.06820874       6.47671714      -0.00021110       0.00029880      -0.00036742
