9
Lattice="4.9844632219112945 3.346572886976301e-07 2.8777815591309115 1.6614881912773622 4.699396123466807 2.877781325092205 1.9766326135542888e-07 -1.4686885427194865e-07 5.755562775899065" Properties=species:S:1:pos:R:3:forces:R:3 energy=-29.612648010253906 free_energy=-29.612648010253906 stress="-9.786057489691302e-05 -1.0290456486927724e-07 6.297320709336418e-08 -1.0290456486927724e-07 -9.802900603972375e-05 6.20029041442649e-08 6.297320709336418e-08 6.20029041442649e-08 -9.81180346570909e-05" pbc="T T T"
Se       1.66149376       1.17484964       2.87777379       0.00007256       0.00001275      -0.00013689
Se       4.98447273       3.52454799       8.63333139       0.00009829       0.00001581      -0.00017272
C        0.00000350       0.00000697      -0.00004176       0.00005236       0.00007098      -0.00043039
S        1.70234813       1.20374297       5.75557046       0.00149092       0.00107169       0.00010355
S        4.94359428       3.49565000       5.75557006      -0.00156740      -0.00109496       0.00011068
S        4.13328115       1.20374811       4.35207376      -0.00082073       0.00108206       0.00145186
S        2.51265836       3.49565551       7.15907414       0.00071255      -0.00107095      -0.00120248
S        2.51266501       3.49564504       4.35207459       0.00073812      -0.00112958       0.00146477
S        4.13328944       1.20373881       7.15907636      -0.00077682       0.00104225      -0.00118853
