9
Lattice="6.1191280810036375 2.2239820267128636e-08 3.5328802098792997 2.0397094102982107 5.769169184941741 3.5328801596571386 2.7357446849084916e-08 -4.216467278058274e-08 7.065760372374143" Properties=species:S:1:pos:R:3:forces:R:3 energy=-21.136533737182617 free_energy=-21.136533737182617 stress="0.00032481722882948816 -1.920732728422081e-08 3.790910696466199e-09 -1.920732728422081e-08 0.0003247772983741015 -9.195106009940446e-09 3.790910696466199e-09 -9.195106009940446e-09 0.00032481734524481" pbc="T T T"
Se       2.03970939       1.44229217       3.53288001       0.00000039       0.00000028       0.00000066
Se       6.11912818       4.32687710      10.59864053      -0.00000006       0.00000017      -0.00000032
Co       0.00000022      -0.00000012       0.00000016      -0.00000185      -0.00000015      -0.00000043
Br       2.00061146       1.41464590       7.06576039       0.00203392       0.00143737      -0.00000049
Br       6.15822598       4.35452334       7.06576026      -0.00203393      -0.00143728       0.00000100
Br       5.11882225       1.41464588       5.26546067      -0.00101583       0.00143671       0.00176145
Br       3.04001510       4.35452330       8.86606033       0.00101769      -0.00143727      -0.00176150
Br       3.04001518       4.35452315       5.26546043       0.00101668      -0.00143716       0.00176153
Br       5.11882234       1.41464593       8.86606020      -0.00101697       0.00143737      -0.00176193
