9
Lattice="4.761928649509371 -1.7294381494334547e-08 2.749300795743674 1.5873095128283323 4.4895894662035785 2.7493008316020298 1.0079519446547487e-07 1.151903097714711e-07 5.498601416904889" Properties=species:S:1:pos:R:3:forces:R:3 energy=-38.15052795410156 free_energy=-38.15052795410156 stress="-0.0002119887067237869 1.8913441124368546e-07 -4.878993919987806e-08 1.8913441124368546e-07 -0.00021120288874953985 -5.878844078210932e-08 -4.878993919987806e-08 -5.878844078210932e-08 -0.00021125162311363965" pbc="T T T"
Se       1.58730701       1.12240696       2.74930252      -0.00002636       0.00011111       0.00002173
Se       4.76193656       3.36719552       8.24790275       0.00009218       0.00004199       0.00000692
Co      -0.00000020      -0.00000060       0.00000007      -0.00000203      -0.00000734      -0.00000137
O        1.47437234       1.04253954       5.49860082       0.00534976       0.00379074      -0.00000740
O        4.87486684       3.44704688       5.49860149      -0.00534230      -0.00382984      -0.00000404
O        4.02474129       1.04253737       4.02614610      -0.00268438       0.00376642       0.00464880
O        2.32449368       3.44704791       6.97105748       0.00264481      -0.00381476      -0.00464201
O        2.32449309       3.44704777       4.02614544       0.00264353      -0.00381798       0.00463480
O        4.02474230       1.04253699       6.97105567      -0.00267512       0.00375974      -0.00465727
