9
Lattice="5.128377864214897 -1.5752440901922794e-07 2.9608703312363187 1.7094590995313488 4.835081411536791 2.9608704005612934 -2.420363269368267e-07 -8.624013924301538e-08 5.921741081691875" Properties=species:S:1:pos:R:3:forces:R:3 energy=-24.48175811767578 free_energy=-24.48175811767578 stress="-0.00030859498656354845 -1.976735042319433e-08 4.182268042995929e-08 -1.976735042319433e-08 -0.0003084538911934942 3.600300857442562e-08 4.182268042995929e-08 3.600300857442562e-08 -0.0003083805786445737" pbc="T T T"
Se       1.70945770       1.20876740       2.96087265      -0.00000841      -0.00001635       0.00001195
Se       5.12837610       3.62630901       8.88261199      -0.00000956      -0.00001593       0.00000409
Cd      -0.00000031      -0.00000066       0.00000005      -0.00000132      -0.00000139       0.00000100
F        1.78801123       1.26431645       5.92173962      -0.00084430      -0.00059181      -0.00000818
F        5.04982432       3.57076613       5.92174175       0.00084317       0.00060093       0.00000005
F        4.23437264       1.26431763       4.50933395       0.00042853      -0.00059181      -0.00073799
F        2.60346626       3.57076587       7.33414625      -0.00042161       0.00060856       0.00073129
F        2.60346723       3.57076631       4.50933446      -0.00041589       0.00060433      -0.00073436
F        4.23437194       1.26431638       7.33414662       0.00042969      -0.00059682       0.00073197
