9
Lattice="6.35285196004491 -4.950085968582775e-08 3.6678208238260672 2.117617279163064 5.989526345310559 3.667820813749163 3.889305501761238e-09 -9.591521388220217e-09 7.335641640915723" Properties=species:S:1:pos:R:3:forces:R:3 energy=-19.977224349975586 free_energy=-19.977224349975586 stress="3.731885954039171e-05 -1.8091421694066412e-08 4.026245115085203e-09 -1.8091421694066412e-08 3.7329402402974665e-05 4.206603954060029e-09 4.026245115085203e-09 4.206603954060029e-09 3.7360099668148905e-05" pbc="T T T"
Se       2.11761719       1.49738142       3.66782113      -0.00000098      -0.00000011       0.00000129
Se       6.35285200       4.49214480      11.00346244       0.00000057      -0.00000002       0.00000025
Co       0.00000006      -0.00000012       0.00000006       0.00000023       0.00000094      -0.00000086
I        2.10499830       1.48845859       7.33564156       0.00258657       0.00182818       0.00000075
I        6.36547086       4.50106791       7.33564162      -0.00258577      -0.00182945      -0.00000019
I        5.30035284       1.48845858       5.49080283      -0.00129289       0.00182846       0.00223967
I        3.17011636       4.50106791       9.18048033       0.00129235      -0.00182913      -0.00223964
I        3.17011645       4.50106776       5.49080275       0.00129323      -0.00182775       0.00223877
I        5.30035291       1.48845833       9.18048035      -0.00129329       0.00182889      -0.00223998
