9
Lattice="5.321231012271333 -1.4921075168907318e-07 3.0722139429893036 1.7737435004098376 5.01690434896452 3.0722139943792843 -5.73961142657794e-08 2.235446549823843e-08 6.1444279853915384" Properties=species:S:1:pos:R:3:forces:R:3 energy=-35.797325134277344 free_energy=-35.797325134277344 stress="0.0002044146240223199 4.730800196028895e-09 4.697064071024215e-09 4.730800196028895e-09 0.00020446941198315471 1.7724495648963057e-08 4.697064071024215e-09 1.7724495648963057e-08 0.00020448352734092623" pbc="T T T"
Se       1.77374593       1.25422502       3.07221554       0.00002054      -0.00000584       0.00001281
Se       5.32123164       3.76267916       9.21664065       0.00000806       0.00000636      -0.00001020
Cr       0.00000005       0.00000026       0.00000061       0.00000016      -0.00000465      -0.00000270
S        1.81640182       1.28439046       6.14442780      -0.00303886      -0.00214800      -0.00000092
S        5.27857122       3.73251404       6.14442852       0.00303417       0.00215127       0.00000047
S        4.41302871       1.28439056       4.64526464       0.00150941      -0.00214819      -0.00263133
S        2.68194465       3.73251362       7.64359065      -0.00152158       0.00215066       0.00263198
S        2.68194446       3.73251315       4.64526497      -0.00152503       0.00214814      -0.00263052
S        4.41302933       1.28439064       7.64359028       0.00151313      -0.00214969       0.00263030
