9
Lattice="5.773992398569502 1.2241725770453107e-07 3.3336160625609024 1.9246642415617665 5.443772636711376 3.3336160741844325 1.1476046202478701e-07 9.538376086892525e-08 6.667231926350844" Properties=species:S:1:pos:R:3:forces:R:3 energy=-28.451128005981445 free_energy=-28.451128005981445 stress="0.00035807062522508204 7.480287500527538e-09 5.298944572018627e-08 7.480287500527538e-09 0.00035815153387375176 2.6173101019821843e-08 5.298944572018627e-08 2.6173101019821843e-08 0.00035792283597402275" pbc="T T T"
Se       1.92466424       1.36094373       3.33361508       0.00000075       0.00000299      -0.00000111
Se       5.77399308       4.08282960      10.00084783      -0.00000054       0.00000151       0.00000101
Cr       0.00000028       0.00000020      -0.00000020      -0.00000442      -0.00000223       0.00000143
Cl       1.85034341       1.30839089       6.66723213      -0.00123210      -0.00087048       0.00000051
Cl       5.84831213       4.13538225       6.66723238       0.00123924       0.00087516       0.00000228
Cl       4.84882064       1.30839074       4.93606069       0.00061744      -0.00087130      -0.00106670
Cl       2.84983598       4.13538171       8.39840402      -0.00061675       0.00086784       0.00106320
Cl       2.84983649       4.13538166       4.93606098      -0.00061831       0.00087085      -0.00106692
Cl       4.84882080       1.30839058       8.39840332       0.00061468      -0.00087453       0.00106622
