9
Lattice="5.698551551702823 1.7140531929057988e-07 3.2900602352043085 1.8995173450137395 5.372646206302078 3.2900602360524513 -1.5180571301631618e-07 -1.0630406577816405e-07 6.580120733343802" Properties=species:S:1:pos:R:3:forces:R:3 energy=-20.222354888916016 free_energy=-20.222354888916016 stress="0.00022899213945493102 2.2419152756469884e-08 1.235726276860305e-08 2.2419152756469884e-08 0.00022921613708604127 1.2832704676668527e-08 1.235726276860305e-08 1.2832704676668527e-08 0.00022904379875399172" pbc="T T T"
Se       1.89951707       1.34316182       3.29006041       0.00000413      -0.00000093       0.00000085
Se       5.69855159       4.02948425       9.87018215      -0.00000020      -0.00000041       0.00000089
Cu      -0.00000011       0.00000001      -0.00000019       0.00000170      -0.00000131      -0.00000237
Cl       1.87290983       1.32434741       6.58012062       0.00029385       0.00020948       0.00000106
Cl       5.72515910       4.04829911       6.58012039      -0.00029764      -0.00021091      -0.00000175
Cl       4.76209654       1.32434718       4.91204666      -0.00014898       0.00021097       0.00025845
Cl       2.83597223       4.04829902       8.24819379       0.00014551      -0.00020790      -0.00025558
Cl       2.83597215       4.04829880       4.91204734       0.00014760      -0.00020733       0.00025502
Cl       4.76209660       1.32434743       8.24819353      -0.00014603       0.00020829      -0.00025672
