9
Lattice="6.463450206260661 8.386185096829184e-08 3.7316746559534675 2.154483454321878 6.093799347921697 3.7316747024255545 -1.3724663445673016e-08 4.7211702408964e-08 7.463349335678755" Properties=species:S:1:pos:R:3:forces:R:3 energy=-23.508840560913086 free_energy=-23.508840560913086 stress="0.00015082050231285393 8.80380568446526e-09 3.1972471337127217e-09 8.80380568446526e-09 0.0001508225395809859 9.695724223490743e-10 3.1972471337127217e-09 9.695724223490743e-10 0.0001507944834884256" pbc="T T T"
Se       2.15448341       1.52344991       3.73167491      -0.00000112      -0.00000046       0.00000083
Se       6.46344975       4.57034931      11.19502375      -0.00000110      -0.00000099      -0.00000119
Cr       0.00000007       0.00000028       0.00000024      -0.00000139      -0.00000230      -0.00000387
I        2.13423388       1.50913126       7.46334928      -0.00495705      -0.00350567      -0.00000031
I        6.48369960       4.58466804       7.46334944       0.00495952       0.00350666       0.00000066
I        5.39633352       1.50913129       5.57997535       0.00247815      -0.00350367      -0.00429105
I        3.22160060       4.58466814       9.34672313      -0.00247842       0.00350673       0.00429452
I        3.22160038       4.58466818       5.57997542      -0.00247828       0.00350517      -0.00429277
I        5.39633338       1.50913152       9.34672325       0.00247976      -0.00350552       0.00429320
