9
Lattice="5.704808694322428 -7.252821910032253e-08 3.293673102437555 1.9016028666298428 5.3785449183517695 3.29367303852024 9.298940517297968e-08 -1.2528923386331821e-08 6.587346043812734" Properties=species:S:1:pos:R:3:forces:R:3 energy=-23.708114624023438 free_energy=-23.708114624023438 stress="0.00010665330046322197 7.483068031888251e-08 -1.6112903011844537e-08 7.483068031888251e-08 0.00010667271271813661 -6.130590701758365e-09 -1.6112903011844537e-08 -6.130590701758365e-09 0.00010677308455342427" pbc="T T T"
Se       1.90160269       1.34463583       3.29367316       0.00000029      -0.00000124      -0.00000171
Se       5.70480922       4.03390870       9.88101948       0.00000032       0.00000143      -0.00000210
Co       0.00000017      -0.00000016       0.00000019       0.00000036       0.00000224      -0.00000466
Cl       1.82435565       1.29001414       6.58734617       0.00133088       0.00094061       0.00000123
Cl       5.78205643       4.08853111       6.58734603      -0.00133359      -0.00094335      -0.00000110
Cl       4.79263127       1.29001360       4.87361089      -0.00066704       0.00094558       0.00115383
Cl       2.81378029       4.08853085       8.30108105       0.00066559      -0.00094011      -0.00115041
Cl       2.81377989       4.08853143       4.87361105       0.00066869      -0.00094704       0.00115605
Cl       4.79263101       1.29001384       8.30108068      -0.00066561       0.00094184      -0.00115100
