9
Lattice="4.6976933911482 -1.199214092804333e-07 2.7122144129001233 1.5658978068558784 4.429027128798831 2.7122142000838996 1.2527917374569383e-07 -1.7205978235821378e-07 5.424428608810364" Properties=species:S:1:pos:R:3:forces:R:3 energy=-33.11652374267578 free_energy=-33.11652374267578 stress="-0.00028928800020366907 3.30985159280317e-08 5.588386642330079e-08 3.30985159280317e-08 -0.000289197254460305 4.052409963151149e-08 5.588386642330079e-08 4.052409963151149e-08 -0.0002893607597798109" pbc="T T T"
Se       1.56589890       1.10725675       2.71221247       0.00000838       0.00000078      -0.00001254
Se       4.69769460       3.32177008       8.13664114       0.00000813       0.00000063      -0.00001165
C        0.00000049       0.00000011      -0.00000099       0.00000414       0.00000280      -0.00000362
F        1.30170492       0.92044451       5.42442932      -0.00146580      -0.00103843       0.00000138
F        4.96188531       3.50858197       5.42442914       0.00145590       0.00103509       0.00000483
F        4.04684004       0.92044481       3.83952526       0.00072253      -0.00103390      -0.00125986
F        2.21675011       3.50858245       7.00933374      -0.00073153       0.00103933       0.00127178
F        2.21675019       3.50858201       3.83952494      -0.00073242       0.00102955      -0.00125897
F        4.04684062       0.92044452       7.00933370       0.00073010      -0.00103533       0.00126970
