9
Lattice="4.431045029086094 -5.078669175212252e-09 2.5582650169174115 1.4770149993589885 4.1776292130714285 2.558265026527118 -5.462448069170854e-10 1.1383186720630778e-08 5.116530034780944" Properties=species:S:1:pos:R:3:forces:R:3 energy=-28.82304573059082 free_energy=-28.82304573059082 stress="0.0002760614443104714 1.559445550469718e-08 -2.6198899050200453e-08 1.559445550469718e-08 0.00027626953669823706 -1.6455690143857282e-08 -2.6198899050200453e-08 -1.6455690143857282e-08 0.00027614322607405484" pbc="T T T"
Se       1.47701522       1.04440722       2.55826495       0.00000280      -0.00000177      -0.00000081
Se       4.43104504       3.13322211       7.67479499       0.00000117       0.00000332       0.00000077
Cu       0.00000014      -0.00000004       0.00000007      -0.00000054       0.00000202      -0.00000121
F        1.52120954       1.07565745       5.11652997       0.00026736       0.00018874       0.00000036
F        4.38685044       3.10197175       5.11653003      -0.00026953      -0.00018908      -0.00000069
F        3.67044020       1.07565744       3.87567110      -0.00013429       0.00018890       0.00023171
F        2.23761964       3.10197167       6.35738917       0.00013286      -0.00019149      -0.00023253
F        2.23761959       3.10197176       3.87567105       0.00013450      -0.00018956       0.00023411
F        3.67044026       1.07565752       6.35738900      -0.00013454       0.00018889      -0.00023177
