9
Lattice="6.0597497434712855 3.996188497576541e-08 3.498598136984547 2.019916583480008 5.7131868730520505 3.498598198218614 -3.249403576958197e-09 7.269843468825414e-08 6.997196279597237" Properties=species:S:1:pos:R:3:forces:R:3 energy=-18.221641540527344 free_energy=-18.221641540527344 stress="0.00010817835573107004 -4.59365301352932e-09 3.3794116394147977e-09 -4.59365301352932e-09 0.00010816790017997846 -9.417905344477617e-10 3.3794116394147977e-09 -9.417905344477617e-10 0.0001081721784430556" pbc="T T T"
Se       2.01991669       1.42829690       3.49859815       0.00000019      -0.00000002       0.00000010
Se       6.05974978       4.28489007      10.49579453       0.00000007       0.00000051      -0.00000006
Cu       0.00000004       0.00000001      -0.00000001       0.00000002      -0.00000045       0.00000018
Br       2.00493242       1.41770139       6.99719626       0.00074379       0.00052565       0.00000003
Br       6.07473388       4.29548564       6.99719625      -0.00074387      -0.00052577       0.00000005
Br       5.05728348       1.41770133       5.23492056      -0.00037211       0.00052573       0.00064419
Br       3.02238272       4.29548557       8.75947207       0.00037208      -0.00052567      -0.00064440
Br       3.02238282       4.29548571       5.23492055       0.00037198      -0.00052555       0.00064409
Br       5.05728347       1.41770135       8.75947209      -0.00037212       0.00052561      -0.00064404
