9
Lattice="5.681540583410819 7.427677947626834e-08 3.280239133621371 1.8938470212727305 5.356607655637182 3.2802389775514715 1.5172503595889197e-07 -8.385996925232162e-08 6.560478004447326" Properties=species:S:1:pos:R:3:forces:R:3 energy=-20.652462005615234 free_energy=-20.652462005615234 stress="0.00035628536716103554 2.963496115171438e-08 2.8937630958125737e-08 2.963496115171438e-08 0.00035624406882561743 5.055558194300147e-10 2.8937630958125737e-08 5.055558194300147e-10 0.0003562936617527157" pbc="T T T"
Se       1.89384731       1.33915305       3.28023812       0.00000298       0.00000237      -0.00000390
Se       5.68154036       4.01745531       9.84071824      -0.00000047      -0.00000308       0.00000325
C       -0.00000186      -0.00000679      -0.00000902      -0.00002118      -0.00006404      -0.00008664
Cl       1.77799780       1.25723478       6.56047900       0.00124621       0.00088190       0.00000459
Cl       5.79739344       4.09937558       6.56047820      -0.00120988      -0.00085699       0.00000396
Cl       4.79254090       1.25723552       4.82003133      -0.00062668       0.00089235       0.00109087
Cl       2.78284394       4.09937697       8.30093028       0.00060365      -0.00084897      -0.00103409
Cl       2.78284599       4.09937379       4.82002998       0.00061771      -0.00086997       0.00107266
Cl       4.79254320       1.25723231       8.30092828      -0.00061189       0.00086648      -0.00105056
