9
Lattice="6.61263528778443 3.9581085202299985e-09 3.817806836061059 2.2042117897170246 6.234452077406411 3.817806795547581 7.408190007619576e-08 2.765136874005061e-09 7.635613543808525" Properties=species:S:1:pos:R:3:forces:R:3 energy=-13.2498779296875 free_energy=-13.2498779296875 stress="0.0001013656728900969 -5.534599445411459e-10 3.4854423791585987e-09 -5.534599445411459e-10 0.00010134748299606144 -6.174904587652463e-09 3.4854423791585987e-09 -6.174904587652463e-09 0.00010133820615010336" pbc="T T T"
Se       2.20421178       1.55861298       3.81780668      -0.00000098      -0.00000062      -0.00000110
Se       6.61263538       4.67583913      11.45342043       0.00000068      -0.00000029       0.00000061
Cd      -0.00000018      -0.00000015       0.00000013       0.00000067       0.00000117      -0.00000130
I        2.37602400       1.68010245       7.63561364      -0.00344491      -0.00243625      -0.00000067
I        6.44082345       4.55434967       7.63561373       0.00344279       0.00243433      -0.00000046
I        5.42462341       1.68010234       5.87550378       0.00172226      -0.00243448      -0.00298119
I        3.39222385       4.55434957       9.39572329      -0.00172231       0.00243595       0.00298280
I        3.39222375       4.55434974       5.87550383      -0.00172028       0.00243595      -0.00298214
I        5.42462319       1.68010262       9.39572320       0.00172204      -0.00243580       0.00298339
