9
Lattice="6.208081483387672 -2.9311424383679948e-08 3.584237480163313 2.0693604703417607 5.853035298615284 3.5842374740763985 -7.47244112970643e-09 -1.273873364880015e-08 7.168474973269282" Properties=species:S:1:pos:R:3:forces:R:3 energy=-14.527222633361816 free_energy=-14.527222633361816 stress="0.000333254603901878 1.6946168912568282e-08 -2.335244220219579e-09 1.6946168912568282e-08 0.0003332493070047349 6.2104814624319715e-09 -2.335244220219579e-09 6.2104814624319715e-09 0.00033324462128803134" pbc="T T T"
Se       2.06936073       1.46325876       3.58423730      -0.00000009       0.00000081      -0.00000106
Se       6.20808144       4.38977635      10.75271226       0.00000049      -0.00000102      -0.00000089
Cd       0.00000003       0.00000007      -0.00000015      -0.00000078      -0.00000069       0.00000069
Br       2.16056114       1.52774751       7.16847504      -0.00033575      -0.00023712       0.00000040
Br       6.11688080       4.32528775       7.16847509       0.00033671       0.00023764       0.00000054
Br       5.12780084       1.52774742       5.45533846       0.00016808      -0.00023770      -0.00029083
Br       3.14964101       4.32528783       8.88161161      -0.00016801       0.00023723       0.00029173
Br       3.14964102       4.32528784       5.45533838      -0.00016850       0.00023793      -0.00029160
Br       5.12780076       1.52774746       8.88161168       0.00016788      -0.00023691       0.00029106
