9
Lattice="4.492555827465019 -1.655125988029126e-08 2.5937782181388997 1.4975186358299186 4.2356219065658 2.593778144908515 9.271465376254265e-09 -8.313262221809456e-08 5.187556420219158" Properties=species:S:1:pos:R:3:forces:R:3 energy=-38.98725891113281 free_energy=-38.98725891113281 stress="0.00016779029101599008 -1.2840766228094935e-09 1.5648429041448253e-07 -1.2840766228094935e-09 0.0001678344124229625 5.368618971601791e-08 1.5648429041448253e-07 5.368618971601791e-08 0.00016791801317594945" pbc="T T T"
Se       1.49751773       1.05890191       2.59378081      -0.00001418      -0.00005537       0.00003869
Se       4.49255517       3.17671292       7.78133788      -0.00001205      -0.00005529       0.00004406
C       -0.00000031      -0.00000069      -0.00000071      -0.00000188      -0.00001455       0.00000804
O        1.29316816       0.91440898       5.18755523      -0.00097859      -0.00067461      -0.00001536
O        4.69690685       3.32121557       5.18755530       0.00098777       0.00072002      -0.00001359
O        3.84597223       0.91440937       3.71369350       0.00049645      -0.00067663      -0.00086868
O        2.14410257       3.32121569       6.66141779      -0.00048852       0.00071704       0.00083649
O        2.14410305       3.32121518       3.71369346      -0.00048822       0.00071716      -0.00086606
O        3.84597242       0.91440839       6.66141763       0.00049794      -0.00067759       0.00083637
