9
Lattice="6.530733668662576 -8.557823427425843e-08 3.770520942481587 2.176911111963495 6.1572346443985415 3.7705209948588956 -1.0847596465104953e-07 -1.2555222908038588e-08 7.541042072849014" Properties=species:S:1:pos:R:3:forces:R:3 energy=-22.331865310668945 free_energy=-22.331865310668945 stress="-2.6684704153012717e-06 -5.256714619150671e-09 -7.834073945112152e-10 -5.256714619150671e-09 -2.6427085231262026e-06 9.359633068584117e-09 -7.834073945112152e-10 9.359633068584117e-09 -2.651314161994378e-06" pbc="T T T"
Se       2.17691106       1.53930849       3.77052090      -0.00000099      -0.00000110       0.00000202
Se       6.53073362       4.61792603      11.31156295       0.00000073       0.00000104      -0.00000179
Fe      -0.00000018       0.00000001       0.00000027       0.00000354       0.00000096      -0.00000825
I        1.95714275       1.38390933       7.54104219       0.00153726       0.00108551      -0.00000057
I        6.75050220       4.77332546       7.54104208      -0.00154084      -0.00108781      -0.00000037
I        5.55216226       1.38390895       5.46545656      -0.00077035       0.00108809       0.00133272
I        3.15548259       4.77332511       9.61662714       0.00076765      -0.00108293      -0.00132765
I        3.15548229       4.77332558       5.46545661       0.00077064      -0.00108853       0.00133335
I        5.55216198       1.38390920       9.61662719      -0.00076767       0.00108460      -0.00132917
