9
Lattice="5.825929447592757 2.9060774833805436e-07 3.363602026460326 1.9419766570615058 5.492739177950947 3.3636021987249545 -1.9230329626262517e-07 7.500122529860079e-08 6.7272043859997375" Properties=species:S:1:pos:R:3:forces:R:3 energy=-25.336647033691406 free_energy=-25.336647033691406 stress="0.0003543553175404668 4.387399599181663e-08 1.2195936704983978e-08 4.387399599181663e-08 0.00035418581683188677 1.4517178215101012e-07 1.2195936704983978e-08 1.4517178215101012e-07 0.0003540771431289613" pbc="T T T"
Se       1.94197718       1.37318502       3.36360268      -0.00000174      -0.00000247      -0.00000058
Se       5.82592830       4.11955429      10.09080861      -0.00000426       0.00000388       0.00000547
Fe      -0.00000007       0.00000013      -0.00000105      -0.00000136      -0.00000669       0.00001731
Cl       1.82684197       1.29177252       6.72720383      -0.00525144      -0.00371337       0.00000196
Cl       5.94106295       4.20096660       6.72720351       0.00526178       0.00371730      -0.00000054
Cl       4.91250769       1.29177314       4.94569363       0.00263079      -0.00372145      -0.00455430
Cl       2.85539782       4.20096700       8.50871438      -0.00262813       0.00371391       0.00454459
Cl       2.85539904       4.20096595       4.94569361      -0.00263333       0.00372177      -0.00455722
Cl       4.91250873       1.29177356       8.50871527       0.00262780      -0.00371331       0.00454357
