9
Lattice="4.489667570399047 3.9993578427686806e-08 2.592110741454436 1.4965558617845858 4.2328992968145975 2.5921107981295624 -3.459047689822111e-08 4.495338417474021e-08 5.184221542821357" Properties=species:S:1:pos:R:3:forces:R:3 energy=-34.00086975097656 free_energy=-34.00086975097656 stress="0.0004935708711855114 -1.78983405874078e-08 -1.022039484155357e-07 -1.78983405874078e-08 0.0004936092882417142 4.453255542102852e-08 -1.022039484155357e-07 4.453255542102852e-08 0.0004936027689836919" pbc="T T T"
Se       1.49655570       1.05822482       2.59211094      -0.00000076       0.00000007       0.00000116
Se       4.48966756       3.17467461       7.77633238      -0.00000040       0.00000050       0.00000003
Fe       0.00000007       0.00000014       0.00000003       0.00000377      -0.00000660       0.00000015
F        1.53843510       1.08783793       5.18422153      -0.00305989      -0.00216387      -0.00000037
F        4.44778820       3.14506144       5.18422146       0.00306126       0.00216319      -0.00000054
F        3.72045000       1.08783779       3.92443443       0.00152931      -0.00216371      -0.00264880
F        2.26577354       3.14506138       6.44400842      -0.00153226       0.00216775       0.00265428
F        2.26577336       3.14506153       3.92443450      -0.00153005       0.00216310      -0.00265105
F        3.72045009       1.08783785       6.44400867       0.00152954      -0.00216036       0.00264537
