9
Lattice="5.401803092229078 7.88265212770253e-08 3.11873215991465 1.800601173558306 5.0928684772471735 3.118732041274552 -1.0513992101256952e-07 -2.1964897848358846e-07 6.2374645019369535" Properties=species:S:1:pos:R:3:forces:R:3 energy=-35.018470764160156 free_energy=-35.018470764160156 stress="0.00023558744578622282 4.427307587206997e-08 2.8373618121690924e-08 4.427307587206997e-08 0.00023558063548989594 -5.747385500853852e-08 2.8373618121690924e-08 -5.747385500853852e-08 0.00023537380911875516" pbc="T T T"
Se       1.80060145       1.27321845       3.11873237       0.00000546       0.00000570       0.00000150
Se       5.40180275       3.81965102       9.35619729      -0.00000391      -0.00000191       0.00000318
Fe       0.00000046      -0.00000046      -0.00000080      -0.00000527       0.00000528       0.00001770
S        1.79329091       1.26804873       6.23746438      -0.00308472      -0.00217986      -0.00000035
S        5.40911293       3.82481937       6.23746439       0.00308800       0.00217959      -0.00000315
S        4.50515715       1.26804840       4.67176698       0.00154024      -0.00218099      -0.00266767
S        2.69724681       3.82482066       7.80316175      -0.00153425       0.00216958       0.00265822
S        2.69724700       3.82481944       4.67176687      -0.00154093       0.00217962      -0.00267136
S        4.50515714       1.26804776       7.80316158       0.00153539      -0.00217697       0.00266224
