9
Lattice="4.575803764149024 3.2857029659457155e-07 2.6418416987338764 1.5252680841390998 4.314109910432153 2.6418419533851245 -7.182653264344841e-08 2.6109376788567107e-07 5.283683521875049" Properties=species:S:1:pos:R:3:forces:R:3 energy=-38.71620178222656 free_energy=-38.71620178222656 stress="-0.00019373989198356867 -5.162657998880604e-07 -3.311136538286519e-07 -5.162657998880604e-07 -0.00019523508672136813 -1.196942065462281e-07 -3.311136538286519e-07 -1.196942065462281e-07 -0.00019515276653692126" pbc="T T T"
Se       1.52527991       1.07852051       2.64183834       0.00019943      -0.00011949      -0.00004226
Se       4.57579492       3.23558544       7.92551390      -0.00015752       0.00005281      -0.00017768
Fe      -0.00000039       0.00000038       0.00000099       0.00000307       0.00000142       0.00001558
O        1.53082990       1.08245619       5.28368463       0.00474936       0.00329968       0.00002034
O        4.57024024       3.23165679       5.28368802      -0.00477171      -0.00327092       0.00006906
O        3.81038601       1.08245831       3.96757762      -0.00241950       0.00332320       0.00408441
O        2.29068638       3.23165128       6.59979340       0.00242710      -0.00333139      -0.00403827
O        2.29068269       3.23165233       3.96757890       0.00237778      -0.00332326       0.00410163
O        3.81038725       1.08246106       6.59979261      -0.00240746       0.00336769      -0.00403279
