9
Lattice="6.260254133417122 9.988359025272936e-08 3.6143592793807104 2.0867514075401385 5.902224286031495 3.614359390988357 -2.7334618133596214e-08 1.1736241596233214e-07 7.228718606106378" Properties=species:S:1:pos:R:3:forces:R:3 energy=-19.064929962158203 free_energy=-19.064929962158203 stress="7.179154636105523e-05 -5.808021619202464e-09 -1.7669850027601797e-09 -5.808021619202464e-09 7.180782995419577e-05 8.251688776717003e-10 -1.7669850027601797e-09 8.251688776717003e-10 7.181489490903914e-05" pbc="T T T"
Se       2.08675123       1.47555623       3.61435937      -0.00000007      -0.00000044      -0.00000032
Se       6.26025463       4.42666782      10.84307752       0.00000073      -0.00000051      -0.00000039
Ge      -0.00000036      -0.00000034       0.00000023       0.00000410       0.00000833      -0.00000299
Br       1.98140512       1.40106509       7.22871872      -0.00460263      -0.00325261      -0.00000029
Br       6.36560119       4.50116006       7.22871873       0.00459239       0.00324736      -0.00000057
Br       5.26955130       1.40106487       5.33030652       0.00230011      -0.00325021      -0.00398341
Br       3.07745383       4.50115960       9.12713107      -0.00229890       0.00325166       0.00398077
Br       3.07745363       4.50115946       5.33030622      -0.00229759       0.00324941      -0.00397882
Br       5.26955151       1.40106525       9.12713068       0.00230194      -0.00325303       0.00398619
