9
Lattice="5.492797213601479 -1.3170947030239477e-07 3.171267870669298 1.8309322282659046 5.178658512449861 3.171267960893672 2.4757375776727305e-07 2.8556293492596215e-07 6.342535312528257" Properties=species:S:1:pos:R:3:forces:R:3 energy=-28.207765579223633 free_energy=-28.207765579223633 stress="-0.00018977734725922346 -5.104650213638706e-08 -4.962337740721523e-08 -5.104650213638706e-08 -0.00018970819655805826 -4.630286198903377e-08 -4.962337740721523e-08 -4.630286198903377e-08 -0.00018967628420796245" pbc="T T T"
Se       1.83093760       1.29466522       3.17126905       0.00003660       0.00000518       0.00001389
Se       5.49279776       3.88399731       9.51381311       0.00000548       0.00002343       0.00006938
Ge      -0.00000012      -0.00000008      -0.00000049      -0.00000100      -0.00000065       0.00000235
S        1.91549587       1.35445815       6.34253343      -0.00208452      -0.00148629      -0.00000980
S        5.40823360       3.82419892       6.34253213       0.00208440       0.00148071      -0.00002836
S        4.53504946       1.35446096       4.83013449       0.00103942      -0.00147536      -0.00182655
S        2.78867821       3.82419889       7.85493377      -0.00106235       0.00147660       0.00180104
S        2.78868064       3.82419773       4.83013424      -0.00104102       0.00147364      -0.00182772
S        4.53504571       1.35445743       7.85493475       0.00102322      -0.00149731       0.00180557
