9
Lattice="6.581131820829639 9.786536088200647e-08 3.7996181161584217 2.193710663009804 6.204750628602786 3.7996181788617 -6.946415612062296e-08 2.767694455214797e-08 7.59923635263227" Properties=species:S:1:pos:R:3:forces:R:3 energy=-17.021446228027344 free_energy=-17.021446228027344 stress="5.9979640354868025e-05 -1.1780903363955986e-08 1.2013816608202887e-08 -1.1780903363955986e-08 5.999136919854209e-05 -1.0732474464703046e-08 1.2013816608202887e-08 -1.0732474464703046e-08 5.998849155730568e-05" pbc="T T T"
Se       2.19371000       1.55118714       3.79961797       0.00000062      -0.00000107      -0.00000025
Se       6.58113230       4.65356365      11.39885419       0.00000015       0.00000143      -0.00000072
Ge      -0.00000008      -0.00000001       0.00000046      -0.00000011       0.00000089       0.00000014
I        2.33153476       1.64864425       7.59923654      -0.00088903      -0.00062864       0.00000020
I        6.44330778       4.55610665       7.59923630       0.00088835       0.00062856       0.00000010
I        5.41536438       1.64864392       5.81878649       0.00044428      -0.00062898      -0.00076908
I        3.35947810       4.55610662       9.37968606      -0.00044446       0.00062817       0.00076875
I        3.35947789       4.55610665       5.81878635      -0.00044450       0.00062846      -0.00076956
I        5.41536451       1.64864415       9.37968624       0.00044474      -0.00062886       0.00077036
