9
Lattice="5.905220744392134 3.156288163679209e-08 3.409380610284513 1.968406899496738 5.567495553059021 3.4093806883278983 1.6517790439070506e-07 2.1238170886674155e-07 6.818760934472474" Properties=species:S:1:pos:R:3:forces:R:3 energy=-22.326141357421875 free_energy=-22.326141357421875 stress="6.91220848239027e-05 3.939249992868099e-08 -6.370984184655981e-09 3.939249992868099e-08 6.902822497067973e-05 -2.5861590202680418e-08 -6.370984184655981e-09 -2.5861590202680418e-08 6.917770951986313e-05" pbc="T T T"
Se       1.96840748       1.39187634       3.40938049      -0.00000252      -0.00000080      -0.00000024
Se       5.90522287       4.17562175      10.22814052       0.00000100       0.00000114      -0.00000231
Ge      -0.00000011       0.00000000       0.00000092      -0.00000065      -0.00000457      -0.00002361
Cl       1.83879807       1.30022678       6.81876105      -0.00130928      -0.00092646      -0.00000214
Cl       6.03482929       4.26726867       6.81876158       0.00131330       0.00092454       0.00000124
Cl       4.98582109       1.30022627       5.00182649       0.00065069      -0.00091818      -0.00112532
Cl       2.88780618       4.26726831       8.63569580      -0.00066034       0.00093246       0.00114138
Cl       2.88780559       4.26726866       5.00182621      -0.00065058       0.00091958      -0.00112930
Cl       4.98582080       1.30022631       8.63569581       0.00065826      -0.00092791       0.00114043
