9
Lattice="4.499859046717814 4.570912349601487e-09 2.597994802402735 1.499953006907934 4.242507690524427 2.597994824874638 -2.5038312714892968e-08 9.817589646166413e-09 5.195989648173102" Properties=species:S:1:pos:R:3:forces:R:3 energy=-33.24164962768555 free_energy=-33.24164962768555 stress="0.0004879708285443485 1.6274572800512033e-08 -5.55144996639001e-09 1.6274572800512033e-08 0.0004880593332927674 2.4115811569913603e-08 -5.55144996639001e-09 2.4115811569913603e-08 0.00048803130630403757" pbc="T T T"
Se       1.49995295       1.06062689       2.59799477       0.00000029       0.00000105      -0.00000018
Se       4.49985906       3.18188077       7.79398418      -0.00000085      -0.00000065      -0.00000018
Ge      -0.00000007       0.00000005       0.00000024       0.00000428       0.00000190       0.00000004
F        1.51578330       1.07182066       5.19598963       0.00082297       0.00058284       0.00000031
F        4.48402874       3.17068710       5.19598965      -0.00082599      -0.00058414      -0.00000006
F        3.74196734       1.07182067       3.91070165      -0.00041331       0.00058392       0.00071454
F        2.25784468       3.17068706       6.48127758       0.00041293      -0.00058449      -0.00071417
F        2.25784461       3.17068703       3.91070178       0.00041275      -0.00058410       0.00071436
F        3.74196746       1.07182059       6.48127762      -0.00041338       0.00058356      -0.00071461
