9
Lattice="4.71249818255805 1.6201877060544494e-07 2.720761885136976 1.570832739620129 4.44298646721236 2.720762128753355 -1.1476925796048386e-07 2.1721378423402974e-07 5.44152396906015" Properties=species:S:1:pos:R:3:forces:R:3 energy=-48.789756774902344 free_energy=-48.789756774902344 stress="0.0001309512445004657 1.1391197318744162e-07 2.596921788722284e-08 1.1391197318744162e-07 0.00013117637718096375 -4.7721545826107103e-08 2.596921788722284e-08 -4.7721545826107103e-08 0.00013110938016325235" pbc="T T T"
Se       1.57083479       1.11074703       2.72076005       0.00002329       0.00000162      -0.00002235
Se       4.71249628       3.33224103       8.16228428      -0.00001997       0.00001113      -0.00002326
Hf       0.00000006       0.00000004      -0.00000031      -0.00000216       0.00000229       0.00000449
O        1.67506343       1.18444890       5.44152530      -0.00246722      -0.00175208       0.00001338
O        4.60826731       3.25853769       5.44152506       0.00246972       0.00174913       0.00001176
O        3.87496549       1.18444832       4.17140931       0.00122645      -0.00175279      -0.00213885
O        2.40836559       3.25853776       6.71163974      -0.00122002       0.00173891       0.00214732
O        2.40836505       3.25853796       4.17140942      -0.00123122       0.00174841      -0.00213903
O        3.87496514       1.18444872       6.71163916       0.00122112      -0.00174651       0.00214618
