9
Lattice="5.594497871780677 -4.375837091878551e-08 3.229984817131848 1.8648326016155 5.274542791765473 3.229984784319198 6.258681022173847e-08 4.068454687183071e-09 6.459969525860107" Properties=species:S:1:pos:R:3:forces:R:3 energy=-36.333404541015625 free_energy=-36.333404541015625 stress="0.00011464032286312431 -1.5106367268202803e-09 -4.998624092422688e-08 -1.5106367268202803e-09 0.0001144910347647965 1.3283236732775094e-08 -4.998624092422688e-08 1.3283236732775094e-08 0.00011461736721685156" pbc="T T T"
Se       1.86483242       1.31863476       3.22998500      -0.00000137      -0.00000411      -0.00000326
Se       5.59449757       3.95590738       9.68995633      -0.00000596       0.00000061       0.00001225
Hf       0.00000016       0.00000031       0.00000018      -0.00000069      -0.00000200      -0.00000401
S        2.01581125       1.42539343       6.45996930       0.00081441       0.00057641       0.00000108
S        5.44351959       3.84914922       6.45996902      -0.00081074      -0.00057057      -0.00000529
S        4.58659215       1.42539390       4.97572752      -0.00040258       0.00057741       0.00070247
S        2.87273865       3.84914923       7.94421038       0.00040670      -0.00057314      -0.00070339
S        2.87273835       3.84914961       4.97572822       0.00040844      -0.00057686       0.00070453
S        4.58659206       1.42539314       7.94421039      -0.00040819       0.00057235      -0.00070435
