9
Lattice="6.661531952947691 3.6280062666126884e-08 3.846037341765015 2.2205106793288216 6.280552544028741 3.8460373519129303 6.713468498120437e-08 5.990000079858056e-08 7.692074567249323" Properties=species:S:1:pos:R:3:forces:R:3 energy=-15.743208885192871 free_energy=-15.743208885192871 stress="0.00011540463310666382 -9.613577489631098e-09 -2.618418593058891e-09 -9.613577489631098e-09 0.00011542835272848606 -7.990273331870412e-09 -2.618418593058891e-09 -7.990273331870412e-09 0.00011541561980266124" pbc="T T T"
Se       2.22051076       1.57013814       3.84603701      -0.00000111       0.00000067      -0.00000086
Se       6.66153187       4.71041430      11.53811273      -0.00000001      -0.00000171       0.00000221
In       0.00000024      -0.00000007      -0.00000011      -0.00000195       0.00000026      -0.00000232
I        2.35291310       1.66376076       7.69207464      -0.00057724      -0.00040905       0.00000063
I        6.52912935       4.61679183       7.69207452       0.00057942       0.00041038      -0.00000104
I        5.48507543       1.66376111       5.88371986       0.00028974      -0.00040872      -0.00050125
I        3.39696734       4.61679165       9.50042937      -0.00029011       0.00040993       0.00050117
I        3.39696736       4.61679187       5.88371982      -0.00028816       0.00040877      -0.00050050
I        5.48507539       1.66376100       9.50042918       0.00028953      -0.00041054       0.00050195
