9
Lattice="6.273576653541606 -1.5158805026890473e-07 3.6220510540057256 2.0911921037610397 5.914784702351508 3.622051004066522 -1.1691354387682539e-08 -6.94298248930214e-08 7.244102128261519" Properties=species:S:1:pos:R:3:forces:R:3 energy=-17.480314254760742 free_energy=-17.480314254760742 stress="0.00013758207205682993 1.701616092475433e-08 5.207185349576093e-09 1.701616092475433e-08 0.00013757449050899595 -3.824369265714722e-09 5.207185349576093e-09 -3.824369265714722e-09 0.00013757453416474164" pbc="T T T"
Se       2.09119209       1.47869584       3.62205041      -0.00000001      -0.00000126      -0.00000169
Se       6.27357575       4.43608819      10.86615231      -0.00000150      -0.00000052      -0.00000059
In       0.00000030       0.00000030       0.00000047      -0.00000011      -0.00000091       0.00000005
Br       2.16223723       1.52893234       7.24410220      -0.00029749      -0.00021133      -0.00000007
Br       6.20253203       4.38585213       7.24410226       0.00030103       0.00021280       0.00000037
Br       5.19245809       1.52893243       5.49460353       0.00014994      -0.00021096      -0.00025867
Br       3.17231078       4.38585198       8.99360099      -0.00015062       0.00021106       0.00026096
Br       3.17231074       4.38585222       5.49460354      -0.00014968       0.00021213      -0.00025897
Br       5.19245801       1.52893247       8.99360098       0.00014835      -0.00021088       0.00025846
