9
Lattice="4.759941937403172 -7.772618750354927e-07 2.7481523918105806 1.5866465073879645 4.487720902492931 2.748152516986877 1.6595632625628357e-06 1.3267973923327658e-06 5.496301909173165" Properties=species:S:1:pos:R:3:forces:R:3 energy=-43.044090270996094 free_energy=-43.044090270996094 stress="0.0003287177823949605 4.345558863860788e-06 -4.011050350527512e-06 4.345558863860788e-06 0.0003153037396259606 -2.8012079837935744e-06 -4.011050350527512e-06 -2.8012079837935744e-06 0.0003408326883800328" pbc="T T T"
Se       1.58656717       1.12183932       2.74830108      -0.00106676      -0.00113231       0.00225460
Se       4.76001729       3.36593116       8.24450281       0.00097935       0.00192194       0.00091600
Ir       0.00000026      -0.00000374      -0.00001495       0.00000552      -0.00005101      -0.00022184
O        1.54319701       1.09117769       5.49624954       0.00327601       0.00192234      -0.00079770
O        4.80339973       3.39652785       5.49628229      -0.00317708      -0.00217565      -0.00040338
O        3.98834253       1.09116270       4.08459184      -0.00167451       0.00176109       0.00265704
O        2.35823581       3.39656298       6.90796604       0.00148117      -0.00173512      -0.00346247
O        2.35822813       3.39653018       4.08458653       0.00144008      -0.00216950       0.00258732
O        3.98837216       1.09115782       6.90796207      -0.00126378       0.00165826      -0.00352922
