9
Lattice="4.598570787358533 -8.370559632397712e-08 2.654986016541427 1.5328568891356218 4.335573672171386 2.6549859491049 -1.5620747998288723e-08 -9.363807781036969e-08 5.30997206013878" Properties=species:S:1:pos:R:3:forces:R:3 energy=-30.1106014251709 free_energy=-30.1106014251709 stress="0.00028143692179583013 -2.2305329139271635e-08 3.8669000446134305e-08 -2.2305329139271635e-08 0.0002816903288476169 6.210410674611921e-08 3.8669000446134305e-08 6.210410674611921e-08 0.0002814809849951416" pbc="T T T"
Se       1.53285585       1.08389366       2.65498560      -0.00001472       0.00000624      -0.00000771
Se       4.59856949       3.25168115       7.96495738      -0.00001613       0.00001152      -0.00000991
In      -0.00000021       0.00000016      -0.00000031       0.00000198      -0.00000371       0.00000731
F        1.64939065       1.16629408       5.30997216       0.00351734       0.00247557       0.00000343
F        4.48203798       3.16927873       5.30997238      -0.00350896      -0.00248776       0.00000475
F        3.77387604       1.16629431       4.08340016      -0.00174947       0.00247831       0.00304320
F        2.35755265       3.16927848       6.53654497       0.00176451      -0.00248487      -0.00303467
F        2.35755196       3.16927900       4.08339964       0.00175999      -0.00248250       0.00304204
F        3.77387612       1.16629437       6.53654423      -0.00175447       0.00248696      -0.00304838
