9
Lattice="5.410151089194802 6.869638833243259e-09 3.123552130309261 1.8033836937119325 5.100739448628909 3.123552146180204 -1.0070916977795722e-07 -5.17742844085329e-08 6.24710443505192" Properties=species:S:1:pos:R:3:forces:R:3 energy=-35.84445571899414 free_energy=-35.84445571899414 stress="5.748622788814828e-05 -6.2884755180903085e-09 3.6483196907965976e-08 -6.2884755180903085e-09 5.761895590694621e-05 2.68866173769311e-08 3.6483196907965976e-08 2.68866173769311e-08 5.752953074988909e-05" pbc="T T T"
Se       1.80338349       1.27518400       3.12355248      -0.00000410      -0.00000408       0.00000166
Se       5.41015057       3.82555423       9.37065645      -0.00000180      -0.00000343      -0.00000045
Ir       0.00000001      -0.00000007       0.00000006      -0.00000168      -0.00000156      -0.00000159
S        1.88177111       1.33061318       6.24710467       0.00051254       0.00036207      -0.00000062
S        5.33176363       3.77012670       6.24710450      -0.00051224      -0.00036088       0.00000110
S        4.46926551       1.33061331       4.75321337      -0.00025409       0.00036374       0.00044250
S        2.74426932       3.77012650       7.74099492       0.00025779      -0.00035918      -0.00044274
S        2.74426922       3.77012658       4.75321365       0.00025696      -0.00036031       0.00044298
S        4.46926586       1.33061321       7.74099475      -0.00025347       0.00036329      -0.00044328
