9
Lattice="4.4171948077986825 2.7399057541052222e-08 2.550268598659764 1.4723982826220787 4.1645712131457016 2.55026862026923 -1.6277269217787133e-08 1.4956309353482808e-08 5.100537225512612" Properties=species:S:1:pos:R:3:forces:R:3 energy=-31.815673828125 free_energy=-31.815673828125 stress="0.00031207792926579714 2.999146886395465e-08 -2.207576699220226e-08 2.999146886395465e-08 0.0003121033078059554 -4.958249633091327e-08 -2.207576699220226e-08 -4.958249633091327e-08 0.0003120337496511638" pbc="T T T"
Se       1.47239816       1.04114275       2.55026865       0.00000042      -0.00000035       0.00000084
Se       4.41719506       3.12342866       7.65080625       0.00000143       0.00000040       0.00000378
Mg       0.00000008       0.00000018      -0.00000017      -0.00000071      -0.00000805       0.00000289
F        1.50015093       1.06076676       5.10053726      -0.00002846      -0.00002264      -0.00000078
F        4.38944210       3.10380439       5.10053700       0.00003491       0.00002488       0.00000054
F        3.66711951       1.06076692       3.84943725       0.00001387      -0.00002183      -0.00002675
F        2.22247350       3.10380430       6.35163710      -0.00001437       0.00002101       0.00002918
F        2.22247354       3.10380440       3.84943737      -0.00002007       0.00002495      -0.00003292
F        3.66711943       1.06076664       6.35163706       0.00001306      -0.00001817       0.00002332
