9
Lattice="6.227110748412316 -3.3679416551678673e-08 3.595223930307216 2.0757035766233343 5.870976080114596 3.595223886014426 8.35674417746983e-08 4.843816116472729e-09 7.190447715871299" Properties=species:S:1:pos:R:3:forces:R:3 energy=-24.827125549316406 free_energy=-24.827125549316406 stress="-5.474636418512091e-05 1.7858957646055273e-09 -1.7508993144232932e-09 1.7858957646055273e-09 -5.475683792610653e-05 1.1344158501458423e-08 -1.7508993144232932e-09 1.1344158501458423e-08 -5.476495061884634e-05" pbc="T T T"
Se       2.07570361       1.46774415       3.59522414      -0.00000009       0.00000096       0.00000062
Se       6.22711063       4.40323306      10.78567230      -0.00000009       0.00000141       0.00000035
Mn      -0.00000010      -0.00000021      -0.00000037      -0.00000039      -0.00000052       0.00000200
Br       1.95546765       1.38272466       7.19044762       0.00101773       0.00071861      -0.00000051
Br       6.34734700       4.48825142       7.19044782      -0.00101809      -0.00071988      -0.00000007
Br       5.24937690       1.38272444       5.28870849      -0.00050827       0.00071802       0.00088094
Br       3.05343739       4.48825137       9.09218688       0.00050971      -0.00071969      -0.00088255
Br       3.05343761       4.48825120       5.28870835       0.00050887      -0.00071841       0.00088128
Br       5.24937697       1.38272410       9.09218678      -0.00050935       0.00071948      -0.00088181
