9
Lattice="5.49977171500805 -2.55681352611929e-09 3.1752946999933744 1.8332572564634575 5.185234515369183 3.1752946644204525 5.984337311502437e-08 -1.2520972459994923e-09 6.350589296334969" Properties=species:S:1:pos:R:3:forces:R:3 energy=-38.59968566894531 free_energy=-38.59968566894531 stress="0.00016533756570424885 -3.4721741037913034e-09 2.7538886726574674e-09 -3.4721741037913034e-09 0.00016529037384316325 -6.666563745483245e-09 2.7538886726574674e-09 -6.666563745483245e-09 0.00016541755758225918" pbc="T T T"
Se       1.83325755       1.29630832       3.17529482       0.00000181      -0.00000309      -0.00000010
Se       5.49977149       3.88892635       9.52588371      -0.00000046       0.00000392      -0.00000239
Mo      -0.00000002       0.00000010      -0.00000032      -0.00000211      -0.00000058       0.00000693
S        1.87929957       1.32886521       6.35058931      -0.00076926      -0.00054488       0.00000006
S        5.45372937       3.85636879       6.35058945       0.00077307       0.00054827       0.00000115
S        4.56012212       1.32886565       4.80281597       0.00038545      -0.00054897      -0.00066978
S        2.77290707       3.85636943       7.89836323      -0.00038341       0.00054184       0.00066528
S        2.77290698       3.85636883       4.80281569      -0.00038898       0.00054944      -0.00067085
S        4.56012198       1.32886539       7.89836276       0.00038362      -0.00054596       0.00066960
