9
Lattice="5.723336701959016 6.292561818758132e-08 3.3043701879462417 1.907778874096614 5.396013511524317 3.3043703367003427 3.640214756053399e-08 2.079260147596671e-07 6.608740312842133" Properties=species:S:1:pos:R:3:forces:R:3 energy=-20.92300033569336 free_energy=-20.92300033569336 stress="7.699536217842251e-05 -6.300165722450402e-08 -3.948053617364167e-08 -6.300165722450402e-08 7.715132960584015e-05 1.589692111281238e-08 -3.948053617364167e-08 1.589692111281238e-08 7.699830894125625e-05" pbc="T T T"
Se       1.90777885       1.34900334       3.30436995       0.00000288       0.00000072       0.00000032
Se       5.72333644       4.04701026       9.91310942      -0.00000012      -0.00000108      -0.00000057
Mg      -0.00000012      -0.00000019      -0.00000033       0.00000138       0.00000189       0.00000423
Cl       1.94609764       1.37609867       6.60874090       0.00119287       0.00084348      -0.00000106
Cl       5.68501840       4.01991542       6.60874103      -0.00119851      -0.00084573       0.00000063
Cl       4.75028795       1.37609872       4.98974065      -0.00059573       0.00084095       0.00103299
Cl       2.88082745       4.01991506       8.22774091       0.00059601      -0.00084339      -0.00103391
Cl       2.88082785       4.01991506       4.98974000       0.00059780      -0.00084241       0.00103180
Cl       4.75028793       1.37609883       8.22774078      -0.00059667       0.00084549      -0.00103433
