9
Lattice="6.466272492261628 -1.0653722042812293e-07 3.7333041999861334 2.15542407593771 6.096460200502119 3.7333041786908456 -5.3946353857462823e-08 -6.422707651223351e-08 7.466608493410059" Properties=species:S:1:pos:R:3:forces:R:3 energy=-22.889724731445312 free_energy=-22.889724731445312 stress="8.570981299271807e-05 7.399911794436775e-10 4.1364920377873204e-09 7.399911794436775e-10 8.570690988563001e-05 3.738660769858626e-10 4.1364920377873204e-09 3.738660769858626e-10 8.570783393224701e-05" pbc="T T T"
Se       2.15542408       1.52411509       3.73330410       0.00000021       0.00000037       0.00000012
Se       6.46627240       4.57234475      11.19991241      -0.00000041      -0.00000028      -0.00000074
Mn      -0.00000032       0.00000020       0.00000119       0.00000582      -0.00000141      -0.00001962
I        2.06744160       1.46190232       7.46660868      -0.00496447      -0.00351062      -0.00000011
I        6.55425512       4.63455808       7.46660849       0.00496095       0.00350821       0.00000067
I        5.43255176       1.46190168       5.52376082       0.00247791      -0.00350490      -0.00429216
I        3.18914517       4.63455759       9.40945518      -0.00248469       0.00351407       0.00430390
I        3.18914483       4.63455832       5.52376103      -0.00247923       0.00350666      -0.00429417
I        5.43255135       1.46190213       9.40945553       0.00248396      -0.00351208       0.00430216
