9
Lattice="4.608770443955829 -3.6275405781493346e-07 2.660875294684782 1.5362567698795553 4.345189920703891 2.6608747798578665 5.318749227814769e-07 -2.544392273536449e-07 5.32174966813517" Properties=species:S:1:pos:R:3:forces:R:3 energy=-55.93754577636719 free_energy=-55.93754577636719 stress="-4.4675882236333564e-05 -5.9790772866108455e-06 4.417261607159162e-06 -5.9790772866108455e-06 -3.883241515723057e-05 -4.633913704310544e-06 4.417261607159162e-06 -4.633913704310544e-06 -3.819580524577759e-05" pbc="T T T"
Se       1.53625719       1.08629881       2.66087473      -0.00000052       0.00001319      -0.00000351
Se       4.60877061       3.25889017       7.98262490      -0.00001150      -0.00001893      -0.00000125
Mn       0.00000034       0.00000018      -0.00000004       0.00004820      -0.00001933      -0.00012005
O        1.55884734       1.10227125       5.32175076       0.00097561       0.00065458      -0.00006778
O        4.58618114       3.24291888       5.32174949      -0.00107735      -0.00075281      -0.00000142
O        3.82934693       1.10227147       4.01087674      -0.00047365       0.00066137       0.00082135
O        2.31568081       3.24291650       6.63262260       0.00041398      -0.00045693      -0.00066930
O        2.31568222       3.24291611       4.01087915       0.00026089      -0.00034690       0.00042242
O        3.82934456       1.10227369       6.63262060      -0.00013652       0.00026584      -0.00038099
