9
Lattice="6.14860028883758 3.9241947760563676e-08 3.5498959620319703 2.0495334759058186 5.796955927402787 3.5498959459315125 -5.1388301387563025e-08 -5.605598508470893e-08 7.0997920130710845" Properties=species:S:1:pos:R:3:forces:R:3 energy=-18.03282356262207 free_energy=-18.03282356262207 stress="0.00017038779333233833 2.3237556323607578e-09 2.8799354567787816e-10 2.3237556323607578e-09 0.00017036939971148968 2.426438605596104e-09 2.8799354567787816e-10 2.426438605596104e-09 0.00017037773795891553" pbc="T T T"
Se       2.04953335       1.44923878       3.54989597      -0.00000056      -0.00000001       0.00000043
Se       6.14860028       4.34771687      10.64968796      -0.00000031      -0.00000022      -0.00000056
Mg       0.00000002      -0.00000013       0.00000015      -0.00000016       0.00000229      -0.00000014
Br       2.08064550       1.47123854       7.09979198       0.00154838       0.00109577      -0.00000043
Br       6.11748841       4.32571745       7.09979196      -0.00155067      -0.00109544       0.00000008
Br       5.10827756       1.47123853       5.35178781      -0.00077459       0.00109533       0.00133973
Br       3.08985622       4.32571752       8.84779632       0.00077542      -0.00109576      -0.00134354
Br       3.08985607       4.32571754       5.35178770       0.00077592      -0.00109641       0.00134338
Br       5.10827743       1.47123856       8.84779585      -0.00077337       0.00109438      -0.00133898
