9
Lattice="6.551960408462482 -9.193055204965983e-09 3.7827761643760276 2.1839867944179807 6.177247467391286 3.7827761639180104 2.0943328098015066e-08 1.4248177993810964e-08 7.565552292477166" Properties=species:S:1:pos:R:3:forces:R:3 energy=-15.560510635375977 free_energy=-15.560510635375977 stress="4.6202643716242164e-05 -5.39102207319786e-10 1.1499294849670605e-08 -5.39102207319786e-10 4.620374602382071e-05 -1.0644561676542708e-08 1.1499294849670605e-08 -1.0644561676542708e-08 4.619185347110033e-05" pbc="T T T"
Se       2.18398669       1.54431203       3.78277614      -0.00000086       0.00000162      -0.00000018
Se       6.55196043       4.63293544      11.34832825       0.00000086      -0.00000074       0.00000072
Mg       0.00000013       0.00000003      -0.00000047      -0.00000061      -0.00000019       0.00000472
I        2.29172243       1.62049256       7.56555230      -0.00009517      -0.00006682       0.00000036
I        6.44422472       4.55675484       7.56555246       0.00009526       0.00006771       0.00000051
I        5.40609895       1.62049273       5.76746652       0.00004898      -0.00006890      -0.00008389
I        3.32984815       4.55675514       9.36363848      -0.00004654       0.00006498       0.00008046
I        3.32984823       4.55675466       5.76746623      -0.00004854       0.00006822      -0.00008323
I        5.40609921       1.62049248       9.36363857       0.00004661      -0.00006591       0.00008060
