9
Lattice="5.7637318845034295 1.7478306520361823e-07 3.327692073981798 1.921244128370647 5.434098123380495 3.327692070374931 -3.470881237956702e-08 -2.8960393700482852e-08 6.655384208080972" Properties=species:S:1:pos:R:3:forces:R:3 energy=-27.722280502319336 free_energy=-27.722280502319336 stress="0.00018884075689129531 -2.92993274086939e-09 -2.7153257420309274e-08 -2.92993274086939e-09 0.0001888591214083135 -3.7946392694721e-09 -2.7153257420309274e-08 -3.7946392694721e-09 0.00018886230827774853" pbc="T T T"
Se       1.92124309       1.35852475       3.32769219      -0.00000029      -0.00000102       0.00000007
Se       5.76373199       4.07557344       9.98307617       0.00000084       0.00000157      -0.00000043
Mn       0.00000013       0.00000001       0.00000011       0.00000021      -0.00000007      -0.00000028
Cl       1.85225280       1.30974047       6.65538439      -0.00022462      -0.00015957       0.00000198
Cl       5.83272341       4.12435776       6.65538422       0.00022547       0.00015905       0.00000128
Cl       4.83760607       1.30974012       4.93178926       0.00011109      -0.00015806      -0.00019243
Cl       2.84737030       4.12435847       8.37897875      -0.00011086       0.00015662       0.00019256
Cl       2.84737025       4.12435791       4.93178927      -0.00011311       0.00015865      -0.00019605
Cl       4.83760582       1.30974013       8.37897905       0.00011142      -0.00015736       0.00019309
