9
Lattice="4.65311606449289 4.193960768403588e-08 2.6864778164167973 1.5510386845466684 4.387000067526068 2.6864778911698197 1.911090538985255e-09 9.290473414014692e-08 5.372955629523488" Properties=species:S:1:pos:R:3:forces:R:3 energy=-43.542015075683594 free_energy=-43.542015075683594 stress="7.578307122457772e-05 -2.4960552735819874e-08 2.488729045069249e-08 -2.4960552735819874e-08 7.569768786197528e-05 2.7846196459790917e-08 2.488729045069249e-08 2.7846196459790917e-08 7.575494237244129e-05" pbc="T T T"
Se       1.55103727       1.09674840       2.68647812      -0.00001608      -0.00002085       0.00000288
Se       4.65311506       3.29024912       8.05943295      -0.00001115      -0.00001355      -0.00000457
Mo      -0.00000017      -0.00000025       0.00000023      -0.00000013      -0.00000020      -0.00000360
O        1.54514749       1.09258477       5.37295557       0.00044620       0.00031966      -0.00000077
O        4.65900744       3.29441604       5.37295579      -0.00044471      -0.00031221       0.00000249
O        3.88054245       1.09258489       4.02461460      -0.00021833       0.00031906       0.00038338
O        2.32361328       3.29441646       6.72129654       0.00022915      -0.00030440      -0.00038409
O        2.32361314       3.29441658       4.02461529       0.00022808      -0.00030637       0.00038791
O        3.88054309       1.09258483       6.72129623      -0.00021291       0.00031894      -0.00038373
