9
Lattice="4.463802117993106 8.59180729574894e-09 2.57717739028337 1.4879340275533153 4.208513018787134 2.5771774247133474 -1.4154776843191408e-08 3.2159004643406986e-08 5.154354805083536" Properties=species:S:1:pos:R:3:forces:R:3 energy=-36.60907745361328 free_energy=-36.60907745361328 stress="0.00039563325117342174 -1.4452099961204112e-08 5.1311573656676046e-08 -1.4452099961204112e-08 0.00039562207530252635 -3.081020949480262e-08 5.1311573656676046e-08 -3.081020949480262e-08 0.0003956446598749608" pbc="T T T"
Se       1.48793388       1.05212805       2.57717753       0.00000078       0.00000007      -0.00000042
Se       4.46380211       3.15638487       7.73153215      -0.00000010      -0.00000000       0.00000042
Mn       0.00000012       0.00000014       0.00000007      -0.00000689       0.00000039       0.00000125
F        1.49842661       1.05954764       5.15435489      -0.00185247      -0.00130951      -0.00000102
F        4.45330931       3.14896542       5.15435476       0.00185698       0.00131129       0.00000103
F        3.71458882       1.05954769       3.87485300       0.00092771      -0.00131261      -0.00160737
F        2.23714744       3.14896543       6.43385650      -0.00092608       0.00131135       0.00160604
F        2.23714746       3.14896535       3.87485311      -0.00092919       0.00131131      -0.00160832
F        3.71458876       1.05954766       6.43385646       0.00092911      -0.00131235       0.00160834
