9
Lattice="5.4761553523633335 -1.7022918331371513e-09 3.161659842289077 1.8253851602660964 5.162968728585377 3.1616597653572946 3.4368069018708886e-08 -6.991990590515905e-08 6.323319625050893" Properties=species:S:1:pos:R:3:forces:R:3 energy=-36.206695556640625 free_energy=-36.206695556640625 stress="0.0002980608551297337 -5.490946808350827e-09 2.3869889176353354e-08 -5.490946808350827e-09 0.000298075086902827 4.484568094653696e-08 2.3869889176353354e-08 4.484568094653696e-08 0.0002981341094709933" pbc="T T T"
Se       1.82538422       1.29074170       3.16165995      -0.00000424      -0.00000193       0.00000102
Se       5.47615639       3.87222713       9.48497805       0.00000528       0.00000097      -0.00000569
Mn      -0.00000004      -0.00000019       0.00000021      -0.00000083       0.00000674       0.00000047
S        1.80986587       1.27976803       6.32331982       0.00284210       0.00201234      -0.00000109
S        5.49167468       3.88320034       6.32331994      -0.00284570      -0.00201106       0.00000357
S        4.57122256       1.27976831       4.72904994      -0.00141983       0.00200593       0.00246048
S        2.73031805       3.88320071       7.91758985       0.00142176      -0.00201029      -0.00246367
S        2.73031775       3.88320031       4.72904961       0.00142089      -0.00201041       0.00246444
S        4.57122268       1.27976829       7.91758956      -0.00141926       0.00200766      -0.00245944
