9
Lattice="5.526653699967708 -4.882649642012985e-08 3.1908148629361928 1.8422178508870166 5.2105789629013035 3.190814868250367 -1.57362288144399e-08 -4.618671838219372e-09 6.381629753128313" Properties=species:S:1:pos:R:3:forces:R:3 energy=-37.61271667480469 free_energy=-37.61271667480469 stress="-6.285918061621487e-06 -1.2527876513956926e-08 6.235867999748734e-08 -1.2527876513956926e-08 -6.253823812585324e-06 1.2393980952651873e-08 6.235867999748734e-08 1.2393980952651873e-08 -6.177117484185146e-06" pbc="T T T"
Se       1.84221767       1.30264462       3.19081393      -0.00000142      -0.00000032      -0.00000657
Se       5.52665428       3.90793440       9.57244251       0.00000467       0.00000004      -0.00001498
Nb      -0.00000023      -0.00000057      -0.00000017       0.00000004       0.00000528       0.00000358
S        1.94804768       1.37747845       6.38162980      -0.00172828      -0.00122173       0.00000288
S        5.42082405       3.83310064       6.38163022       0.00172344       0.00122033       0.00000702
S        4.55262963       1.37747783       4.87787453       0.00086404      -0.00122672      -0.00149374
S        2.81624182       3.83310124       7.88538622      -0.00086053       0.00121994       0.00149693
S        2.81624156       3.83310086       4.87787494      -0.00086703       0.00122380      -0.00149529
S        4.55262964       1.37747814       7.88538594       0.00086500      -0.00122070       0.00150007
