9
Lattice="4.640080208263538 9.047826673864697e-08 2.6789515261657457 1.5466934712361333 4.374709543851616 2.6789515553024943 4.589765985049297e-08 6.81396353580648e-08 5.357902972834404" Properties=species:S:1:pos:R:3:forces:R:3 energy=-48.07850646972656 free_energy=-48.07850646972656 stress="0.0004024723020847887 -2.9852569305433008e-09 2.4436923595771987e-09 -2.9852569305433008e-09 0.0004025323723908514 1.6525588009130843e-08 2.4436923595771987e-09 1.6525588009130843e-08 0.0004025583330076188" pbc="T T T"
Se       1.54669317       1.09367724       2.67895142      -0.00000252      -0.00000124       0.00000183
Se       4.64007995       3.28103289       8.03685609      -0.00000070       0.00000470       0.00001173
Nb       0.00000027       0.00000005      -0.00000004       0.00000168      -0.00000161      -0.00000178
O        1.59178608       1.12556273       5.35790286       0.00025725       0.00017971      -0.00000221
O        4.59498800       3.24914708       5.35790245      -0.00025624      -0.00018340      -0.00000467
O        3.84418716       1.12556247       4.05747846      -0.00012884       0.00018263       0.00022042
O        2.34258639       3.24914694       6.65832728       0.00012580      -0.00017762      -0.00021935
O        2.34258678       3.24914717       4.05747858       0.00013179      -0.00018102       0.00021845
O        3.84418726       1.12556220       6.65832715      -0.00012761       0.00017780      -0.00022471
