9
Lattice="6.736243431753728 5.660555124076435e-08 3.889171950397841 2.2454145247725594 6.3509911309840525 3.889171960524992 4.121125720950521e-08 4.154395433897737e-08 7.778343829415646" Properties=species:S:1:pos:R:3:forces:R:3 energy=-24.834728240966797 free_energy=-24.834728240966797 stress="7.647013262612745e-05 -9.762161745641151e-09 4.028925637555858e-09 -9.762161745641151e-09 7.645939331268892e-05 -1.1762331553200056e-08 4.028925637555858e-09 -1.1762331553200056e-08 7.64663636800833e-05" pbc="T T T"
Se       2.24541444       1.58774750       3.88917223       0.00000122       0.00000056      -0.00000260
Se       6.73624371       4.76324358      11.66751577      -0.00000026      -0.00000001       0.00000269
Nb       0.00000009       0.00000030      -0.00000042      -0.00000124      -0.00000291       0.00000142
I        2.22598845       1.57401147       7.77834370      -0.00082283      -0.00058176       0.00000024
I        6.75566948       4.77697959       7.77834393       0.00082457       0.00058311      -0.00000034
I        5.62324912       1.57401143       5.81693467       0.00041210      -0.00058312      -0.00071366
I        3.35840872       4.77697992       9.73975318      -0.00041305       0.00058340       0.00071374
I        3.35840875       4.77697955       5.81693480      -0.00041287       0.00058424      -0.00071558
I        5.62324923       1.57401156       9.73975315       0.00041222      -0.00058347       0.00071420
