9
Lattice="5.691679171996349 7.304698496397274e-08 3.286092591309138 1.8972264418246025 5.36616693325094 3.286092621984111 5.964295916860478e-08 7.974298218757432e-08 6.572185079313619" Properties=species:S:1:pos:R:3:forces:R:3 energy=-22.08123779296875 free_energy=-22.08123779296875 stress="0.00012659550702665 8.432557763171644e-08 -9.557538760418538e-09 8.432557763171644e-08 0.00012660528591368347 5.62659030478585e-09 -9.557538760418538e-09 5.62659030478585e-09 0.00012665496615227312" pbc="T T T"
Se       1.89722580       1.34154060       3.28609253      -0.00000223      -0.00000457      -0.00000112
Se       5.69168015       4.02462612       9.85827758       0.00000387       0.00000351       0.00000093
Ni      -0.00000019      -0.00000005      -0.00000048       0.00000214      -0.00000000       0.00000739
Cl       1.84911912       1.30752465       6.57218535       0.00128832       0.00090803      -0.00000125
Cl       5.73978671       4.05864252       6.57218524      -0.00129008      -0.00090948       0.00000122
Cl       4.76711968       1.30752510       4.88747667      -0.00064240       0.00091036       0.00111344
Cl       2.82178583       4.05864251       8.25689376       0.00064351      -0.00090776      -0.00111657
Cl       2.82178591       4.05864193       4.88747687       0.00063998      -0.00090995       0.00111330
Cl       4.76711963       1.30752490       8.25689366      -0.00064330       0.00090986      -0.00111726
