9
Lattice="4.564516050547371 -1.0526798271138457e-08 2.635324525802749 1.5215053284018145 4.303467015785619 2.6353245463377357 9.971844173713375e-09 3.220128057322154e-08 5.2706490343337515" Properties=species:S:1:pos:R:3:forces:R:3 energy=-33.88606262207031 free_energy=-33.88606262207031 stress="-0.000397470808820799 1.225469503651766e-07 -7.815251024112513e-08 1.225469503651766e-07 -0.0003972944396082312 -4.7326786045687186e-08 -7.815251024112513e-08 -4.7326786045687186e-08 -0.00039721999200992286" pbc="T T T"
Se       1.52150458       1.07586678       2.63532399      -0.00001348      -0.00000092      -0.00000735
Se       4.56451931       3.22760020       7.90597244       0.00005308      -0.00000030      -0.00001962
Ni      -0.00000001       0.00000010      -0.00000008      -0.00000191       0.00000017       0.00000846
O        1.46267948       1.03427179       5.27064908       0.00376976       0.00268421       0.00000176
O        4.62334140       3.26919557       5.27064969      -0.00377774      -0.00267993       0.00000822
O        3.83317619       1.03427042       3.90204308      -0.00188753       0.00266652       0.00328662
O        2.25284447       3.26919627       6.63925522       0.00187720      -0.00267375      -0.00328495
O        2.25284429       3.26919627       3.90204372       0.00187163      -0.00266670       0.00328492
O        3.83317584       1.03427084       6.63925537      -0.00189050       0.00267029      -0.00327809
