9
Lattice="4.595849048846068 -4.696819903406727e-08 2.6534147498481166 1.5319496443122615 4.333008124233293 2.6534147400696373 -5.880794142262544e-08 -5.355964346389293e-08 5.306829601554583" Properties=species:S:1:pos:R:3:forces:R:3 energy=-44.71459197998047 free_energy=-44.71459197998047 stress="1.2148647329013329e-05 1.953726957992785e-09 -1.5433545996756948e-08 1.953726957992785e-09 1.211115340993274e-05 -2.4373990825665715e-08 -1.5433545996756948e-08 -2.4373990825665715e-08 1.213567975355545e-05" pbc="T T T"
Se       1.53194958       1.08325216       2.65341494      -0.00000056      -0.00000222      -0.00000021
Se       4.59584888       3.24975619       7.96024435       0.00000004       0.00000088       0.00000043
Nb       0.00000001       0.00000004      -0.00000006      -0.00000154      -0.00000131      -0.00000053
F        1.57700589       1.11511135       5.30682954      -0.00055608      -0.00039309       0.00000051
F        4.55079287       3.21789649       5.30682954       0.00055735       0.00039485       0.00000007
F        3.80734621       1.11511139       4.01914182       0.00027786      -0.00039281      -0.00048068
F        2.32045249       3.21789646       6.59451717      -0.00027736       0.00039325       0.00048046
F        2.32045240       3.21789651       4.01914184      -0.00027735       0.00039417      -0.00048119
F        3.80734620       1.11511147       6.59451721       0.00027774      -0.00039403       0.00048104
