9
Lattice="6.098700440430027 3.933035549534053e-09 3.5210862382675225 2.032900162648961 5.749909884319543 3.5210862172562405 2.1814753274310182e-08 -1.0308082706570923e-08 7.042172438750782" Properties=species:S:1:pos:R:3:forces:R:3 energy=-19.932777404785156 free_energy=-19.932777404785156 stress="0.00026442745001986623 -6.771768146229817e-10 9.971119041551901e-09 -6.771768146229817e-10 0.0002644555934239179 -3.6988272444915538e-09 9.971119041551901e-09 -3.6988272444915538e-09 0.00026444270042702556" pbc="T T T"
Se       2.03290004       1.43747744       3.52108602      -0.00000035       0.00000008      -0.00000016
Se       6.09870038       4.31243236      10.56325879       0.00000041      -0.00000003       0.00000052
Ni      -0.00000005      -0.00000006      -0.00000008       0.00000122      -0.00000076      -0.00000027
Br       1.96898681       1.39228393       7.04217248       0.00127050       0.00089827       0.00000036
Br       6.16261382       4.35762598       7.04217237      -0.00127059      -0.00089751       0.00000005
Br       5.11420712       1.39228390       5.22627863      -0.00063500       0.00089732       0.00110036
Br       3.01739370       4.35762593       8.85806632       0.00063476      -0.00089769      -0.00110003
Br       3.01739354       4.35762611       5.22627868       0.00063463      -0.00089726       0.00109988
Br       5.11420714       1.39228396       8.85806631      -0.00063555       0.00089759      -0.00110078
