9
Lattice="5.445911333607338 -2.0142947054458336e-08 3.1441980910592333 1.8153037109905878 5.134454096683614 3.1441981740029425 -3.814148514275694e-08 7.461480388806236e-08 6.288396248181459" Properties=species:S:1:pos:R:3:forces:R:3 energy=-31.495609283447266 free_energy=-31.495609283447266 stress="3.764305802178569e-05 3.752824184743986e-08 8.501604753519132e-08 3.752824184743986e-08 3.7697092921007425e-05 -3.924508362729284e-08 8.501604753519132e-08 -3.924508362729284e-08 3.773092612391338e-05" pbc="T T T"
Se       1.81530354       1.28361299       3.14419758       0.00000070      -0.00000123      -0.00000240
Se       5.44590877       3.85083961       9.43259281      -0.00001401      -0.00000434      -0.00001033
Ni       0.00000011       0.00000047       0.00000017       0.00000251      -0.00001283       0.00000184
S        1.78687809       1.26351264       6.28839624       0.00261107       0.00184396       0.00000027
S        5.47433828       3.87094133       6.28839680      -0.00260577      -0.00184169       0.00000506
S        4.55247288       1.26351312       4.69167894      -0.00130500       0.00184911       0.00226396
S        2.70874285       3.87094090       7.88511388       0.00130828      -0.00184041      -0.00225282
S        2.70874281       3.87094135       4.69167975       0.00130373      -0.00184003       0.00225139
S        4.55247262       1.26351421       7.88511396      -0.00130144       0.00184748      -0.00225690
