9
Lattice="4.839487181393534 -1.3477694556984684e-07 2.7940791833263505 1.613162303949172 4.562711920709389 2.794079118859001 1.5810824144184886e-07 3.2843344871863396e-08 5.588158092801217" Properties=species:S:1:pos:R:3:forces:R:3 energy=-47.71027755737305 free_energy=-47.71027755737305 stress="0.00029532963526435196 8.031733500502014e-09 -1.4454440133704338e-07 8.031733500502014e-09 0.0002955275704152882 -1.1943147626425343e-07 -1.4454440133704338e-07 -1.1943147626425343e-07 0.00029547367012128234" pbc="T T T"
Se       1.61316282       1.14068754       2.79408646       0.00000949       0.00011251       0.00007443
Se       4.83949119       3.42204183       8.38223586       0.00004335       0.00009973      -0.00000545
Os      -0.00000028      -0.00000090      -0.00000031       0.00000262      -0.00000655      -0.00000377
O        1.53407470       1.08475238       5.58815527      -0.00083619      -0.00062263      -0.00002879
O        4.91857639       3.47795464       5.58815983       0.00085211       0.00055939       0.00000125
O        4.07244817       1.08475149       4.12262650       0.00040236      -0.00063026      -0.00072747
O        2.38019710       3.47795523       7.05368961      -0.00044557       0.00056666       0.00072950
O        2.38019881       3.47795439       4.12262444      -0.00043803       0.00055641      -0.00074923
O        4.07244967       1.08475086       7.05368810       0.00040942      -0.00063503       0.00070870
