9
Lattice="6.418077734536587 -6.860578381699047e-09 3.7054789403072843 2.1393592369098946 6.051021704073943 3.7054789428489077 2.4750412565581292e-08 2.0614060225144108e-08 7.410957837745608" Properties=species:S:1:pos:R:3:forces:R:3 energy=-18.887451171875 free_energy=-18.887451171875 stress="-6.594367732759565e-05 -9.568607017840236e-10 3.837576478815663e-09 -9.568607017840236e-10 -6.594418664462864e-05 -4.6922350449563055e-09 3.837576478815663e-09 -4.6922350449563055e-09 -6.593979196622968e-05" pbc="T T T"
Se       2.13935920       1.51275551       3.70547888       0.00000039      -0.00000034      -0.00000012
Se       6.41807775       4.53826631      11.11643690      -0.00000012      -0.00000004       0.00000046
Pd      -0.00000007       0.00000004       0.00000040       0.00000039       0.00000211      -0.00000276
I        2.18738783       1.54671677       7.41095789      -0.00457022      -0.00323106      -0.00000010
I        6.37004926       4.50430491       7.41095780       0.00456849       0.00323017      -0.00000011
I        5.32438386       1.54671677       5.59981241       0.00228500      -0.00323100      -0.00395705
I        3.23305326       4.50430465       9.22210310      -0.00228481       0.00323143       0.00395738
I        3.23305324       4.50430502       5.59981238      -0.00228443       0.00323068      -0.00395645
I        5.32438365       1.54671690       9.22210313       0.00228528      -0.00323194       0.00395874
