9
Lattice="6.168428649483846 2.0393543808747575e-08 3.561344008861121 2.056142865508323 5.815650668053684 3.561344072739436 3.009124848166887e-08 9.951240399540528e-08 7.122687965602639" Properties=species:S:1:pos:R:3:forces:R:3 energy=-21.245149612426758 free_energy=-21.245149612426758 stress="0.00021169628598727286 -5.252720480797279e-09 -1.4124009517502145e-08 -5.252720480797279e-09 0.00021169600950088352 1.8222912956389337e-08 -1.4124009517502145e-08 1.8222912956389337e-08 0.00021170737454667687" pbc="T T T"
Se       2.05614282       1.45391286       3.56134378       0.00000027      -0.00000002       0.00000051
Se       6.16842884       4.36173810      10.68403227       0.00000022       0.00000074       0.00000013
Pt       0.00000018       0.00000005      -0.00000011       0.00000093      -0.00000095      -0.00000037
Br       2.01796361       1.42691580       7.12268804       0.00052466       0.00037131       0.00000039
Br       6.20660778       4.38873489       7.12268790      -0.00052513      -0.00037104      -0.00000019
Br       5.15944678       1.42691571       5.30895178      -0.00026182       0.00037023       0.00045308
Br       3.06512463       4.38873487       8.93642444       0.00026122      -0.00036990      -0.00045291
Br       3.06512459       4.38873503       5.30895168       0.00026264      -0.00037158       0.00045449
Br       5.15944695       1.42691586       8.93642442      -0.00026298       0.00037115      -0.00045520
