9
Lattice="3.987456839344057 3.684394095508517e-07 2.30216001051718 1.3291525156621156 3.759411408715031 2.30216020362317 5.4611704410586904e-08 2.7511880369101164e-07 4.604319926448651" Properties=species:S:1:pos:R:3:forces:R:3 energy=-45.897071838378906 free_energy=-45.897071838378906 stress="-0.0002496362430974841 9.22793333302252e-06 5.6905259953055065e-06 9.22793333302252e-06 -0.00023131781199481338 5.04852596350247e-06 5.6905259953055065e-06 5.04852596350247e-06 -0.000215148989809677" pbc="T T T"
Se       1.32916186       0.93985505       2.30216386      -0.00418053      -0.00082834      -0.00158565
Se       3.98745374       2.81956057       6.90647854       0.00135714      -0.00056666       0.00090418
Pd      -0.00001368      -0.00000622      -0.00000190       0.00640051       0.00283018       0.00076826
O        1.40385143       0.99267095       4.60431669      -0.00764585      -0.00422025       0.00144294
O        3.91277695       2.76675624       4.60432139      -0.00109816      -0.00276625      -0.00070720
O        3.28552808       0.99266506       3.51791894       0.00509667      -0.00120831      -0.00051308
O        2.03107496       2.76674270       5.69071879      -0.00205553       0.00312543       0.00152516
O        2.03107272       2.76673887       3.51792228      -0.00125027       0.00481677      -0.00186133
O        3.28553135       0.99266510       5.69072211       0.00337887      -0.00118196       0.00002646
