9
Lattice="5.452242324982553 8.550621207719476e-09 3.1478535079590384 1.8174141081982254 5.140423252149449 3.147853522146091 -4.6193205741271055e-08 -1.5288008024159375e-08 6.295707095927056" Properties=species:S:1:pos:R:3:forces:R:3 energy=-32.595481872558594 free_energy=-32.595481872558594 stress="0.0002216128632426262 -1.5134281605710953e-09 4.83283209007368e-08 -1.5134281605710953e-09 0.0002216338471043855 2.318678582469147e-08 4.83283209007368e-08 2.318678582469147e-08 0.00022161334345582873" pbc="T T T"
Se       1.81741456       1.28510563       3.14785358       0.00000403      -0.00000080      -0.00000082
Se       5.45224227       3.85531709       9.44355923      -0.00000069      -0.00000137      -0.00000354
Pt      -0.00000015       0.00000005      -0.00000015      -0.00000127      -0.00000036      -0.00000002
S        1.88234306       1.33101766       6.29570705       0.00046822       0.00033292       0.00000128
S        5.38731309       3.80940572       6.29570730      -0.00046930      -0.00033009       0.00000108
S        4.51107061       1.33101731       4.77801075      -0.00023626       0.00033197       0.00040781
S        2.75858594       3.80940583       7.81340385       0.00023670      -0.00033367      -0.00040805
S        2.75858537       3.80940569       4.77801085       0.00023320      -0.00033352       0.00040740
S        4.51107074       1.33101798       7.81340405      -0.00023487       0.00033495      -0.00040564
