9
Lattice="4.538950230914679 1.8252199725629675e-08 2.620564121719445 1.5129834312032147 4.2793632520734235 2.6205641153282184 7.153544305160194e-08 4.2755571994600144e-08 5.241128119535861" Properties=species:S:1:pos:R:3:forces:R:3 energy=-29.823339462280273 free_energy=-29.823339462280273 stress="5.1641723985085264e-05 -1.8399296308757584e-08 -4.740194015084853e-08 -1.8399296308757584e-08 5.163646346773021e-05 7.986243133473181e-08 -4.740194015084853e-08 7.986243133473181e-08 5.160565342521295e-05" pbc="T T T"
Se       1.51298337       1.06984092       2.62056406      -0.00000148       0.00000033       0.00000022
Se       4.53895049       3.20952237       7.86169252       0.00000136       0.00000064       0.00000297
Pd      -0.00000000       0.00000007       0.00000007       0.00000045      -0.00000119      -0.00000646
F        1.55624447       1.10043103       5.24112815       0.00176233       0.00124763       0.00000045
F        4.49568919       3.17893220       5.24112811      -0.00176352      -0.00124766      -0.00000008
F        3.76082800       1.10043108       3.96831121      -0.00088076       0.00124566       0.00152573
F        2.29110567       3.17893229       6.51394508       0.00088039      -0.00124444      -0.00152445
F        2.29110566       3.17893234       3.96831120       0.00088194      -0.00124663       0.00152755
F        3.76082803       1.10043100       6.51394500      -0.00088057       0.00124560      -0.00152576
