9
Lattice="5.893678960430627 -3.1865446103251004e-08 3.4027170901156287 1.9645596529187048 5.556613805933935 3.4027170390463963 1.1913875435792698e-07 2.169700011952552e-08 6.805433973876891" Properties=species:S:1:pos:R:3:forces:R:3 energy=-23.244396209716797 free_energy=-23.244396209716797 stress="-6.676167231489671e-06 1.2662097148563589e-08 1.2273272176344108e-08 1.2662097148563589e-08 -6.646970632573357e-06 1.297024354585119e-08 1.2273272176344108e-08 1.297024354585119e-08 -6.540391950693447e-06" pbc="T T T"
Se       1.96455892       1.38915361       3.40271549      -0.00000266      -0.00000266      -0.00000587
Se       5.89367968       4.16746065      10.20814997       0.00000327       0.00000085      -0.00000730
Pt       0.00000008      -0.00000013       0.00000043      -0.00000033      -0.00000091      -0.00000099
Cl       1.87876474       1.32848746       6.80543465       0.00014004       0.00009866      -0.00000065
Cl       5.97947364       4.22812634       6.80543476      -0.00013798      -0.00009859       0.00000145
Cl       4.95429642       1.32848719       5.02977567      -0.00007020       0.00009809       0.00012597
Cl       2.90394236       4.22812633       8.58109312       0.00006740      -0.00009617      -0.00011474
Cl       2.90394237       4.22812636       5.02977552       0.00007001      -0.00009665       0.00012028
Cl       4.95429673       1.32848739       8.58109284      -0.00006966       0.00009730      -0.00011835
