9
Lattice="5.49135104887981 -7.89601571392785e-08 3.170432893772759 1.8304502561702065 5.177295437712625 3.1704329267025866 -1.9079000014167108e-07 -9.457827027269462e-08 6.340866118003516" Properties=species:S:1:pos:R:3:forces:R:3 energy=-30.22429084777832 free_energy=-30.22429084777832 stress="6.23690357315354e-05 -1.2470682264620336e-08 1.0975107489485936e-09 -1.2470682264620336e-08 6.242021481739357e-05 5.334246466759396e-08 1.0975107489485936e-09 5.334246466759396e-08 6.231223233044147e-05" pbc="T T T"
Se       1.83044967       1.29432350       3.17043275      -0.00000322      -0.00000180       0.00000113
Se       5.49135049       3.88297088       9.51129656       0.00000039      -0.00000074      -0.00001551
Pd      -0.00000002       0.00000011       0.00000029       0.00000094       0.00000268      -0.00000448
S        1.92950055       1.36436303       6.34086634       0.00062937       0.00044584       0.00000139
S        5.39230082       3.81293277       6.34086671      -0.00063175      -0.00044441       0.00000712
S        4.52660056       1.36436274       4.84143005      -0.00031394       0.00043899       0.00054789
S        2.79520082       3.81293244       7.84030260       0.00031713      -0.00044268      -0.00054282
S        2.79520046       3.81293230       4.84142964       0.00031203      -0.00044835       0.00054806
S        4.52660113       1.36436327       7.84030287      -0.00031069       0.00045061      -0.00054199
