9
Lattice="6.1839441349697575 -3.1056959082759237e-08 3.570301721738329 2.061314696191583 5.8302784150121 3.5703016978086857 5.723614953057478e-08 1.1164345864194537e-08 7.140603344340737" Properties=species:S:1:pos:R:3:forces:R:3 energy=-19.93549919128418 free_energy=-19.93549919128418 stress="0.00021554215345531702 -1.4817493898533485e-08 1.8492051223617523e-09 -1.4817493898533485e-08 0.00021556278807111084 9.769967057593476e-10 1.8492051223617523e-09 9.769967057593476e-10 0.00021555782586801797" pbc="T T T"
Se       2.06131470       1.45756961       3.57030142      -0.00000058      -0.00000035      -0.00000022
Se       6.18394412       4.37270905      10.71090515       0.00000025       0.00000095      -0.00000026
Pd       0.00000011       0.00000009       0.00000012       0.00000157      -0.00000134       0.00000074
Br       2.04312138       1.44470487       7.14060336       0.00083142       0.00058742       0.00000023
Br       6.20213748       4.38557331       7.14060334      -0.00083160      -0.00058812       0.00000020
Br       5.16238347       1.44470495       5.33969657      -0.00041530       0.00058716       0.00071991
Br       3.08287536       4.38557339       8.94151023       0.00041503      -0.00058679      -0.00071885
Br       3.08287541       4.38557338       5.33969669       0.00041462      -0.00058622       0.00071827
Br       5.16238354       1.44470493       8.94151015      -0.00041549       0.00058725      -0.00071996
