9
Lattice="6.42270262857259 -1.0056381653435666e-09 3.70814908178643 2.1409008802381373 6.055382120571029 3.7081490731341713 3.0806678443175145e-09 -8.41843970332619e-09 7.4162981582369865" Properties=species:S:1:pos:R:3:forces:R:3 energy=-19.937559127807617 free_energy=-19.937559127807617 stress="-4.275256287655793e-05 -4.351856652817787e-09 7.927386747041965e-09 -4.351856652817787e-09 -4.27413651777897e-05 -1.0901930913576052e-08 7.927386747041965e-09 -1.0901930913576052e-08 -4.273076410754584e-05" pbc="T T T"
Se       2.14090059       1.51384583       3.70814907      -0.00000039       0.00000037       0.00000028
Se       6.42270296       4.54153640      11.12444765       0.00000025      -0.00000036       0.00000044
Pt      -0.00000003      -0.00000022      -0.00000040       0.00000043       0.00000058       0.00000191
I        2.16706239       1.53234448       7.41629813      -0.00107850      -0.00076170       0.00000042
I        6.39654128       4.52303770       7.41629793       0.00107829       0.00076222      -0.00000048
I        5.33917145       1.53234444       5.58488021       0.00053970      -0.00076293      -0.00093575
I        3.22443178       4.52303787       9.24771631      -0.00053898       0.00076129       0.00093390
I        3.22443204       4.52303768       5.58488014      -0.00053995       0.00076313      -0.00093585
I        5.33917160       1.53234424       9.24771623       0.00053917      -0.00076261       0.00093521
