9
Lattice="4.669916424318349 -1.2289222828555063e-07 2.69617757731206 1.556638611627613 4.402839559704549 2.6961777169405887 -8.643392430102908e-08 1.0989133797207388e-07 5.3923553043320345" Properties=species:S:1:pos:R:3:forces:R:3 energy=-38.392723083496094 free_energy=-38.392723083496094 stress="0.00012164536747150123 -7.576795724162366e-08 -1.6116318590775336e-07 -7.576795724162366e-08 0.00012148094538133591 -6.837893096189873e-08 -1.6116318590775336e-07 -6.837893096189873e-08 0.00012178012548247352" pbc="T T T"
Se       1.55663886       1.10070288       2.69618633       0.00000147      -0.00010170       0.00012466
Se       4.66991591       3.30212483       8.08853742      -0.00000611      -0.00007702       0.00007523
Pt       0.00000009       0.00000102      -0.00000171      -0.00001915       0.00000545       0.00003109
O        1.54624654       1.09336395       5.39235207      -0.00338415      -0.00235813      -0.00004533
O        4.68030653       3.30947892       5.39235304       0.00338139       0.00242602      -0.00003226
O        3.89679108       1.09336493       4.03526439       0.00168902      -0.00237008      -0.00298922
O        2.32976359       3.30948041       6.74944168      -0.00167466       0.00242342       0.00288840
O        2.32976270       3.30947895       4.03526752      -0.00169138       0.00242314      -0.00295268
O        3.89679413       1.09336223       6.74944138       0.00170370      -0.00237116       0.00289984
