9
Lattice="5.90748453823437 -4.683089782149265e-09 3.410687907365114 1.969161519819418 5.569629023408151 3.4106878874640776 1.1947211570938643e-07 6.010580950369221e-08 6.821375607798486" Properties=species:S:1:pos:R:3:forces:R:3 energy=-21.62755584716797 free_energy=-21.62755584716797 stress="0.00018387602176517248 -2.0066742933977366e-08 -2.992048564465222e-08 -2.0066742933977366e-08 0.00018390844343230128 -4.455704427641649e-08 -2.992048564465222e-08 -4.455704427641649e-08 0.0001838288881117478" pbc="T T T"
Se       1.96916052       1.39240660       3.41068679      -0.00000295      -0.00000141      -0.00000157
Se       5.90748833       4.17722153      10.23206274       0.00000791      -0.00000150      -0.00000298
Pd      -0.00000025       0.00000002      -0.00000031       0.00000072      -0.00000021       0.00001109
Cl       1.90198158       1.34490490       6.82137589      -0.00030336      -0.00021118      -0.00000060
Cl       5.97466377       4.22472465       6.82137582       0.00030285       0.00021309       0.00000111
Cl       4.95649305       1.34490447       5.05785331       0.00015384      -0.00021818      -0.00026530
Cl       2.92015195       4.22472485       8.58489884      -0.00015321       0.00021392       0.00025865
Cl       2.92015250       4.22472492       5.05785348      -0.00015573       0.00021866      -0.00026193
Cl       4.95649320       1.34490443       8.58489911       0.00015000      -0.00021306       0.00026187
