9
Lattice="5.5534693021136015 3.330114643059576e-09 3.206297103280757 1.8511564716776803 5.235860844835027 3.206297043524842 -7.105321643672053e-09 -7.82100363695012e-08 6.412594218868359" Properties=species:S:1:pos:R:3:forces:R:3 energy=-30.207197189331055 free_energy=-30.207197189331055 stress="7.094888860592619e-05 -3.423843608629795e-08 -9.715455462355749e-08 -3.423843608629795e-08 7.114514301065356e-05 -8.086902170134636e-08 -9.715455462355749e-08 -8.086902170134636e-08 7.119743531802669e-05" pbc="T T T"
Se       1.85115986       1.30896678       3.20629538       0.00001661       0.00000764      -0.00000988
Se       5.55347041       3.92689500       9.61888346       0.00000780      -0.00000310      -0.00004153
P       -0.00000083      -0.00000030       0.00000177       0.00000323       0.00000031      -0.00001194
S        1.78881065       1.26488192       6.41259532      -0.00477564      -0.00336862       0.00000649
S        5.61581426       3.97097918       6.41259644       0.00476623       0.00336790       0.00001479
S        4.65906134       1.26487964       4.75545466       0.00237399      -0.00337559      -0.00412512
S        2.74556357       3.97097956       8.06973541      -0.00238520       0.00337785       0.00414705
S        2.74556159       3.97098017       4.75545522      -0.00239080       0.00336838      -0.00412470
S        4.65906218       1.26488121       8.06973597       0.00238362      -0.00337499       0.00414479
