9
Lattice="4.614461143006383 -8.781156770344617e-09 2.6641604132012424 1.5381537074863902 4.350555759790363 2.6641604107246275 6.548036593491906e-09 1.5969281091669673e-09 5.328320815060944" Properties=species:S:1:pos:R:3:forces:R:3 energy=-31.020395278930664 free_energy=-31.020395278930664 stress="1.07186215245747e-05 -3.168021933674936e-08 -5.5283009281481554e-09 -3.168021933674936e-08 1.06255138234701e-05 1.9644447846189905e-08 -5.5283009281481554e-09 1.9644447846189905e-08 1.0673486940504517e-05" pbc="T T T"
Se       1.53815377       1.08763866       2.66416030       0.00000032      -0.00000344      -0.00000336
Se       4.61446111       3.26291665       7.99248066      -0.00000083      -0.00000333      -0.00000372
Pt      -0.00000011       0.00000008      -0.00000012       0.00000498       0.00000529       0.00000350
F        1.58920250       1.12373590       5.32832093       0.00167023       0.00118417       0.00000111
F        4.56341251       3.22681987       5.32832092      -0.00167812      -0.00118618       0.00000073
F        3.81985980       1.12373589       4.04045031      -0.00083577       0.00118390       0.00144817
F        2.33275504       3.22681998       6.61619165       0.00083798      -0.00118297      -0.00144975
F        2.33275502       3.22682002       4.04045031       0.00083668      -0.00118114       0.00145008
F        3.81985979       1.12373591       6.61619155      -0.00083549       0.00118335      -0.00144692
