9
Lattice="4.732781376213139 1.8339535006194099e-07 2.7324726091753413 1.5775939042496572 4.462109359346667 2.7324727143596355 7.534704046275482e-08 1.8210233509566178e-07 5.464945087845771" Properties=species:S:1:pos:R:3:forces:R:3 energy=-43.472843170166016 free_energy=-43.472843170166016 stress="1.4228917279979214e-05 -5.956862381140127e-08 -3.6000538106151225e-09 -5.956862381140127e-08 1.42644603329245e-05 -1.951017658541332e-08 -3.6000538106151225e-09 -1.951017658541332e-08 1.3998309441376477e-05" pbc="T T T"
Se       1.57759112       1.11552832       2.73247464      -0.00002070       0.00000523       0.00001501
Se       4.73277723       3.34658224       8.19742058      -0.00002965      -0.00000070       0.00001649
P        0.00000018       0.00000008      -0.00000002       0.00000275      -0.00000341      -0.00000643
O        1.38760966       0.98118761       5.46494452       0.00015140       0.00010049      -0.00000409
O        4.92276781       3.48092148       5.46494420      -0.00013638      -0.00010312      -0.00000620
O        4.03897790       0.98118774       3.93417638      -0.00006545       0.00010216       0.00011957
O        2.27139973       3.48092207       6.99571279       0.00008047      -0.00009871      -0.00012255
O        2.27139960       3.48092158       3.93417627       0.00008190      -0.00010180       0.00011802
O        4.03897813       0.98118778       6.99571271      -0.00006497       0.00010026      -0.00012743
