9
Lattice="4.575557841396144 0.3347944801913091 2.4351180087876036 2.058507413500183 4.002984759216457 2.276094030749646 0.1854308363071972 -0.04916837976381685 4.832664467779736" Properties=species:S:1:pos:R:3:forces:R:3 energy=-44.570762634277344 free_energy=-44.570762634277344 stress="-1.994567719521001e-05 -3.134927464998327e-05 1.2714325748675037e-05 -3.134927464998327e-05 -8.275080290331971e-06 4.993729089619592e-05 1.2714325748675037e-05 4.993729089619592e-05 -6.901283541083103e-06" pbc="T T T"
Se       1.25531809       1.18421613       2.30924210       0.00018631       0.00122494      -0.00114435
Se       5.04506345       3.56701040       7.12207890      -0.00122893      -0.00071077       0.00165196
Rh       0.11327553      -0.14145259      -0.04637796       0.00020969      -0.00007558       0.00010955
O        1.88066502       0.97708666       4.71665421      -0.00021058      -0.00103039       0.00085022
O        5.06409328       3.20662992       4.77720854       0.00109398      -0.00072512      -0.00084333
O        4.20871425       1.25299183       3.95915839       0.00023483       0.00138104      -0.00055683
O        2.85170542       2.98218542       5.62426214      -0.00007725      -0.00062537       0.00023842
O        2.87352507       2.77622874       3.38987498       0.00029230       0.00062013      -0.00118804
O        3.98502069       1.34909250       6.32447196      -0.00049973      -0.00006008       0.00087953
