9
Lattice="5.462768846717167 1.006678174230037e-08 3.153931049591393 1.8209230212975347 5.150347677658821 3.153930940644088 9.230378240174968e-08 -6.816402717928387e-08 6.307861939307961" Properties=species:S:1:pos:R:3:forces:R:3 energy=-40.02067947387695 free_energy=-40.02067947387695 stress="0.0004539125075098127 -1.4678668058820676e-08 3.0654359051141e-08 -1.4678668058820676e-08 0.00045389364822767675 -3.233527934298763e-08 3.0654359051141e-08 -3.233527934298763e-08 0.00045394126209430397" pbc="T T T"
Se       1.82092308       1.28758676       3.15393093       0.00000115      -0.00000021       0.00000057
Se       5.46276927       3.86276079       9.46179370       0.00000012       0.00000218       0.00000612
Re       0.00000011      -0.00000001      -0.00000001      -0.00000068      -0.00000044      -0.00000073
S        1.88753903       1.33469132       6.30786180      -0.00458556      -0.00324202      -0.00000080
S        5.39615285       3.81565620       6.30786160       0.00458515       0.00324166      -0.00000167
S        4.51899957       1.33469116       4.78858748       0.00229314      -0.00324219      -0.00397146
S        2.76469225       3.81565647       7.82713634      -0.00229275       0.00324184       0.00396836
S        2.76469243       3.81565648       4.78858772      -0.00229284       0.00324225      -0.00397187
S        4.51899925       1.33469131       7.82713620       0.00229231      -0.00324279       0.00397080
