9
Lattice="5.394385998503776 4.546664101134048e-09 3.1144501877859514 1.7981286601478268 5.0858758463409774 3.1144502056377474 4.461804734747632e-08 5.341360649614766e-08 6.228900298291177" Properties=species:S:1:pos:R:3:forces:R:3 energy=-34.43595504760742 free_energy=-34.43595504760742 stress="0.00042593758553266525 -3.0871294853795916e-08 -2.2877562955159192e-08 -3.0871294853795916e-08 0.00042582806781865656 2.4091338701737186e-08 -2.2877562955159192e-08 2.4091338701737186e-08 0.00042586406925693154" pbc="T T T"
Se       1.79812858       1.27146848       3.11444999      -0.00000215      -0.00000274      -0.00000018
Se       5.39438607       3.81440733       9.34335043       0.00000135       0.00000364       0.00000052
Rh      -0.00000008       0.00000007       0.00000016       0.00000355      -0.00000007      -0.00000073
S        1.87602100       1.32654714       6.22890034      -0.00286090      -0.00202227      -0.00000052
S        5.31649378       3.75932878       6.22890048       0.00285840       0.00202104      -0.00000084
S        4.45637556       1.32654715       4.73913196       0.00142941      -0.00202245      -0.00247625
S        2.73613921       3.75932877       7.71866865      -0.00142929       0.00202301       0.00247744
S        2.73613923       3.75932875       4.73913192      -0.00142971       0.00202218      -0.00247514
S        4.45637551       1.32654719       7.71866877       0.00142947      -0.00202242       0.00247550
