9
Lattice="4.859959517253847 2.578560574634751e-06 2.8059029310042143 1.6199887092674161 4.5820198068081535 2.80590332517299 -3.0880186827261378e-06 -1.7008022105723457e-06 5.611811210612968" Properties=species:S:1:pos:R:3:forces:R:3 energy=-43.9522705078125 free_energy=-43.9522705078125 stress="0.00023723386402707547 -4.748205356008839e-06 3.4757501907733968e-06 -4.748205356008839e-06 0.0002322997315786779 2.4829694211803144e-06 3.4757501907733968e-06 2.4829694211803144e-06 0.00022378684661816806" pbc="T T T"
Se       1.61997945       1.14534122       2.80590001      -0.00038996      -0.00178388       0.00011100
Se       4.85967518       3.43631687       8.41785242      -0.00269793      -0.00207439       0.00131192
Ru      -0.00000775      -0.00001046       0.00000131      -0.00006506      -0.00008101       0.00002348
O        1.52151406       1.07589139       5.61179282      -0.00584304      -0.00393298      -0.00017743
O        4.95844679       3.50621235       5.61175896       0.00601216       0.00480195      -0.00047045
O        4.09926769       1.07596271       4.12351514       0.00360063      -0.00323912      -0.00570081
O        2.38081178       3.50621681       7.10004774      -0.00222512       0.00494801       0.00508781
O        2.38084504       3.50621857       4.12353273      -0.00190917       0.00490185      -0.00549661
O        4.09924848       1.07593366       7.10006915       0.00351754      -0.00354039       0.00531141
