9
Lattice="5.368694965525519 2.9688518925878533e-08 3.0996175843861664 1.7895650083506192 5.061654396153912 3.099617598499727 -7.008937981104352e-08 -3.227512883216741e-08 6.199235290170724" Properties=species:S:1:pos:R:3:forces:R:3 energy=-36.21852111816406 free_energy=-36.21852111816406 stress="0.0001447098038624972 1.4592442809657769e-09 -3.405886417340298e-08 1.4592442809657769e-09 0.00014480853860732168 1.8977972970901646e-08 -3.405886417340298e-08 1.8977972970901646e-08 0.00014475367788691074" pbc="T T T"
Se       1.78956547       1.26541346       3.09961780       0.00000212       0.00000071       0.00000140
Se       5.36869519       3.79624114       9.29885201       0.00000056      -0.00000047      -0.00000529
Ru       0.00000011       0.00000010       0.00000002       0.00000041       0.00000077      -0.00000190
S        1.88669785       1.33409723       6.19923514      -0.00033933      -0.00024182       0.00000140
S        5.27156165       3.72755735       6.19923569       0.00034070       0.00024134       0.00000084
S        4.42534565       1.33409685       4.73354627       0.00017089      -0.00024232      -0.00029454
S        2.73291399       3.72755712       7.66492426      -0.00017291       0.00024283       0.00029829
S        2.73291390       3.72755722       4.73354626      -0.00017163       0.00024071      -0.00029543
S        4.42534579       1.33409707       7.66492441       0.00016937      -0.00024179       0.00029549
