9
Lattice="5.532028607144187 -1.241386917165747 3.3636079746780387 1.0858039133951518 4.475296100292738 2.351679895382892 -0.12308986596308616 -1.2064139531462021 6.90054280017033" Properties=species:S:1:pos:R:3:forces:R:3 energy=-47.89472961425781 free_energy=-47.89472961425781 stress="-0.00030204359791241586 4.437590905581601e-05 -0.0003694250190164894 4.437590905581601e-05 -0.0008513456559740007 0.00010258204565616325 -0.0003694250190164894 0.00010258204565616325 -0.0007780898013152182" pbc="T T T"
Se       0.90950283       0.96016077       1.91789657       0.00102937       0.01699722       0.02657939
Se       6.69534946       1.26093380       8.35350531      -0.01998520       0.00067171       0.00940031
S       -0.82368234       0.64916244      -0.85158644       0.01997280      -0.01751673       0.00667500
O        0.02131939       0.41947071       7.46338082       0.00009639       0.00798020      -0.00635710
O        6.07909346       0.97325697       6.39710545       0.00392079      -0.00922620      -0.00531985
O        5.07774535      -1.53197562       5.79955347      -0.00887895      -0.00149560       0.00215904
O        1.29738437       3.42792580       7.65000974      -0.01378524      -0.00353360      -0.00326002
O        2.78276948       2.55722486       4.84206530       0.00441670      -0.00674142      -0.00391990
O        3.93936404      -0.60613284       8.89130877       0.01321369       0.01286495      -0.02595705
