9
Lattice="5.602135190633046 2.7965368544535115e-07 3.234394339602194 1.867378659055159 5.281743750564148 3.2343943421700376 2.0578513328994943e-07 1.4865701658865853e-07 6.468788322774089" Properties=species:S:1:pos:R:3:forces:R:3 energy=-27.65740394592285 free_energy=-27.65740394592285 stress="0.00026961942785419524 7.024699755220354e-08 4.778528506221846e-08 7.024699755220354e-08 0.000269684154773131 2.700748069628389e-09 4.778528506221846e-08 2.700748069628389e-09 0.0002696249866858125" pbc="T T T"
Se       1.86737867       1.32043552       3.23439372      -0.00000012      -0.00000592      -0.00000597
Se       5.60213306       3.96130745       9.70318309      -0.00001044      -0.00000449       0.00000069
Sn      -0.00000004       0.00000009       0.00000010      -0.00000073       0.00000380       0.00000228
S        2.03934750       1.44203652       6.46878741      -0.00246422      -0.00174163      -0.00000450
S        5.43016698       3.83970760       6.46878807       0.00246429       0.00174192      -0.00000274
S        4.58246297       1.44203661       5.00052102       0.00123471      -0.00173876      -0.00213087
S        2.88705263       3.83970752       7.93705681      -0.00122782       0.00173944       0.00213474
S        2.88705321       3.83970845       5.00052087      -0.00122461       0.00174452      -0.00213075
S        4.58246130       1.44203699       7.93705700       0.00122897      -0.00173880       0.00213707
