9
Lattice="6.719399808965352 -1.3853186973155206e-07 3.879447154586166 2.239799803942535 6.335110751978401 3.879447157652247 -5.34994489243965e-08 -3.4074663861816525e-08 7.758894401836111" Properties=species:S:1:pos:R:3:forces:R:3 energy=-22.7435245513916 free_energy=-22.7435245513916 stress="7.375350105576217e-05 2.738606852403791e-08 -1.9090050429326766e-08 2.738606852403791e-08 7.376199209829792e-05 1.5480877024742767e-08 -1.9090050429326766e-08 1.5480877024742767e-08 7.375393033726141e-05" pbc="T T T"
Se       2.23980022       1.58377781       3.87944726       0.00000116      -0.00000066      -0.00000007
Se       6.71939917       4.75133288      11.63834189      -0.00000160       0.00000034       0.00000148
Sc       0.00000037       0.00000019      -0.00000047      -0.00000428      -0.00000232       0.00000201
I        2.31654950       1.63804774       7.75889431      -0.00092693      -0.00065605      -0.00000032
I        6.64264953       4.69706246       7.75889420       0.00093128       0.00065834      -0.00000029
I        5.56112492       1.63804791       5.88563784       0.00046451      -0.00065672      -0.00080542
I        3.39807463       4.69706290       9.63215077      -0.00046402       0.00065593       0.00080410
I        3.39807458       4.69706295       5.88563785      -0.00046365       0.00065676      -0.00080442
I        5.56112532       1.63804747       9.63215115       0.00046359      -0.00065557       0.00080290
