9
Lattice="4.706714644274406 -1.874428562299169e-07 2.7174232782564087 1.5689047588939276 4.437533050113515 2.7174231843932084 5.9284961311996846e-08 -7.303767830449051e-08 5.43484645382828" Properties=species:S:1:pos:R:3:forces:R:3 energy=-43.04429626464844 free_energy=-43.04429626464844 stress="-6.927038157300558e-06 1.0591141830218476e-07 4.543132803291883e-08 1.0591141830218476e-07 -6.953822776267771e-06 -2.8721063305425787e-09 4.543132803291883e-08 -2.8721063305425787e-09 -6.916775873833103e-06" pbc="T T T"
Se       1.56890495       1.10938372       2.71742261       0.00000235       0.00000403      -0.00000387
Se       4.70671665       3.32815041       8.15226984       0.00001116       0.00000408      -0.00000141
Si       0.00000001      -0.00000006      -0.00000009      -0.00000522       0.00000117       0.00000726
O        1.44694828       1.02314673       5.43484677       0.00004041       0.00002921       0.00000057
O        4.82867086       3.41438581       5.43484670      -0.00004148      -0.00002861       0.00000116
O        3.98324027       1.02314668       3.97051733      -0.00002092       0.00002688       0.00003624
O        2.29237791       3.41438577       6.89917567       0.00002015      -0.00003594      -0.00004005
O        2.29237850       3.41438578       3.97051745       0.00001818      -0.00003147       0.00003827
O        3.98324047       1.02314635       6.89917551      -0.00002444       0.00003082      -0.00003767
