9
Lattice="6.484195404053749 -2.1091236667145017e-09 3.743651937411227 2.1613984649517155 6.113357942479225 3.7436519392778402 -1.3109516962268816e-08 -6.983700514770436e-09 7.487303897528746" Properties=species:S:1:pos:R:3:forces:R:3 energy=-15.479942321777344 free_energy=-15.479942321777344 stress="9.83887366601266e-05 3.1836893121806042e-09 -2.2435086677319305e-08 3.1836893121806042e-09 9.840451093623415e-05 1.557446616118341e-08 -2.2435086677319305e-08 1.557446616118341e-08 9.837653487920761e-05" pbc="T T T"
Se       2.16139850       1.52833964       3.74365184       0.00000025       0.00000028       0.00000020
Se       6.48419566       4.58501844      11.23095577       0.00000000       0.00000010      -0.00000046
S        0.00000014       0.00000038      -0.00000019      -0.00000005       0.00000293      -0.00000252
I        2.33248229       1.64931408       7.48730397      -0.00337499      -0.00238712       0.00000032
I        6.31311123       4.46404364       7.48730399       0.00337520       0.00238608       0.00000087
I        5.31795410       1.64931425       5.76364117       0.00168824      -0.00238726      -0.00292209
I        3.32763960       4.46404362       9.21096680      -0.00168820       0.00238559       0.00292376
I        3.32763966       4.46404357       5.76364107      -0.00168757       0.00238600      -0.00292304
I        5.31795424       1.64931415       9.21096669       0.00168711      -0.00238661       0.00292292
