9
Lattice="4.692091036746538 1.6697513824653197e-08 2.7089800306461704 1.5640303411023404 4.423745811573487 2.7089800656724066 -1.7094059045743624e-08 3.0810878581444064e-08 5.417960090900119" Properties=species:S:1:pos:R:3:forces:R:3 energy=-29.87397003173828 free_energy=-29.87397003173828 stress="0.00039014528738334775 1.1471064453871804e-07 3.724686692407886e-08 1.1471064453871804e-07 0.0003902374592144042 3.3493676721008114e-09 3.724686692407886e-08 3.3493676721008114e-09 0.00039005224243737757" pbc="T T T"
Se       1.56402979       1.10593638       2.70898022      -0.00000507       0.00000010      -0.00000260
Se       4.69209055       3.31780917       8.12694005      -0.00000466      -0.00000063      -0.00000139
S        0.00000022      -0.00000028       0.00000058       0.00000194       0.00000108       0.00000448
F        1.47426604       1.04246357       5.41796021       0.00054222       0.00038165       0.00000227
F        4.78185575       3.38128244       5.41796014      -0.00053966      -0.00038356       0.00000054
F        3.95495837       1.04246313       3.98573179      -0.00026858       0.00038296       0.00047112
F        2.30116358       3.38128248       6.85018830       0.00027296      -0.00038558      -0.00046986
F        2.30116314       3.38128277       3.98573128       0.00027257      -0.00038266       0.00046813
F        3.95495802       1.04246381       6.85018812      -0.00027192       0.00038630      -0.00047314
