9
Lattice="6.304709374897608 4.2056946800796416e-08 3.6400257137771703 2.1015698199589945 5.944136913791842 3.6400257333929855 -3.1411627268555105e-08 1.813002399724697e-09 7.280051481960853" Properties=species:S:1:pos:R:3:forces:R:3 energy=-24.809242248535156 free_energy=-24.809242248535156 stress="0.0002834097249433398 3.4924478864439834e-09 6.357120607702882e-09 3.4924478864439834e-09 0.0002833901671692729 -8.28578272660252e-09 6.357120607702882e-09 -8.28578272660252e-09 0.00028342046425677836" pbc="T T T"
Se       2.10156977       1.48603409       3.64002573      -0.00000061       0.00000089       0.00000086
Se       6.30470929       4.45810283      10.92007692       0.00000028      -0.00000174       0.00000054
Sc       0.00000017       0.00000004       0.00000033      -0.00000519      -0.00000055      -0.00000510
Br       2.13271820       1.50805950       7.28005144       0.00067765       0.00048007       0.00000059
Br       6.27356099       4.43607743       7.28005146      -0.00067544      -0.00047731       0.00000065
Br       5.23835032       1.50805946       5.48701380      -0.00033873       0.00047996       0.00058720
Br       3.16792882       4.43607741       9.07308914       0.00034014      -0.00047972      -0.00058858
Br       3.16792891       4.43607741       5.48701389       0.00033925      -0.00047870       0.00058829
Br       5.23835020       1.50805964       9.07308904      -0.00033736       0.00047709      -0.00058433
