9
Lattice="5.71541362575991 1.790950496929355e-08 3.299795517371998 1.9051379069945495 5.388543891612524 3.2997954916406833 -1.0233929688017834e-07 -1.0387911051185019e-07 6.599591212000845" Properties=species:S:1:pos:R:3:forces:R:3 energy=-18.95415687561035 free_energy=-18.95415687561035 stress="0.00019417950534261763 -8.818745733663036e-09 5.977099704068678e-08 -8.818745733663036e-09 0.0001940900256158784 3.499275180729455e-08 5.977099704068678e-08 3.499275180729455e-08 0.0001941091031767428" pbc="T T T"
Se       1.90513897       1.34713695       3.29979610       0.00000296       0.00000244       0.00000351
Se       5.71541363       4.04140769       9.89938906       0.00000031       0.00000279       0.00001035
S       -0.00000029      -0.00000024      -0.00000001       0.00000206       0.00000090      -0.00000291
Cl       1.87646842       1.32686342       6.59959087       0.00015900       0.00011253       0.00000015
Cl       5.74408300       4.06168047       6.59959061      -0.00016312      -0.00011138      -0.00000235
Cl       4.77717942       1.32686337       4.92486411      -0.00007968       0.00011260       0.00013865
Cl       2.84337178       4.06168011       8.27431720       0.00008034      -0.00011843      -0.00014287
Cl       2.84337168       4.06168012       4.92486381       0.00007914      -0.00011447       0.00013647
Cl       4.77717910       1.32686334       8.27431711      -0.00008110       0.00011304      -0.00014064
