9
Lattice="4.763808157616604 -8.418145045818033e-08 2.750388076283849 1.5879358664602037 4.491369420589482 2.750388261107534 -1.7726022753275748e-07 1.0102025817315512e-07 5.5007764595900515" Properties=species:S:1:pos:R:3:forces:R:3 energy=-37.04682540893555 free_energy=-37.04682540893555 stress="6.013448455632897e-06 -2.6340865133533953e-07 -9.087772667726313e-08 -2.6340865133533953e-07 -7.141095466067782e-06 -2.9783916488668183e-07 -9.087772667726313e-08 -2.9783916488668183e-07 3.300060370747815e-06" pbc="T T T"
Se       1.58794218       1.12292954       2.75040415       0.00007186       0.00103396       0.00017271
Se       4.76386567       3.36830986       8.25119442       0.00065023      -0.00244959       0.00033492
Sn       0.00000593      -0.00000789       0.00000320       0.00002299      -0.00006880       0.00003305
O        1.66918926       1.18043001       5.50077022      -0.00056964       0.00108922      -0.00007877
O        4.68251501       3.31100030       5.50076393       0.00011998      -0.00044894      -0.00015199
O        3.92920093       1.18041867       4.19594518       0.00014973       0.00097394      -0.00043166
O        2.42251678       3.31100162       6.80555196      -0.00037545      -0.00045425      -0.00010628
O        2.42253135       3.31099599       4.19598997      -0.00026140      -0.00048888      -0.00003314
O        3.92920834       1.18039969       6.80558721       0.00019100       0.00081319       0.00026155
