9
Lattice="5.879934963561283 -1.2963627933187663e-07 3.3947817740602595 1.9599782247978819 5.543654971242291 3.3947817293161 -2.6268116120150426e-07 -2.405438169500472e-07 6.789564003097574" Properties=species:S:1:pos:R:3:forces:R:3 energy=-27.80451202392578 free_energy=-27.80451202392578 stress="0.000237914253375493 5.623862975312477e-08 -1.0131576289040822e-07 5.623862975312477e-08 0.00023801466159056872 -6.775569971750883e-08 -1.0131576289040822e-07 -6.775569971750883e-08 0.00023808747937437147" pbc="T T T"
Se       1.95997764       1.38591463       3.39478272      -0.00000104       0.00000176       0.00000230
Se       5.87993465       4.15774088      10.18434793       0.00000236      -0.00000221      -0.00000281
Sc       0.00000007       0.00000002      -0.00000003      -0.00000108      -0.00000108      -0.00000942
Cl       2.00618922       1.41858888       6.78956409       0.00116411       0.00082198      -0.00000025
Cl       5.83372393       4.12506495       6.78956473      -0.00116253      -0.00082276      -0.00000248
Cl       4.87684072       1.41858967       5.13219081      -0.00058564       0.00082779       0.00101167
Cl       2.96307222       4.12506424       8.44693439       0.00057795      -0.00081773      -0.00100181
Cl       2.96307246       4.12506569       5.13219098       0.00058467      -0.00082682       0.00100894
Cl       4.87684077       1.41858944       8.44693430      -0.00057885       0.00081899      -0.00100601
