9
Lattice="4.432376686253353 3.607349963413265e-09 2.559033869630418 1.4774589154520168 4.178884758923996 2.559033840820873 -5.9610314876048885e-09 -3.9499418398505096e-08 5.118067749585646" Properties=species:S:1:pos:R:3:forces:R:3 energy=-39.85499572753906 free_energy=-39.85499572753906 stress="0.00026735063875094056 2.5558545502235575e-08 2.0265009226250186e-08 2.5558545502235575e-08 0.0002673050621524453 -3.880731114236369e-08 2.0265009226250186e-08 -3.880731114236369e-08 0.00026735980645753443" pbc="T T T"
Se       1.47745874       1.04472102       2.55903401      -0.00000088      -0.00000121      -0.00000008
Se       4.43237650       3.13416359       7.67710168      -0.00000085      -0.00000062       0.00000078
Sc       0.00000005      -0.00000014      -0.00000018      -0.00000132      -0.00000013       0.00000292
F        1.54022249       1.08910159       5.11806778      -0.00177202      -0.00125370      -0.00000105
F        4.36961317       3.08978314       5.11806762       0.00177333       0.00125334       0.00000180
F        3.66226553       1.08910180       3.89290548       0.00088689      -0.00125419      -0.00153625
F        2.24757012       3.08978318       6.34322990      -0.00088520       0.00125354       0.00153501
F        2.24757021       3.08978312       3.89290560      -0.00088743       0.00125515      -0.00153737
F        3.66226557       1.08910157       6.34322994       0.00088702      -0.00125271       0.00153355
