9
Lattice="4.46794716143274 -2.8154220784253525e-08 2.5795704986367904 1.4893157021794448 4.212420978482033 2.579570484354446 -1.555211448357297e-08 -2.8489241028570354e-08 5.159141024210639" Properties=species:S:1:pos:R:3:forces:R:3 energy=-42.92627716064453 free_energy=-42.92627716064453 stress="5.299086114973761e-05 9.555328972510324e-08 -5.102811684309927e-08 9.555328972510324e-08 5.2905834309058264e-05 1.3075133864504096e-08 -5.102811684309927e-08 1.3075133864504096e-08 5.299322947394103e-05" pbc="T T T"
Se       1.48931577       1.05310531       2.57957058      -0.00000118       0.00000001      -0.00000084
Se       4.46794709       3.15931564       7.73871150       0.00000073       0.00000136       0.00000070
Ti      -0.00000008      -0.00000010       0.00000002       0.00000075      -0.00000296       0.00000240
F        1.52306671       1.07697075       5.15914099       0.00053951       0.00037962      -0.00000007
F        4.43419622       3.13545020       5.15914092      -0.00053793      -0.00038126      -0.00000136
F        3.70641378       1.07697076       3.89858492      -0.00026961       0.00038160       0.00046995
F        2.25084906       3.13545013       6.41969701       0.00026937      -0.00038078      -0.00046512
F        2.25084906       3.13545018       3.89858497       0.00027022      -0.00038092       0.00046670
F        3.70641381       1.07697082       6.41969707      -0.00027184       0.00038327      -0.00047240
