9
Lattice="4.665986363549493 7.723791662167174e-08 2.693908325954243 1.5553288692371297 4.399133687081213 2.693908311116297 -1.7760676101474377e-08 -3.073139272192195e-08 5.387816682670875" Properties=species:S:1:pos:R:3:forces:R:3 energy=-50.84430694580078 free_energy=-50.84430694580078 stress="0.000357168959453702 -1.6421333626226442e-08 -8.919282201702572e-09 -1.6421333626226442e-08 0.0003571792913135141 -1.1191713111813328e-09 -8.919282201702572e-09 -1.1191713111813328e-09 0.0003571120323613286" pbc="T T T"
Se       1.55532816       1.09978250       2.69390926      -0.00000594      -0.00000618       0.00000702
Se       4.66598664       3.29935042       8.08172488       0.00000019       0.00000084       0.00000096
Ta      -0.00000017       0.00000010      -0.00000026      -0.00000191       0.00000186       0.00000552
O        1.58936466       1.12385012       5.38781641       0.00202382       0.00143081      -0.00000185
O        4.63195072       3.27528348       5.38781652      -0.00202495      -0.00142834      -0.00000179
O        3.87130410       1.12385042       4.07033835      -0.00100881       0.00142890       0.00174791
O        2.35001122       3.27528357       6.70529492       0.00101447      -0.00143120      -0.00175700
O        2.35001089       3.27528361       4.07033846       0.00101095      -0.00142711       0.00175309
O        3.87130467       1.12385064       6.70529462      -0.00100765       0.00143027      -0.00175348
