9
Lattice="5.477152022297365 3.977192788230487e-08 3.1622353011886415 1.8257173985909372 5.163908362365642 3.162235265979799 3.7654085569833367e-08 -1.6496372289750612e-08 6.324470537158511" Properties=species:S:1:pos:R:3:forces:R:3 energy=-35.62914276123047 free_energy=-35.62914276123047 stress="0.00030854620854370296 -4.5763325573489055e-08 4.916556939349448e-09 -4.5763325573489055e-08 0.00030862458515912294 2.212715566329848e-09 4.916556939349448e-09 2.212715566329848e-09 0.0003086174838244915" pbc="T T T"
Se       1.82571841       1.29097742       3.16223417       0.00000721       0.00000592      -0.00000716
Se       5.47715222       3.87293201       9.48670781       0.00000222       0.00000625       0.00001224
Ti      -0.00000018      -0.00000005      -0.00000009       0.00000128      -0.00000044      -0.00000068
S        1.91674314       1.35534174       6.32447091       0.00215374       0.00152054       0.00000987
S        5.38612633       3.80856631       6.32447032      -0.00215580      -0.00152232      -0.00000176
S        4.51878036       1.35534200       4.82218354      -0.00107984       0.00152378       0.00186014
S        2.78408834       3.80856618       7.82675728       0.00107040      -0.00152747      -0.00186725
S        2.78408914       3.80856619       4.82218353       0.00107940      -0.00152145       0.00186157
S        4.51878003       1.35534171       7.82675695      -0.00107855       0.00151497      -0.00186718
