9
Lattice="6.687592988708546 6.613626753122352e-08 3.8610835968946056 2.2291976606224893 6.305123268014001 3.861083708844382 -2.726263206797356e-08 1.1783230885090174e-07 7.722167241009484" Properties=species:S:1:pos:R:3:forces:R:3 energy=-23.58061981201172 free_energy=-23.58061981201172 stress="0.00016470381524413824 -1.4793351432729196e-08 -2.3394964188128142e-08 -1.4793351432729196e-08 0.00016470598347950727 2.2887927997317092e-08 -2.3394964188128142e-08 2.2887927997317092e-08 0.0001647379103815183" pbc="T T T"
Se       2.22919787       1.57628105       3.86108412      -0.00000047      -0.00000020       0.00000078
Se       6.68759251       4.72884233      11.58325113       0.00000047      -0.00000128       0.00000035
Ti      -0.00000015       0.00000004      -0.00000018       0.00000140      -0.00000244       0.00000349
I        2.16468584       1.53066427       7.72216720      -0.00126836      -0.00089718      -0.00000115
I        6.75210433       4.77445913       7.72216690       0.00126931       0.00089771      -0.00000001
I        5.60524982       1.53066488       5.73575678       0.00063488      -0.00089813      -0.00110101
I        3.31154096       4.77445887       9.70857730      -0.00063526       0.00089875       0.00110116
I        3.31154140       4.77445891       5.73575712      -0.00063547       0.00089801      -0.00110125
I        5.60524992       1.53066434       9.70857781       0.00063352      -0.00089524       0.00109768
