9
Lattice="6.326242695861238 3.353387472320201e-08 3.6524577524176 2.1087475364996564 5.964438931897972 3.6524578570394435 9.265715117330845e-08 1.9365356958568085e-07 7.304915344348257" Properties=species:S:1:pos:R:3:forces:R:3 energy=-25.62782096862793 free_energy=-25.62782096862793 stress="2.926123443103279e-06 6.692862708490566e-09 -8.666341422269852e-09 6.692862708490566e-09 2.907914904426434e-06 9.22782028567326e-09 -8.666341422269852e-09 9.22782028567326e-09 2.8946749353053747e-06" pbc="T T T"
Se       2.10874744       1.49110993       3.65245780       0.00000001      -0.00000048      -0.00000033
Se       6.32624217       4.47332857      10.95737231      -0.00000236      -0.00000086      -0.00000054
Ti      -0.00000027       0.00000028       0.00000046       0.00000370      -0.00000200      -0.00000080
Br       2.02929463       1.43492792       7.30491547       0.00109382       0.00077418       0.00000076
Br       6.40569598       4.52951116       7.30491545      -0.00109421      -0.00077285       0.00000081
Br       5.31159573       1.43492794       5.40987838      -0.00054768       0.00077509       0.00094788
Br       3.12339500       4.52951133       9.19995284       0.00054716      -0.00077289      -0.00094721
Br       3.12339484       4.52951133       5.40987843       0.00054867      -0.00077535       0.00094911
Br       5.31159572       1.43492817       9.19995266      -0.00054885       0.00077519      -0.00094949
