9
Lattice="5.912920478332598 -3.5146422217180514e-07 3.413825984819383 1.9709731786323939 5.574753901634826 3.4138259549960837 1.1720975139985123e-07 4.635382055482202e-08 6.827651766625551" Properties=species:S:1:pos:R:3:forces:R:3 energy=-28.872364044189453 free_energy=-28.872364044189453 stress="-0.0003395492094568908 -2.499356455132329e-08 -3.0456106969722896e-08 -2.499356455132329e-08 -0.00033964001340791583 -6.623999571075956e-09 -3.0456106969722896e-08 -6.623999571075956e-09 -0.0003397208347450942" pbc="T T T"
Se       1.97097230       1.39368938       3.41382640      -0.00000269       0.00000381       0.00000250
Se       5.91292133       4.18106437      10.24147718      -0.00000154      -0.00000226      -0.00000217
Ti       0.00000004      -0.00000019      -0.00000067       0.00000243       0.00000166       0.00000345
Cl       1.91029269       1.35078065       6.82765206       0.00576302       0.00407451       0.00000049
Cl       5.97360115       4.22397292       6.82765199      -0.00576264      -0.00407803      -0.00000097
Cl       4.95777439       1.35078028       5.06818743      -0.00288370       0.00407588       0.00499448
Cl       2.92611927       4.22397325       8.58711613       0.00288533      -0.00407913      -0.00499713
Cl       2.92611959       4.22397323       5.06818771       0.00288124      -0.00407457       0.00499195
Cl       4.95777438       1.35078046       8.58711653      -0.00288154       0.00407785      -0.00499305
