9
Lattice="4.5542970701262195 7.833500604414519e-10 2.6294246117114017 1.5180990168982023 4.293832454982821 2.629424624209452 -4.101187085760003e-08 -1.3692862684664331e-08 5.2588492944574625" Properties=species:S:1:pos:R:3:forces:R:3 energy=-47.190486907958984 free_energy=-47.190486907958984 stress="0.00018828362226486206 2.6087290105891725e-09 -1.1107749386951582e-08 2.6087290105891725e-09 0.00018811121117323637 -1.7226492232680357e-08 -1.1107749386951582e-08 -1.7226492232680357e-08 0.00018802520935423672" pbc="T T T"
Se       1.51809720       1.07345835       2.62942453      -0.00001673       0.00000150      -0.00000332
Se       4.55429570       3.22037406       7.88827335      -0.00001546      -0.00000193      -0.00000550
Ti       0.00000004       0.00000007      -0.00000023      -0.00000072       0.00000292       0.00000696
O        1.52475028       1.07816098       5.25884962       0.00414866       0.00293040       0.00000215
O        4.54764658       3.21567105       5.25884960      -0.00414604      -0.00293618       0.00000209
O        3.79192238       1.07816124       3.94989678      -0.00206724       0.00293332       0.00359267
O        2.28047455       3.21567123       6.56780228       0.00208449      -0.00293666      -0.00359267
O        2.28047442       3.21567166       3.94989683       0.00207955      -0.00293082       0.00359523
O        3.79192304       1.07816116       6.56780149      -0.00206658       0.00293732      -0.00359726
