9
Lattice="4.638440881845779 -6.809635615176194e-08 2.678004997836469 1.546146928656297 4.3731636441037445 2.6780049419901544 -4.1337742464734314e-08 -9.762766743089235e-08 5.3560100672719955" Properties=species:S:1:pos:R:3:forces:R:3 energy=-44.26742172241211 free_energy=-44.26742172241211 stress="-0.0006263779941946268 1.6533185487332958e-08 -6.606910574191716e-08 1.6533185487332958e-08 -0.000626422232016921 -8.669940321226477e-09 -6.606910574191716e-08 -8.669940321226477e-09 -0.0006263232207857072" pbc="T T T"
Se       1.54614733       1.09329036       2.67800502       0.00000226      -0.00000429      -0.00000053
Se       4.63844071       3.27987239       8.03401422      -0.00000009      -0.00000128      -0.00000780
V       -0.00000011      -0.00000012      -0.00000008      -0.00000134       0.00000484       0.00000394
O        1.49207373       1.05505528       5.35601025       0.00448537       0.00317180       0.00000046
O        4.69251392       3.31810854       5.35601022      -0.00448740      -0.00317085       0.00000296
O        3.89240395       1.05505529       3.97017908      -0.00224227       0.00316930       0.00388294
O        2.29218375       3.31810856       6.74184091       0.00224417      -0.00317085      -0.00388455
O        2.29218371       3.31810801       3.97017872       0.00224155      -0.00317323       0.00388527
O        3.89240402       1.05505554       6.74184143      -0.00224221       0.00317478      -0.00388241
