9
Lattice="4.522731330784579 -9.192552032079729e-10 2.6112000923773184 1.5075770999129976 4.264071999552763 2.611200108800341 5.467669935755408e-09 2.398023946743115e-08 5.222400175284355" Properties=species:S:1:pos:R:3:forces:R:3 energy=-39.6904411315918 free_energy=-39.6904411315918 stress="0.00011746599921025336 -9.45825195941552e-09 1.5846010725795168e-08 -9.45825195941552e-09 0.00011747975804610178 -5.520301105121916e-09 1.5846010725795168e-08 -5.520301105121916e-09 0.00011747638927772641" pbc="T T T"
Se       1.50757729       1.06601792       2.61120010       0.00000019      -0.00000075      -0.00000014
Se       4.52273119       3.19805412       7.83360047       0.00000067      -0.00000036      -0.00000010
V        0.00000005       0.00000006      -0.00000004       0.00000126       0.00000061       0.00000583
F        1.52153994       1.07589110       5.22240020       0.00033610       0.00023885       0.00000071
F        4.50876850       3.18818087       5.22240005      -0.00033879      -0.00024008       0.00000111
F        3.76196126       1.07589133       3.92889226      -0.00016733       0.00023670       0.00029059
F        2.26834709       3.18818082       6.51590807       0.00016976      -0.00024039      -0.00029427
F        2.26834714       3.18818065       3.92889229       0.00016720      -0.00023594       0.00029044
F        3.76196126       1.07589118       6.51590809      -0.00016915       0.00024138      -0.00029425
