9
Lattice="6.50252106741042 -4.883261161399658e-08 3.754232331779367 2.167507008653221 6.130635668508571 3.754232275967614 1.141005261328886e-08 -6.02870262720805e-08 7.5084646437959455" Properties=species:S:1:pos:R:3:forces:R:3 energy=-23.346656799316406 free_energy=-23.346656799316406 stress="8.213851106120273e-05 -1.0315794440884929e-08 9.25696586051572e-09 -1.0315794440884929e-08 8.214120316551998e-05 -1.432279272961523e-08 9.25696586051572e-09 -1.432279272961523e-08 8.215811976697296e-05" pbc="T T T"
Se       2.16750710       1.53265920       3.75423232      -0.00000028       0.00000028       0.00000082
Se       6.50252120       4.59797635      11.26269687       0.00000042      -0.00000070       0.00000008
V        0.00000004       0.00000020      -0.00000019       0.00000067      -0.00000178      -0.00000069
I        2.13445667       1.50928876       7.50846454      -0.00051583      -0.00036462      -0.00000069
I        6.53557125       4.62134670       7.50846466       0.00051633       0.00036514       0.00000034
I        5.43529253       1.50928886       5.60272627       0.00025833      -0.00036503      -0.00044756
I        3.23473547       4.62134669       9.41420308      -0.00025881       0.00036626       0.00044896
I        3.23473540       4.62134653       5.60272637      -0.00025905       0.00036640      -0.00044972
I        5.43529269       1.50928891       9.41420311       0.00025830      -0.00036605       0.00044858
