9
Lattice="6.283026456007792 -1.0208348630582099e-07 3.627507024096398 2.09434209011724 5.923693610229768 3.627506964583372 -8.733212750208074e-09 -7.906362464624269e-08 7.255014063319182" Properties=species:S:1:pos:R:3:forces:R:3 energy=-25.39887046813965 free_energy=-25.39887046813965 stress="-6.771011976525187e-05 -1.3233943940704762e-09 7.1589902894686475e-09 -1.3233943940704762e-09 -6.770791515009478e-05 3.062610165471824e-09 7.1589902894686475e-09 3.062610165471824e-09 -6.770873733330518e-05" pbc="T T T"
Se       2.09434173       1.48092329       3.62750685      -0.00000098      -0.00000013      -0.00000099
Se       6.28302591       4.44277012      10.88252070      -0.00000075       0.00000003      -0.00000026
V        0.00000025       0.00000012       0.00000023      -0.00000002      -0.00000068       0.00000160
Br       1.98981469       1.40701117       7.25501379       0.00144693       0.00102283      -0.00000034
Br       6.38755411       4.51668223       7.25501401      -0.00144628      -0.00102229       0.00000066
Br       5.28811956       1.40701119       5.35073708      -0.00072333       0.00102285       0.00125250
Br       3.08924928       4.51668221       9.15929110       0.00072424      -0.00102276      -0.00125265
Br       3.08924945       4.51668250       5.35073691       0.00072366      -0.00102352       0.00125256
Br       5.28811919       1.40701089       9.15929150      -0.00072330       0.00102375      -0.00125322
