9
Lattice="5.4469679503499435 3.08713312135401e-08 3.144808373088605 1.8156560359206735 5.135450458914816 3.144808332619354 -1.8362119465408534e-08 -6.254848385214037e-08 6.289616777981341" Properties=species:S:1:pos:R:3:forces:R:3 energy=-36.63841247558594 free_energy=-36.63841247558594 stress="0.00011159820860484615 6.159071475053679e-09 3.0984009802281776e-10 6.159071475053679e-09 0.00011154860840179026 4.733901270981278e-09 3.0984009802281776e-10 4.733901270981278e-09 0.00011155902757309377" pbc="T T T"
Se       1.81565599       1.28386246       3.14480973      -0.00000088      -0.00000393       0.00000654
Se       5.44696825       3.85158869       9.43442302       0.00000191       0.00000543      -0.00001090
V        0.00000005      -0.00000065      -0.00000078       0.00000043       0.00000495       0.00001056
S        1.83462972       1.29727909       6.28961669       0.00027102       0.00019065       0.00000105
S        5.42799428       3.83817146       6.28961737      -0.00027561      -0.00019351       0.00000384
S        4.52965267       1.29727849       4.73364462      -0.00013582       0.00018835       0.00023496
S        2.73297080       3.83817213       7.84558945       0.00014085      -0.00019646      -0.00024152
S        2.73297069       3.83817128       4.73364430       0.00013444      -0.00019079       0.00023454
S        4.52965343       1.29727878       7.84558957      -0.00013646       0.00019512      -0.00023884
