9
Lattice="5.870758645358537 1.911847432114881e-08 3.389484069629567 1.9569195916172968 5.535004585795398 3.3894840260868833 1.0786381364297297e-07 2.2942555656647267e-08 6.778967952433571" Properties=species:S:1:pos:R:3:forces:R:3 energy=-29.002544403076172 free_energy=-29.002544403076172 stress="-0.00034580827923491597 -1.2506641944298735e-08 7.178132221952183e-08 -1.2506641944298735e-08 -0.00034585417597554624 2.7408008307361342e-08 7.178132221952183e-08 2.7408008307361342e-08 -0.0003459028375800699" pbc="T T T"
Se       1.95691995       1.38375163       3.38948488       0.00000484      -0.00000022       0.00000441
Se       5.87075937       4.15125362      10.16845265       0.00000019      -0.00000296      -0.00000010
V       -0.00000053       0.00000019      -0.00000068       0.00000399      -0.00000132       0.00000579
Cl       1.85876509       1.31434565       6.77896759       0.00200802       0.00141957       0.00000000
Cl       5.96891374       4.22065945       6.77896786      -0.00201222      -0.00142223       0.00000125
Cl       4.94137605       1.31434544       4.99922180      -0.00100484       0.00142059       0.00173935
Cl       2.88630181       4.22065938       8.55871409       0.00100401      -0.00142336      -0.00174326
Cl       2.88630213       4.22065875       4.99922162       0.00100344      -0.00141737       0.00173765
Cl       4.94137562       1.31434434       8.55871432      -0.00100744       0.00142699      -0.00174478
