9
Lattice="4.69529237290355 -4.328928392972179e-08 2.710828401580403 1.565097435128275 4.426763934637168 2.710828369871233 2.4638397026693234e-08 -2.1413652463044488e-08 5.4216567604858446" Properties=species:S:1:pos:R:3:forces:R:3 energy=-45.06035614013672 free_energy=-45.06035614013672 stress="-7.670225022593513e-05 3.299676265555718e-08 1.8027207504545117e-09 3.299676265555718e-08 -7.669118349440396e-05 3.990280106336286e-08 1.8027207504545117e-09 3.990280106336286e-08 -7.675266533624381e-05" pbc="T T T"
Se       1.56509710       1.10669036       2.71082785      -0.00000083      -0.00000302      -0.00000488
Se       4.69529279       3.32007326       8.13248481       0.00000180       0.00000085      -0.00000319
W       -0.00000022      -0.00000023       0.00000003       0.00000495       0.00000443       0.00000686
O        1.55657350       1.10066382       5.42165702      -0.00445139      -0.00314623       0.00000322
O        4.70381622       3.32610024       5.42165668       0.00444549       0.00314343       0.00000181
O        3.91700550       1.10066363       4.05886098       0.00222549      -0.00314903      -0.00385195
O        2.34338457       3.32610045       6.78445288      -0.00222147       0.00314474       0.00384915
O        2.34338423       3.32610028       4.05886095      -0.00222605       0.00314796      -0.00385004
O        3.91700551       1.10066358       6.78445289       0.00222209      -0.00314367       0.00384831
