9
Lattice="5.460504561376931 -1.4627143493022353e-08 3.152623764978223 1.820168137188458 5.1482130523819345 3.1526238275859835 -6.245991371279442e-08 3.2512666026192834e-08 6.305247638140205" Properties=species:S:1:pos:R:3:forces:R:3 energy=-41.2938117980957 free_energy=-41.2938117980957 stress="0.0001905833778437227 -2.0286872626229524e-08 -2.4581053637007244e-08 -2.0286872626229524e-08 0.00019064922526013106 -9.689683722058362e-09 -2.4581053637007244e-08 -9.689683722058362e-09 0.00019065783999394625" pbc="T T T"
Se       1.82016784       1.28705356       3.15262386      -0.00000103       0.00000137       0.00000089
Se       5.46050447       3.86115951       9.45787135       0.00000082      -0.00000097       0.00000043
W        0.00000015       0.00000008      -0.00000014       0.00000248       0.00000431      -0.00000127
S        1.87543199       1.32613072       6.30524760       0.00026931       0.00018969      -0.00000088
S        5.40524079       3.82208249       6.30524752      -0.00027393      -0.00019333       0.00000033
S        4.52278847       1.32613076       4.77679558      -0.00013404       0.00018992       0.00023398
S        2.75788414       3.82208229       7.83369980       0.00013474      -0.00019020      -0.00023419
S        2.75788409       3.82208229       4.77679562       0.00013572      -0.00019152       0.00023459
S        4.52278857       1.32613065       7.83369976      -0.00013389       0.00019053      -0.00023392
