9
Lattice="6.4411038268321645 -7.069621768813526e-08 3.7187730411571684 2.1470345257113808 6.072730961301582 3.7187730698739663 1.4300409399346061e-08 4.5282669259571096e-08 7.437546057545275" Properties=species:S:1:pos:R:3:forces:R:3 energy=-14.039360046386719 free_energy=-14.039360046386719 stress="3.7002930184826255e-05 -2.630754281085501e-08 -5.3274056277530235e-09 -2.630754281085501e-08 3.701288005686365e-05 -9.865161132438516e-09 -5.3274056277530235e-09 -9.865161132438516e-09 3.704751725308597e-05" pbc="T T T"
Se       2.14703489       1.51818259       3.71877311       0.00000137       0.00000034       0.00000105
Se       6.44110358       4.55454808      11.15631913      -0.00000091      -0.00000075      -0.00000127
Zn      -0.00000032      -0.00000026       0.00000007       0.00000387       0.00000215      -0.00000265
I        2.21448684       1.56587894       7.43754601      -0.00581254      -0.00411015      -0.00000052
I        6.37365171       4.50685229       7.43754598       0.00581013       0.00410814       0.00000086
I        5.33386039       1.56587879       5.63657493       0.00290510      -0.00410989      -0.00503148
I        3.25427793       4.50685224       9.23851725      -0.00290610       0.00411041       0.00503451
I        3.25427807       4.50685239       5.63657489      -0.00290592       0.00410925      -0.00503274
I        5.33386036       1.56587868       9.23851734       0.00290501      -0.00410955       0.00503218
