9
Lattice="4.443074920615999 4.3480112410797935e-08 2.5652105900883506 1.4810250140464873 4.188971273940133 2.5652105909294756 6.55046228010837e-08 4.7348926033923616e-08 5.1304210667193795" Properties=species:S:1:pos:R:3:forces:R:3 energy=-26.83193016052246 free_energy=-26.83193016052246 stress="0.0002881996624637395 -7.83559457318006e-08 -5.428191585110653e-08 -7.83559457318006e-08 0.00028805926558561623 2.4071585613683055e-08 -5.428191585110653e-08 2.4071585613683055e-08 0.0002879899984691292" pbc="T T T"
Se       1.48102467       1.04724298       2.56521036      -0.00000061       0.00000082      -0.00000020
Se       4.44307527       3.14172866       7.69563156       0.00000075       0.00000070      -0.00000136
Zn       0.00000020       0.00000004      -0.00000004      -0.00000215      -0.00000028      -0.00000076
F        1.54124313       1.08982350       5.13042121      -0.00002141      -0.00001646       0.00000050
F        4.38285684       3.09914782       5.13042120       0.00002567       0.00001538       0.00000152
F        3.67245330       1.08982352       3.89996635       0.00001262      -0.00001896      -0.00001927
F        2.25164648       3.09914764       6.36087604      -0.00001295       0.00001840       0.00002278
F        2.25164649       3.09914786       3.89996651      -0.00001386       0.00001778      -0.00002111
F        3.67245364       1.08982338       6.36087592       0.00001233      -0.00001748       0.00001825
