9
Lattice="6.111911777541527 1.324287872864834e-08 3.528713906458241 2.0373039417415635 5.762365537939255 3.528713900553879 -1.4546080740917492e-08 -1.751693182055234e-08 7.057427838110988" Properties=species:S:1:pos:R:3:forces:R:3 energy=-15.9276704788208 free_energy=-15.9276704788208 stress="0.00018798958626575768 -2.7604429853056445e-09 -5.39694400281121e-10 -2.7604429853056445e-09 0.00018798909150063992 -4.4358974826685937e-10 -5.39694400281121e-10 -4.4358974826685937e-10 0.00018799798272084445" pbc="T T T"
Se       2.03730386       1.44059129       3.52871386      -0.00000018      -0.00000075      -0.00000013
Se       6.11191189       4.32177420      10.58614156       0.00000016      -0.00000021      -0.00000003
Zn      -0.00000005       0.00000004       0.00000023      -0.00000006       0.00000160       0.00000013
Br       2.04521723       1.44618693       7.05742797       0.00129046       0.00091310       0.00000005
Br       6.10399855       4.31617858       7.05742801      -0.00129277      -0.00091407       0.00000005
Br       5.08930321       1.44618696       5.29992402      -0.00064525       0.00091360       0.00111834
Br       3.05991252       4.31617856       8.81493155       0.00064655      -0.00091343      -0.00111993
Br       3.05991249       4.31617864       5.29992392       0.00064623      -0.00091333       0.00111958
Br       5.08930310       1.44618696       8.81493148      -0.00064512       0.00091353      -0.00111810
