9
Lattice="5.6655447706753534 -8.953184851446747e-09 3.2710036801905003 1.88851495720587 5.34152656535167 3.271003607290987 8.125182735859493e-08 -3.182961746016492e-08 6.542007219648714" Properties=species:S:1:pos:R:3:forces:R:3 energy=-18.24080467224121 free_energy=-18.24080467224121 stress="8.703632920514792e-05 -4.352073368352194e-09 3.337886411713953e-08 -4.352073368352194e-09 8.701250044396147e-05 9.074408779952137e-09 3.337886411713953e-08 9.074408779952137e-09 8.712861745152622e-05" pbc="T T T"
Se       1.88851335       1.33538163       3.27100400      -0.00000035       0.00000130      -0.00000090
Se       5.66554444       4.00614504       9.81301177      -0.00000277       0.00000197       0.00000249
Zn       0.00000025       0.00000006       0.00000014      -0.00000275      -0.00000153      -0.00000376
Cl       1.92670010       1.36238211       6.54200741       0.00060219       0.00042543       0.00000022
Cl       5.62736021       3.97914393       6.54200718      -0.00059849      -0.00042541      -0.00000254
Cl       4.70219534       1.36238204       4.93957436      -0.00030379       0.00042793       0.00052328
Cl       2.85186499       3.97914435       8.14443959       0.00030081      -0.00042500      -0.00052142
Cl       2.85186519       3.97914440       4.93957409       0.00030425      -0.00042740       0.00052366
Cl       4.70219539       1.36238251       8.14443951      -0.00029919       0.00042288      -0.00052130
