9
Lattice="4.151140931269456 -1.0479342705540125e-07 2.396662173731966 1.3837135420629252 3.913732932760863 2.3966621787434406 1.825024755128924e-08 1.9042655511649606e-08 4.793324315853561" Properties=species:S:1:pos:R:3:forces:R:3 energy=-49.48516082763672 free_energy=-49.48516082763672 stress="-0.0005704303039237857 2.8774262972319775e-08 -1.37927244736602e-07 2.8774262972319775e-08 -0.0005702186026610434 -1.104412774566299e-07 -1.37927244736602e-07 -1.104412774566299e-07 -0.0005701695918105543" pbc="T T T"
Si       1.38371880       0.97843199       2.39666221       0.00009100      -0.00003090       0.00000024
Si       4.15114776       2.93529658       7.18998565       0.00010570      -0.00004248      -0.00001020
C       -0.00000031       0.00000004       0.00000014      -0.00000491       0.00000341      -0.00000477
O        1.21596896       0.85982175       4.79332463      -0.00215948      -0.00148878       0.00000981
O        4.31888178       3.05391302       4.79332395       0.00210506       0.00152585      -0.00000247
O        3.54315368       0.85982125       3.44972355       0.00103578      -0.00149450      -0.00184989
O        1.99169679       3.05391235       6.13692483      -0.00110328       0.00151354       0.00184494
O        1.99169618       3.05391232       3.44972402      -0.00110659       0.00150439      -0.00183713
O        3.54315446       0.85982200       6.13692552       0.00103530      -0.00149018       0.00184906
