9
Lattice="4.918145662757629 -1.2803708016711993e-08 2.8394927309366524 1.6393818801860547 4.636872134279248 2.8394927228451508 8.092785806630838e-09 -4.1875585873791875e-09 5.67898544785618" Properties=species:S:1:pos:R:3:forces:R:3 energy=-35.60816192626953 free_energy=-35.60816192626953 stress="-0.00011527286551427096 2.6611234105189396e-08 -1.5589797897064273e-08 2.6611234105189396e-08 -0.00011529220500960946 -1.8522388955943825e-08 -1.5589797897064273e-08 -1.8522388955943825e-08 -0.00011526142770890146" pbc="T T T"
Si       1.63938192       1.15921808       2.83949274      -0.00000031       0.00000037      -0.00000006
Si       4.91814570       3.47765406       8.51847820       0.00000111      -0.00000018       0.00000024
C        0.00000002       0.00000000      -0.00000012      -0.00000037       0.00000106       0.00000053
S        1.60783111       1.13690824       5.67898540      -0.00022305      -0.00015758      -0.00000002
S        4.94969640       3.49996384       5.67898543       0.00022230       0.00015693      -0.00000013
S        4.11423010       1.13690831       4.23191536       0.00011138      -0.00015683      -0.00019203
S        2.44329742       3.49996382       7.12605558      -0.00011078       0.00015657       0.00019125
S        2.44329743       3.49996378       4.23191538      -0.00011139       0.00015641      -0.00019155
S        4.11423010       1.13690834       7.12605563       0.00011102      -0.00015665       0.00019154
