9
Lattice="4.274381396629725 9.89075311908467e-08 2.467815171579779 1.4247938645398102 4.029925445092451 2.467815219363044 -7.764969099260325e-08 3.6156816976039673e-09 4.935630477652769" Properties=species:S:1:pos:R:3:forces:R:3 energy=-43.88495635986328 free_energy=-43.88495635986328 stress="-0.0010333169484511018 8.856370214971321e-08 1.6094170973701694e-07 8.856370214971321e-08 -0.0010334565304219723 -1.5043426060401544e-08 1.6094170973701694e-07 -1.5043426060401544e-08 -0.0010333445388823748" pbc="T T T"
Si       1.42479076       1.00747676       2.46781378      -0.00005123      -0.00007525      -0.00002643
Si       4.27437908       3.02244265       7.40344578      -0.00004135      -0.00003622       0.00000163
Ni       0.00000014       0.00000040      -0.00000009       0.00001846       0.00000843       0.00000330
O        1.46218202       1.03391815       4.93563171       0.00541803       0.00382482       0.00001066
O        4.23699317       2.99600831       4.93563050      -0.00540899      -0.00380217       0.00000229
O        3.54329160       1.03392171       3.73409901      -0.00269938       0.00386693       0.00466504
O        2.15588685       2.99600675       6.13716132       0.00273405      -0.00382310      -0.00466039
O        2.15588436       2.99601022       3.73410425       0.00269765      -0.00377788       0.00471735
O        3.54329289       1.03391751       6.13715709      -0.00266727       0.00381447      -0.00471296
