9
Lattice="5.117646029564015 1.3384032315867251e-08 2.954674305524444 1.7058820196147335 4.8249628310363075 2.95467431047554 6.326263993878264e-09 1.0537177304390594e-08 5.90934860009145" Properties=species:S:1:pos:R:3:forces:R:3 energy=-36.87666702270508 free_energy=-36.87666702270508 stress="0.0001232924551004544 4.221604754661712e-08 7.461685491705339e-09 4.221604754661712e-08 0.00012313728802837431 -2.167834800559376e-08 7.461685491705339e-09 -2.167834800559376e-08 0.0001231343630934134" pbc="T T T"
Si       1.70588147       1.20624069       2.95467550      -0.00000174      -0.00000072       0.00001115
Si       5.11764540       3.61872239       8.86402489      -0.00000944       0.00000206       0.00001832
Ni       0.00000004       0.00000005      -0.00000015      -0.00000139       0.00000195      -0.00000672
S        1.73030521       1.22350999       5.90934824       0.00115942       0.00081544      -0.00000464
S        5.09322311       3.60145251       5.90934780      -0.00115606      -0.00081561      -0.00000796
S        4.25249374       1.22351076       4.45316181      -0.00057716       0.00082149       0.00099717
S        2.57103467       3.60145241       7.36553457       0.00057827      -0.00081691      -0.00100290
S        2.57103486       3.60145222       4.45316192       0.00058345      -0.00081961       0.00099774
S        4.25249372       1.22351035       7.36553428      -0.00057537       0.00081169      -0.00100219
