9
Lattice="5.902291280108477 -2.391223825205956e-08 3.407689458162459 1.9674304358180101 5.564733530814952 3.407689403325886 4.958536619971593e-08 -3.2098653114395506e-08 6.815378830440541" Properties=species:S:1:pos:R:3:forces:R:3 energy=-32.530494689941406 free_energy=-32.530494689941406 stress="0.00015852859360165894 -7.02552194198347e-09 -1.502700186506445e-08 -7.02552194198347e-09 0.00015849155897740275 1.822675343987612e-10 -1.502700186506445e-08 1.822675343987612e-10 0.000158532420755364" pbc="T T T"
Si       1.96743049       1.39118335       3.40768952       0.00000009       0.00000045       0.00000050
Si       5.90229138       4.17354989      10.22306830       0.00000024      -0.00000103       0.00000050
Ni       0.00000009       0.00000020      -0.00000012      -0.00000094      -0.00000272      -0.00000146
Te       2.05529792       1.45331526       6.81537878      -0.00372680      -0.00263400      -0.00000014
Te       5.81442358       4.11141826       6.81537884       0.00372728       0.00263610      -0.00000059
Te       4.87464226       1.45331531       5.18762965       0.00186375      -0.00263357      -0.00322643
Te       2.99507931       4.11141842       8.44312801      -0.00186407       0.00263562       0.00322811
Te       2.99507950       4.11141812       5.18762970      -0.00186381       0.00263450      -0.00322721
Te       4.87464251       1.45331507       8.44312809       0.00186428      -0.00263536       0.00322672
