9
Lattice="5.546937628369406 -1.2511111145795442e-07 3.2025258640434173 1.8489791023498956 5.22970304857188 3.2025258452517624 -6.722719310886416e-08 -7.055171072043821e-08 6.405051844527578" Properties=species:S:1:pos:R:3:forces:R:3 energy=-34.3724250793457 free_energy=-34.3724250793457 stress="-7.816065772203729e-05 2.180885516622766e-08 1.537518912186897e-08 2.180885516622766e-08 -7.823102350812405e-05 2.2508826802436488e-08 1.537518912186897e-08 2.2508826802436488e-08 -7.813864067429677e-05" pbc="T T T"
Si       1.84897898       1.30742875       3.20252611      -0.00000129       0.00001832       0.00000136
Si       5.54693654       3.92227540       9.60757619      -0.00000642      -0.00001251      -0.00000865
Ni       0.00000011      -0.00000003      -0.00000016      -0.00000011       0.00000022      -0.00000051
Se       1.87518363       1.32595554       6.40505177       0.00534983       0.00378780      -0.00000010
Se       5.52073342       3.90374685       6.40505272      -0.00534843      -0.00379072       0.00000497
Se       4.60934568       1.32595548       4.82648270      -0.00267360       0.00378785       0.00463320
Se       2.78657162       3.90374709       7.98362173       0.00267842      -0.00379029      -0.00463006
Se       2.78657066       3.90374630       4.82648180       0.00267459      -0.00379282       0.00463116
Se       4.60934601       1.32595603       7.98362131      -0.00267311       0.00379214      -0.00463133
