9
Lattice="5.4262584204514726 -1.7293435327526333e-09 3.1328517815083377 1.8087527903693217 5.115925640911273 3.1328518071727975 -3.9276354721582405e-08 3.659849678865425e-09 6.265703631045325" Properties=species:S:1:pos:R:3:forces:R:3 energy=-33.91584014892578 free_energy=-33.91584014892578 stress="-3.9538444980280474e-05 -7.3416401846770896e-09 7.77788500272436e-09 -7.3416401846770896e-09 -3.95136303268373e-05 -4.2806764355418636e-08 7.77788500272436e-09 -4.2806764355418636e-08 -3.944916170439683e-05" pbc="T T T"
Si       1.80875270       1.27898167       3.13285251      -0.00000253       0.00000247       0.00000778
Si       5.42625911       3.83694474       9.39855530       0.00000538       0.00000281       0.00000045
P       -0.00000013      -0.00000006       0.00000001      -0.00000238      -0.00000229      -0.00000502
Se       1.86504105       1.31878338       6.26570315       0.00090180       0.00063893      -0.00000317
Se       5.36996988       3.79714204       6.26570378      -0.00090039      -0.00063771      -0.00000060
Se       4.49373777       1.31878325       4.74802490      -0.00045207       0.00063764       0.00078192
Se       2.74127317       3.79714218       7.78338218       0.00044932      -0.00063682      -0.00078125
Se       2.74127317       3.79714214       4.74802490       0.00044849      -0.00063759       0.00077941
Se       4.49373797       1.31878322       7.78338212      -0.00044747       0.00063269      -0.00077972
