9
Lattice="5.2423874920768645 1.5977830259484233e-07 3.0266939910348363 1.7474626271841465 4.942570445071349 3.0266940270879084 5.8197001569802616e-08 8.530728594510243e-08 6.053387881269544" Properties=species:S:1:pos:R:3:forces:R:3 energy=-35.622589111328125 free_energy=-35.622589111328125 stress="0.00016195351781789213 2.1615779388639567e-08 5.899105204321131e-08 2.1615779388639567e-08 0.00016190217866096646 -1.8301743454074426e-09 5.899105204321131e-08 -1.8301743454074426e-09 0.0001617615344002843" pbc="T T T"
Si       1.74746337       1.23564580       3.02669468       0.00000989       0.00003897       0.00001568
Si       5.24238890       3.70692680       9.08008649       0.00001581      -0.00001167       0.00005921
P       -0.00000010       0.00000005      -0.00000042       0.00000015       0.00000103      -0.00000070
S        1.74801979       1.23603739       6.05338733      -0.00228369      -0.00160509      -0.00000634
S        5.24183025       3.70653310       6.05338635       0.00227731       0.00159913      -0.00002663
S        4.36837776       1.23603762       4.54052274       0.00113824      -0.00159329      -0.00198102
S        2.62147136       3.70653290       7.56625210      -0.00115094       0.00159204       0.00196052
S        2.62147215       3.70653270       4.54052278      -0.00113833       0.00159329      -0.00198150
S        4.36837717       1.23603639       7.56625167       0.00113162      -0.00161445       0.00196129
