9
Lattice="3.9369426581883666 7.805361090584626e-08 2.272994865087678 1.3123142453964596 3.7117852938270346 2.2729949475147855 -4.644694990586979e-08 6.810922306689003e-08 4.545989810623835" Properties=species:S:1:pos:R:3:forces:R:3 energy=-52.69413375854492 free_energy=-52.69413375854492 stress="-0.00046922435285523534 7.677784452653214e-08 2.1888460821628541e-07 7.677784452653214e-08 -0.00046857568668201566 -8.048242250424664e-08 2.1888460821628541e-07 -8.048242250424664e-08 -0.0004696210671681911" pbc="T T T"
Si       1.31231417       0.92794633       2.27299495      -0.00000769      -0.00000067      -0.00001169
Si       3.93694271       2.78383910       6.81898473      -0.00000995       0.00000004      -0.00000802
P       -0.00000117       0.00000007      -0.00000171       0.00020793      -0.00002644       0.00030878
O        1.40893091       0.99626478       4.54598965       0.00572394       0.00404097       0.00002358
O        3.84032643       2.71552117       4.54598986      -0.00583377      -0.00414662       0.00001178
O        3.23247709       0.99626478       3.49316472      -0.00284640       0.00404833       0.00497901
O        2.01677932       2.71552136       5.59881511       0.00293457      -0.00415640      -0.00503811
O        2.01678002       2.71552027       3.49316552       0.00281223      -0.00397709       0.00487038
O        3.23247786       0.99626386       5.59881559      -0.00298028       0.00421686      -0.00513551
