9
Lattice="4.3147433928719625 3.1439640881735576e-08 2.491118369499703 1.4382478444830444 4.067980037292595 2.491118339678132 -3.3318571227669267e-07 -2.7212167668688853e-07 4.982237316093983" Properties=species:S:1:pos:R:3:forces:R:3 energy=-47.83530807495117 free_energy=-47.83530807495117 stress="3.245580228394829e-05 -1.1574094287425396e-06 1.6946677305895719e-06 -1.1574094287425396e-06 2.6473197067389265e-05 1.1777710824389942e-06 1.6946677305895719e-06 1.1777710824389942e-06 2.9465949410223402e-05" pbc="T T T"
Si       1.43825419       1.01698567       2.49111853       0.00013191      -0.00018985       0.00002309
Si       4.31473638       3.05099281       7.47337028      -0.00013410       0.00015501       0.00031516
S        0.00000017       0.00000002      -0.00000144      -0.00000027       0.00000654      -0.00003182
O        1.33388595       0.94319630       4.98223671      -0.00009942      -0.00014424      -0.00001622
O        4.41910481       3.12478389       4.98223183       0.00009775       0.00015157      -0.00011012
O        3.64780004       0.94319936       3.64629432       0.00004566      -0.00008482      -0.00016189
O        2.10519000       3.12478263       6.31817550      -0.00006348       0.00012511       0.00007296
O        2.10519417       3.12478265       3.64629405       0.00001055       0.00012547      -0.00016820
O        3.64779797       0.94319594       6.31817625       0.00001097      -0.00014514       0.00007868
