9
Lattice="5.358983786503358 2.759914112285597e-07 3.0940109296124754 1.7863281862058078 5.052498337320884 3.0940109345241864 2.5770185818996974e-09 7.837881266119371e-09 6.188021854761426" Properties=species:S:1:pos:R:3:forces:R:3 energy=-30.99728775024414 free_energy=-30.99728775024414 stress="3.844821185339242e-05 7.116504718851502e-08 1.538372096376861e-08 7.116504718851502e-08 3.859671778627671e-05 -3.203614085123263e-08 1.538372096376861e-08 -3.203614085123263e-08 3.8510414015036076e-05" pbc="T T T"
Si       1.78632724       1.26312452       3.09401162      -0.00000938      -0.00000475       0.00000363
Si       5.35898795       3.78937189       9.28203448       0.00004868      -0.00003032       0.00002565
Se      -0.00000002      -0.00000014       0.00000006      -0.00000110      -0.00000247      -0.00000307
S        1.81668329       1.28459191       6.18802107      -0.00118107      -0.00080168      -0.00000572
S        5.32862713       3.76790875       6.18802087       0.00116652       0.00082648      -0.00001449
S        4.45064210       1.28459028       4.66730593       0.00058538      -0.00081104      -0.00100631
S        2.69466890       3.76790768       7.70873687      -0.00060454       0.00082138       0.00099477
S        2.69466935       3.76790897       4.66730685      -0.00059259       0.00082505      -0.00099733
S        4.45064202       1.28459061       7.70873704       0.00058827      -0.00082269       0.00100300
