9
Lattice="4.912855301347776 4.386116411658936e-08 2.8364384230724413 1.6376184578120803 4.631884528225957 2.8364384530771107 1.3576086084788476e-08 4.634781071958275e-08 5.672876822630393" Properties=species:S:1:pos:R:3:forces:R:3 energy=-36.40599822998047 free_energy=-36.40599822998047 stress="9.762054105522111e-05 3.3121336784347477e-09 -1.2181904374131136e-09 3.3121336784347477e-09 9.758248779689893e-05 6.389060391853718e-10 -1.2181904374131136e-09 6.389060391853718e-10 9.759697422850877e-05" pbc="T T T"
Sn       1.63761836       1.15797123       2.83643854       0.00000023      -0.00000007       0.00000045
Sn       4.91285541       3.47391325       8.50931510      -0.00000051       0.00000009       0.00000001
Au       0.00000020       0.00000018      -0.00000009      -0.00000620      -0.00000682       0.00000241
F        1.73679904       1.22810246       5.67287681      -0.00418720      -0.00295989       0.00000019
F        4.81367467       3.40378206       5.67287693       0.00419514       0.00296557       0.00000006
F        4.04445566       1.22810269       4.34055060       0.00209610      -0.00296357      -0.00362903
F        2.50601794       3.40378208       7.00520305      -0.00209562       0.00296284       0.00362843
F        2.50601809       3.40378192       4.34055056      -0.00209660       0.00296420      -0.00363019
F        4.04445571       1.22810260       7.00520317       0.00209466      -0.00296232       0.00362781
