9
Lattice="6.612755526684165 -9.005748056638619e-09 3.817876160314441 2.2042518196209144 6.234565706948148 3.8178761847647666 -5.6459745552985855e-09 2.5953141839956764e-08 7.63575233040803" Properties=species:S:1:pos:R:3:forces:R:3 energy=-20.313392639160156 free_energy=-20.313392639160156 stress="-9.183087240671739e-05 -3.083639121825854e-09 -6.287027787266197e-09 -3.083639121825854e-09 -9.182796202367172e-05 -2.8512681105041793e-09 -6.287027787266197e-09 -2.8512681105041793e-09 -9.183986549032852e-05" pbc="T T T"
Sn       2.20425142       1.55864131       3.81787639      -0.00000110      -0.00000009       0.00000175
Sn       6.61275570       4.67592435      11.45362990       0.00000090       0.00000004       0.00000521
Au       0.00000005       0.00000018       0.00000012       0.00000040      -0.00000097      -0.00000038
I        2.30113267       1.62714652       7.63575219      -0.00204776      -0.00144730      -0.00000016
I        6.51587451       4.60741904       7.63575172       0.00204836       0.00144824      -0.00000206
I        5.46218933       1.62714678       5.81071542       0.00102437      -0.00144792      -0.00177382
I        3.35481794       4.60741926       9.46078874      -0.00102528       0.00144819       0.00177214
I        3.35481852       4.60741921       5.81071539      -0.00102407       0.00144842      -0.00177485
I        5.46218921       1.62714622       9.46078878       0.00102423      -0.00144865       0.00177219
