9
Lattice="6.558109787718665 -7.903830380973845e-08 3.7863264261376215 2.1860365292950377 6.183045120936827 3.786326412442444 -2.082375502245619e-09 -1.8245458117423456e-08 7.572652855881898" Properties=species:S:1:pos:R:3:forces:R:3 energy=-20.08443832397461 free_energy=-20.08443832397461 stress="1.4658829968539067e-05 1.0057821242526188e-08 3.692014027834034e-09 1.0057821242526188e-08 1.468169557483634e-05 -1.1167631264186184e-09 3.692014027834034e-09 -1.1167631264186184e-09 1.4694728633912746e-05" pbc="T T T"
Sn       2.18603707       1.54576180       3.78632625       0.00000176       0.00000139      -0.00000046
Sn       6.55810857       4.63728443      11.35897920      -0.00000521       0.00000216      -0.00000062
Ag      -0.00000034      -0.00000022       0.00000040       0.00000348       0.00000279      -0.00000300
I        2.27095957       1.60581028       7.57265286      -0.00055698      -0.00039628       0.00000016
I        6.47318743       4.57723455       7.57265307       0.00055510       0.00039236       0.00000014
I        5.42263023       1.60581015       5.75303463       0.00027749      -0.00039317      -0.00048112
I        3.32151660       4.57723415       9.39227114      -0.00027763       0.00039365       0.00048374
I        3.32151642       4.57723435       5.75303425      -0.00027608       0.00039211      -0.00048217
I        5.42262970       1.60581060       9.39227098       0.00027812      -0.00039496       0.00048339
