9
Lattice="6.14198721341935 -4.364658505890314e-08 3.5460779156024316 2.0473290423985113 5.7907210834624765 3.5460778941091666 9.147354308104183e-09 -1.9855558385727588e-08 7.092155815361142" Properties=species:S:1:pos:R:3:forces:R:3 energy=-23.3691463470459 free_energy=-23.3691463470459 stress="-3.1682262488175184e-05 -4.754764137970824e-09 1.6449227757675544e-08 -4.754764137970824e-09 -3.1680971005698666e-05 5.2863811106362846e-09 1.6449227757675544e-08 5.2863811106362846e-09 -3.166432725265622e-05" pbc="T T T"
Sn       2.04732908       1.44768003       3.54607837       0.00000137      -0.00000124       0.00000420
Sn       6.14198679       4.34304012      10.63823264      -0.00000230      -0.00000350      -0.00000631
Au      -0.00000019       0.00000013      -0.00000145       0.00000563       0.00000113       0.00001847
Br       2.10611111       1.48924548       7.09215569      -0.00526901      -0.00372461      -0.00000086
Br       6.08320552       4.30147599       7.09215624       0.00526327       0.00372191       0.00000343
Br       5.08893130       1.48924576       5.37002374       0.00263570      -0.00372797      -0.00456551
Br       3.10038464       4.30147605       8.81428861      -0.00262872       0.00372173       0.00455730
Br       3.10038465       4.30147523       5.37002396      -0.00263722       0.00372860      -0.00456661
Br       5.08893217       1.48924530       8.81428875       0.00263124      -0.00371609       0.00455584
