9
Lattice="6.152132411820357 -3.2531129629314146e-08 3.5519352974766023 2.0507107812062695 5.80028605311063 3.551935283729651 -2.7279662107535562e-08 -3.612610668614021e-08 7.103870642202918" Properties=species:S:1:pos:R:3:forces:R:3 energy=-23.29684829711914 free_energy=-23.29684829711914 stress="-8.279786561615765e-05 5.268809832870147e-09 -1.5011294429712052e-09 5.268809832870147e-09 -8.278590394183993e-05 -9.81734693539238e-10 -1.5011294429712052e-09 -9.81734693539238e-10 -8.279603207483888e-05" pbc="T T T"
Sn       2.05071093       1.45007172       3.55193544       0.00000013       0.00000139      -0.00000005
Sn       6.15213235       4.35021465      10.65580575       0.00000116       0.00000132      -0.00000108
Ag      -0.00000019      -0.00000000       0.00000039       0.00000221       0.00000150      -0.00000015
Br       2.12638839       1.50358348       7.10387067      -0.00418377      -0.00295859      -0.00000035
Br       6.07645499       4.29670248       7.10387061       0.00418193       0.00295590       0.00000080
Br       5.08893838       1.50358343       5.39344157       0.00209037      -0.00295811      -0.00362213
Br       3.11390481       4.29670217       8.81429953      -0.00209113       0.00295709       0.00362286
Br       3.11390483       4.29670258       5.39344155      -0.00209204       0.00295649      -0.00362235
Br       5.08893818       1.50358342       8.81429937       0.00209109      -0.00295695       0.00362239
