9
Lattice="5.606871309006487 1.5092316987625208e-08 3.2371286372617627 1.868957110530464 5.286209168761666 3.2371286488679596 -2.8226906397294787e-08 -5.744793594187426e-09 6.474257323413975" Properties=species:S:1:pos:R:3:forces:R:3 energy=-30.69007110595703 free_energy=-30.69007110595703 stress="-5.8333029301138595e-05 -1.6788286316682388e-09 -4.0374589782565806e-10 -1.6788286316682388e-09 -5.834228068124503e-05 2.6958362209228426e-09 -4.0374589782565806e-10 2.6958362209228426e-09 -5.833751492900774e-05" pbc="T T T"
Sn       1.86895722       1.32155198       3.23712909      -0.00000034      -0.00000118       0.00000138
Sn       5.60687145       3.96465717       9.71138631       0.00000105       0.00000142       0.00000096
Be       0.00000010       0.00000003       0.00000009      -0.00000007       0.00000008       0.00000012
Cl       1.82267179       1.28882354       6.47425705       0.00226137       0.00159937      -0.00000081
Cl       5.65315648       3.99738573       6.47425718      -0.00226203      -0.00160000      -0.00000079
Cl       4.69553529       1.28882340       4.81560858      -0.00113094       0.00159991       0.00195916
Cl       2.78029306       3.99738559       8.13290573       0.00112991      -0.00159886      -0.00195964
Cl       2.78029279       3.99738568       4.81560869       0.00113060      -0.00159983       0.00195912
Cl       4.69553528       1.28882353       8.13290583      -0.00112963       0.00159912      -0.00195989
