9
Lattice="5.938936889161623 -1.2924170216526117e-08 3.428846854335654 1.9796456172831394 5.599283434861324 3.4288468547727975 1.6240028079426863e-10 6.501740481487838e-10 6.857693708389884" Properties=species:S:1:pos:R:3:forces:R:3 energy=-26.739274978637695 free_energy=-26.739274978637695 stress="-2.4839322577463463e-05 8.962509845389377e-09 -5.281973081139313e-09 8.962509845389377e-09 -2.481797491782345e-05 3.0823374963517836e-09 -5.281973081139313e-09 3.0823374963517836e-09 -2.4812667106743902e-05" pbc="T T T"
Sn       1.97964556       1.39982099       3.42884704      -0.00000025      -0.00000120       0.00000035
Sn       5.93893699       4.19946354      10.28654060       0.00000117       0.00000279       0.00000123
Be       0.00000011       0.00000012       0.00000005      -0.00000021      -0.00000003      -0.00000027
Br       1.94699590       1.37673374       6.85769366       0.00001892       0.00001266      -0.00000065
Br       5.97158646       4.22254918       6.85769368      -0.00001426      -0.00001068      -0.00000085
Br       4.96543897       1.37673378       5.11499501      -0.00001063       0.00001108       0.00001489
Br       2.95314355       4.22254928       8.60039249       0.00000723      -0.00001162      -0.00001439
Br       2.95314340       4.22254935       5.11499491       0.00000758      -0.00001311       0.00001465
Br       4.96543904       1.37673370       8.60039232      -0.00000944       0.00001017      -0.00001514
