9
Lattice="6.456090103194517 3.012756035218532e-08 3.727425282995067 2.152030067310267 6.08685997920821 3.727425275187665 1.407005595806483e-09 -8.567126228032698e-09 7.454850563553059" Properties=species:S:1:pos:R:3:forces:R:3 energy=-22.513622283935547 free_energy=-22.513622283935547 stress="2.791449696815107e-05 3.1882385620463083e-09 6.106195105104462e-09 3.1882385620463083e-09 2.790289363474585e-05 3.133098669394485e-09 6.106195105104462e-09 3.133098669394485e-09 2.7899701308342628e-05" pbc="T T T"
Sn       2.15202970       1.52171565       3.72742530      -0.00000181       0.00000232       0.00000058
Sn       6.45609023       4.56514475      11.18227705       0.00000118      -0.00000160       0.00000348
Be      -0.00000008      -0.00000006       0.00000019       0.00000028      -0.00000049      -0.00000062
I        2.11777929       1.49749617       7.45485057      -0.00278127      -0.00196515      -0.00000070
I        6.49034117       4.58936370       7.45485004       0.00278123       0.00196542      -0.00000151
I        5.39720057       1.49749639       5.56147556       0.00139090      -0.00196545      -0.00240879
I        3.21091962       4.58936366       9.34822511      -0.00139117       0.00196641       0.00240830
I        3.21091979       4.58936383       5.56147571      -0.00139006       0.00196505      -0.00240815
I        5.39720043       1.49749592       9.34822492       0.00139069      -0.00196656       0.00240757
