9
Lattice="5.68761430313486 -5.998331194135196e-09 3.283745547149196 1.89587142970003 5.3623338431182255 3.2837455454570375 1.4670470256795947e-08 8.301015788038609e-09 6.567491068888506" Properties=species:S:1:pos:R:3:forces:R:3 energy=-32.02473831176758 free_energy=-32.02473831176758 stress="-6.814762309659272e-05 1.7524600437468507e-08 3.441680718196949e-09 1.7524600437468507e-08 -6.812037463532761e-05 -5.143874215463029e-09 3.441680718196949e-09 -5.143874215463029e-09 -6.814328662585467e-05" pbc="T T T"
Sn       1.89587104       1.34058346       3.28374615      -0.00000134       0.00000071       0.00000153
Sn       5.68761496       4.02175031       9.85123531       0.00000120      -0.00000033      -0.00000446
Co       0.00000020       0.00000015      -0.00000014      -0.00000201      -0.00000050       0.00000038
Cl       1.87372437       1.32492313       6.56749117      -0.00265723      -0.00187936      -0.00000099
Cl       5.70976114       4.03741040       6.56749175       0.00266093       0.00188164       0.00000133
Cl       4.75075222       1.32492308       4.90643827       0.00132766      -0.00188069      -0.00230059
Cl       2.83273364       4.03741074       8.22854391      -0.00132933       0.00187990       0.00230113
Cl       2.83273301       4.03741058       4.90643821      -0.00132973       0.00187786      -0.00229955
Cl       4.75075249       1.32492359       8.22854394       0.00132994      -0.00187925       0.00230135
