9
Lattice="5.701061571309839 3.6778506994963846e-08 3.291509494552912 1.9003538911876519 5.375012369935289 3.2915094955761264 6.942968932671817e-08 5.034735330435415e-08 6.583018868850023" Properties=species:S:1:pos:R:3:forces:R:3 energy=-37.12509536743164 free_energy=-37.12509536743164 stress="0.00028373594977892935 -2.389534126123749e-09 -1.4865867647984032e-08 -2.389534126123749e-09 0.0002837340289261192 -7.464575069171531e-10 -1.4865867647984032e-08 -7.464575069171531e-10 0.0002837103675119579" pbc="T T T"
Sn       1.90035403       1.34375358       3.29150964      -0.00000026       0.00000076      -0.00000102
Sn       5.70106169       4.03125962       9.87452872       0.00000132       0.00000023       0.00000007
Co       0.00000018       0.00000010      -0.00000043      -0.00000156      -0.00000102       0.00000364
Se       1.89161261       1.33757204       6.58301869      -0.00695194      -0.00491650      -0.00000052
Se       5.70980272       4.03744025       6.58301903       0.00695296       0.00491574      -0.00000057
Se       4.75525519       1.33757206       4.92969411       0.00347581      -0.00491693      -0.00602145
Se       2.84616015       4.03744014       8.23634373      -0.00347646       0.00491687       0.00602217
Se       2.84616020       4.03744008       4.92969408      -0.00347560       0.00491551      -0.00602204
Se       4.75525536       1.33757198       8.23634389       0.00347573      -0.00491495       0.00601984
