9
Lattice="6.285416878559163 -2.0581670645405882e-08 3.6288871297738714 2.0951389090702617 5.925947758496549 3.6288871835451495 2.756465274928712e-09 6.780521565367452e-08 7.257774254773405" Properties=species:S:1:pos:R:3:forces:R:3 energy=-26.826889038085938 free_energy=-26.826889038085938 stress="0.00013314851094037294 -5.045178053109112e-09 -9.599594008591339e-09 -5.045178053109112e-09 0.00013318263518158346 2.6902072236545393e-10 -9.599594008591339e-09 2.6902072236545393e-10 0.0001331825478700921" pbc="T T T"
Sn       2.09513919       1.48148635       3.62888701       0.00000094      -0.00000497      -0.00000098
Sn       6.28541669       4.44446104      10.88666175      -0.00000011       0.00000110       0.00000085
Ca      -0.00000014      -0.00000027       0.00000035       0.00000167       0.00000353      -0.00000500
Br       2.21601752       1.56696095       7.25777443      -0.00566320      -0.00400587      -0.00000024
Br       6.16453851       4.35898723       7.25777418       0.00566043       0.00400444      -0.00000030
Br       5.17740810       1.56696100       5.54801468       0.00283120      -0.00400417      -0.00490427
Br       3.20314783       4.35898682       8.96753356      -0.00283297       0.00400795       0.00490709
Br       3.20314761       4.35898719       5.54801459      -0.00282936       0.00400382      -0.00490294
Br       5.17740784       1.56696087       8.96753375       0.00283142      -0.00400580       0.00490598
