9
Lattice="6.580820931343855 -9.759726851442057e-08 3.7994388787984126 2.193606845220795 6.204457600576438 3.7994389478694237 -3.0765417906999e-08 6.283997028925103e-08 7.59887781088406" Properties=species:S:1:pos:R:3:forces:R:3 energy=-28.570199966430664 free_energy=-28.570199966430664 stress="8.218975381169003e-06 -1.968853347023014e-08 4.821885113415192e-10 -1.968853347023014e-08 8.239323506131768e-06 1.5695383881464409e-09 4.821885113415192e-10 1.5695383881464409e-09 8.248574886238202e-06" pbc="T T T"
Sn       2.19360660       1.55111454       3.79943843      -0.00000120       0.00000105      -0.00000310
Sn       6.58082129       4.65334358      11.39831715       0.00000284       0.00000140       0.00000245
Cr      -0.00000040      -0.00000037       0.00000024       0.00000355       0.00000232      -0.00000291
I        2.17359908       1.53696682       7.59887823      -0.00161398      -0.00114056       0.00000048
I        6.60082917       4.66749105       7.59887765       0.00160982       0.00113785      -0.00000037
I        5.49402136       1.53696657       5.68183118       0.00080639      -0.00114128      -0.00139637
I        3.28040625       4.66749049       9.51592422      -0.00080841       0.00114163       0.00139800
I        3.28040643       4.66749100       5.68183123      -0.00080665       0.00114022      -0.00139630
I        5.49402116       1.53696657       9.51592417       0.00080760      -0.00114261       0.00139814
