9
Lattice="6.049278491236752 -4.9169802974968254e-08 3.492552674880651 2.016426153285722 5.703314590172684 3.4925526127038222 3.413176544678798e-08 -5.2016030400296624e-08 6.985105290643342" Properties=species:S:1:pos:R:3:forces:R:3 energy=-28.339466094970703 free_energy=-28.339466094970703 stress="7.285760511877015e-05 -5.286235449375454e-09 -3.929544689640352e-09 -5.286235449375454e-09 7.287863991223276e-05 -2.184744385402837e-09 -3.929544689640352e-09 -2.184744385402837e-09 7.287769403774291e-05" pbc="T T T"
Sn       2.01642599       1.42582873       3.49255232      -0.00000129       0.00000089      -0.00000139
Sn       6.04927736       4.27748551      10.47765761      -0.00000446      -0.00000196      -0.00000202
Co       0.00000041      -0.00000030       0.00000000      -0.00000302       0.00000301      -0.00000095
Br       2.00336701       1.41659407       6.98510552       0.00504705       0.00356926       0.00000079
Br       6.06233768       4.28671989       6.98510522      -0.00504503      -0.00356646       0.00000074
Br       5.04759501       1.41659456       5.22751984      -0.00252131       0.00356625       0.00436658
Br       3.01811012       4.28672044       8.74269162       0.00252551      -0.00356891      -0.00437029
Br       3.01811005       4.28672015       5.22751908       0.00252379      -0.00356869       0.00437095
Br       5.04759505       1.41659489       8.74269110      -0.00252117       0.00356656      -0.00436438
