9
Lattice="4.73933271483751 -6.527954530394306e-08 2.7362550955747547 1.5797775593067607 4.46828568620717 2.736255010287859 4.5776567479480474e-08 -7.208573499417933e-08 5.472510111862099" Properties=species:S:1:pos:R:3:forces:R:3 energy=-43.05500793457031 free_energy=-43.05500793457031 stress="0.0007710272911936045 -6.224065174365023e-08 1.868702748097917e-09 -6.224065174365023e-08 0.0007710437057539821 1.2235749302647037e-08 1.868702748097917e-09 1.2235749302647037e-08 0.0007711227517575026" pbc="T T T"
Sn       1.57977774       1.11707137       2.73625510      -0.00000028      -0.00000003       0.00000029
Sn       4.73933262       3.35121433       8.20876540       0.00000032       0.00000018       0.00000002
Co      -0.00000002      -0.00000054      -0.00000001       0.00000130       0.00001081      -0.00000017
F        1.54409904       1.09184279       5.47250994      -0.00372892      -0.00263740       0.00000016
F        4.77501157       3.37644277       5.47251003       0.00372397       0.00263380       0.00000080
F        3.96728295       1.09184328       4.07348452       0.00186567      -0.00264026      -0.00323401
F        2.35182728       3.37644246       6.87153561      -0.00186425       0.00263636       0.00323006
F        2.35182710       3.37644264       4.07348447      -0.00186370       0.00263593      -0.00322916
F        3.96728304       1.09184311       6.87153573       0.00186565      -0.00263934       0.00323208
