9
Lattice="6.064891402937672 5.883242345823272e-09 3.5015664744764483 2.0216305000452754 5.718034296904976 3.501566427966403 -9.775417757103834e-08 -1.2608559517936182e-07 7.003133118268101" Properties=species:S:1:pos:R:3:forces:R:3 energy=-24.818225860595703 free_energy=-24.818225860595703 stress="3.5065786505583674e-05 2.81857932549201e-08 -3.449715846315371e-09 2.81857932549201e-08 3.504973210510798e-05 8.443698185089943e-09 -3.449715846315371e-09 8.443698185089943e-09 3.503702464513481e-05" pbc="T T T"
Sn       2.02163070       1.42950825       3.50156605       0.00000147      -0.00000060      -0.00000184
Sn       6.06489250       4.28852704      10.50469831       0.00000349       0.00000535      -0.00000355
C       -0.00000012      -0.00000028       0.00000051      -0.00000026       0.00000031      -0.00000078
Br       2.02113624       1.42915893       7.00313317       0.00144266       0.00101911       0.00000097
Br       6.06538550       4.28887529       7.00313337      -0.00144239      -0.00101955       0.00000132
Br       5.05432308       1.42915814       5.25192178      -0.00072336       0.00101911       0.00125258
Br       3.03219823       4.28887514       8.75434458       0.00072087      -0.00102168      -0.00125083
Br       3.03219809       4.28887561       5.25192175       0.00072056      -0.00102173       0.00125277
Br       5.05432296       1.42915859       8.75434454      -0.00072300       0.00101963      -0.00125067
