9
Lattice="5.749535755175264 -4.3560075982261084e-08 3.3194960998228398 1.916511924787178 5.420713948066589 3.3194960176122845 1.1172053299329786e-07 -2.168853204212237e-08 6.638992006139985" Properties=species:S:1:pos:R:3:forces:R:3 energy=-36.7717399597168 free_energy=-36.7717399597168 stress="1.5730189261375926e-05 -1.0125694061002832e-08 3.569593687302586e-08 -1.0125694061002832e-08 1.5691539374529384e-05 -5.797627267156713e-08 3.569593687302586e-08 -5.797627267156713e-08 1.5685671314713545e-05" pbc="T T T"
Sn       1.91651205       1.35517833       3.31949659       0.00000155      -0.00000039       0.00000334
Sn       5.74953569       4.06553512       9.95848847      -0.00000122      -0.00000099       0.00000159
Cr       0.00000027      -0.00000018      -0.00000181      -0.00000260       0.00000240       0.00002307
Cl       1.89032500       1.33666153       6.63899192       0.00004004       0.00002993      -0.00000059
Cl       5.77572271       4.08405241       6.63899196      -0.00003906      -0.00003006      -0.00000029
Cl       4.80437279       1.33666169       4.95656561      -0.00001732       0.00002493       0.00002963
Cl       2.86167433       4.08405324       8.32141915       0.00002477      -0.00003573      -0.00004392
Cl       2.86167498       4.08405227       4.95656577       0.00001501      -0.00002228       0.00002628
Cl       4.80437344       1.33666115       8.32141884      -0.00002111       0.00003207      -0.00003908
