9
Lattice="6.8684951720694185 1.0196210287296564e-07 3.965527429748106 2.289498494004969 6.475679110241366 3.9655274173045854 2.303350892365499e-08 1.046994874650143e-09 7.931054819601028" Properties=species:S:1:pos:R:3:forces:R:3 energy=-22.83704948425293 free_energy=-22.83704948425293 stress="3.664726682472974e-05 1.1203224126177247e-08 8.582272670309976e-09 1.1203224126177247e-08 3.6628673115046695e-05 -2.1233123703723322e-08 8.582272670309976e-09 -2.1233123703723322e-08 3.6653716961154714e-05" pbc="T T T"
Sn       2.28949942       1.61892000       3.96552743       0.00000487      -0.00000043      -0.00000077
Sn       6.86849489       4.85675874      11.89658230      -0.00000054      -0.00000322       0.00000231
Ca      -0.00000025       0.00000019      -0.00000019       0.00000280      -0.00000032       0.00000205
I        2.44561833       1.72931371       7.93105494      -0.00211799      -0.00149614      -0.00000033
I        6.71237528       4.74636592       7.93105455       0.00211465       0.00149675      -0.00000048
I        5.64568574       1.72931386       6.08349486       0.00105566      -0.00149485      -0.00183384
I        3.51230767       4.74636543       9.77861476      -0.00105705       0.00149550       0.00183245
I        3.51230778       4.74636525       6.08349495      -0.00105815       0.00149707      -0.00183441
I        5.64568586       1.72931379       9.77861507       0.00105575      -0.00149445       0.00183291
