9
Lattice="6.040143834074451 8.780960859779569e-09 3.487278693798144 2.0133812736506638 5.694702365575358 3.487278715713633 -1.4585322181318849e-08 1.6527479763024147e-08 6.974557412858884" Properties=species:S:1:pos:R:3:forces:R:3 energy=-25.140670776367188 free_energy=-25.140670776367188 stress="-0.00013301651051733643 -3.975138884726448e-09 -6.346462244621875e-10 -3.975138884726448e-09 -0.0001330020313616842 9.339374412720147e-11 -6.346462244621875e-10 9.339374412720147e-11 -0.000132995774038136" pbc="T T T"
Sn       2.01338170       1.42367581       3.48727851       0.00000215       0.00000046      -0.00000158
Sn       6.04014402       4.27102655      10.46183677       0.00000058      -0.00000009       0.00000317
Cu      -0.00000016      -0.00000022      -0.00000009       0.00000149       0.00000179       0.00000021
Br       2.03195891       1.43681196       6.97455745      -0.00353947      -0.00250234       0.00000002
Br       6.02156664       4.25789095       6.97455711       0.00353420       0.00249892      -0.00000119
Br       5.02416450       1.43681184       5.24700652       0.00176904      -0.00250008      -0.00306372
Br       3.02936020       4.25789032       8.70210824      -0.00176858       0.00250114       0.00306290
Br       3.02936041       4.25789067       5.24700651      -0.00176801       0.00250106      -0.00306312
Br       5.02416417       1.43681170       8.70210827       0.00176868      -0.00250089       0.00306327
