9
Lattice="4.932446913646049 2.2755796510617972e-07 2.8477492771987616 1.6441493040459718 4.650354731565155 2.847749072319915 1.3703399354312508e-07 -1.5402667517140584e-07 5.695498317047662" Properties=species:S:1:pos:R:3:forces:R:3 energy=-39.8367805480957 free_energy=-39.8367805480957 stress="9.221557411365211e-05 -8.509675630818947e-09 1.0422532170650811e-08 -8.509675630818947e-09 9.232296724803746e-05 -5.282220527647041e-08 1.0422532170650811e-08 -5.282220527647041e-08 9.230006980942562e-05" pbc="T T T"
Sn       1.64414968       1.16258849       2.84774922      -0.00000101      -0.00000127       0.00000001
Sn       4.93244719       3.48776582       8.54324738      -0.00000026      -0.00000166       0.00000053
C       -0.00000062      -0.00000178       0.00000049      -0.00001154      -0.00001787      -0.00000047
F        1.36949762       0.96838093       5.69549841      -0.00671178      -0.00474875       0.00000159
F        5.20710144       3.68197547       5.69549829       0.00672263       0.00475681       0.00000011
F        4.24769834       0.96838065       4.03376836       0.00336036      -0.00475098      -0.00581726
F        2.32889710       3.68197430       7.35722907      -0.00335769       0.00475390       0.00582226
F        2.32889686       3.68197469       4.03376747      -0.00336042       0.00476058      -0.00582635
F        4.24769819       0.96838056       7.35722786       0.00335954      -0.00475100       0.00581954
