9
Lattice="5.878520578851786 9.443436504756971e-09 3.3939654202219054 1.9595068876939854 5.542322415358722 3.3939653870126794 6.881645221321973e-09 -3.580676516820762e-08 6.787930828524454" Properties=species:S:1:pos:R:3:forces:R:3 energy=-26.297590255737305 free_energy=-26.297590255737305 stress="5.7136890973197296e-05 5.319259255287534e-09 -5.395694113730087e-09 5.319259255287534e-09 5.7112138165393844e-05 -3.160886663522433e-09 -5.395694113730087e-09 -3.160886663522433e-09 5.711289122700691e-05" pbc="T T T"
Sn       1.95950688       1.38558182       3.39396568      -0.00000012       0.00000777       0.00000138
Sn       5.87852068       4.15674213      10.18189668       0.00000130       0.00000125       0.00000076
Cd      -0.00000012      -0.00000021      -0.00000000       0.00000290       0.00000108      -0.00000241
Cl       2.03560880       1.43939277       6.78793084      -0.00166684      -0.00117935      -0.00000117
Cl       5.80241916       4.10292950       6.78793056       0.00166403       0.00117351      -0.00000127
Cl       4.86071637       1.43939224       5.15685405       0.00083095      -0.00117658      -0.00144045
Cl       2.97731088       4.10292951       8.41900749      -0.00083326       0.00117660       0.00144366
Cl       2.97731112       4.10292937       5.15685366      -0.00083171       0.00117282      -0.00144202
Cl       4.86071616       1.43939240       8.41900753       0.00083264      -0.00117706       0.00144160
