9
Lattice="6.167248391500778 -1.0584291965426723e-07 3.5606625525482984 2.0557494083402394 5.8145374509471415 3.5606624758248495 3.5117115041024575e-08 -6.913510579977199e-08 7.121325044271946" Properties=species:S:1:pos:R:3:forces:R:3 energy=-36.186180114746094 free_energy=-36.186180114746094 stress="-9.289822628488764e-05 -2.3250333214264174e-08 1.548981742871547e-08 -2.3250333214264174e-08 -9.288063301937655e-05 -1.8076860897053848e-08 1.548981742871547e-08 -1.8076860897053848e-08 -9.285755368182436e-05" pbc="T T T"
Sn       2.05574945       1.45363447       3.56066246      -0.00000020       0.00000042      -0.00000004
Sn       6.16724829       4.36090276      10.68198741       0.00000006       0.00000027       0.00000009
Cr      -0.00000006       0.00000018       0.00000001       0.00000193      -0.00000183      -0.00000158
Te       2.14009413       1.51327494       7.12132500      -0.00214435      -0.00151623       0.00000019
Te       6.08290384       4.30126235       7.12132500       0.00214408       0.00151516      -0.00000016
Te       5.09720123       1.51327480       5.41403835       0.00107220      -0.00151609      -0.00185685
Te       3.12579663       4.30126235       8.82861175      -0.00107339       0.00151785       0.00186007
Te       3.12579660       4.30126227       5.41403854      -0.00107377       0.00151845      -0.00186059
Te       5.09720125       1.51327495       8.82861178       0.00107341      -0.00151792       0.00185882
