9
Lattice="4.960700820859821 -6.137002329226124e-08 2.86406206695472 1.6535669008014704 4.6769934260224915 2.864062035128149 1.263799492725313e-07 5.038469535240911e-08 5.728123915012914" Properties=species:S:1:pos:R:3:forces:R:3 energy=-42.480140686035156 free_energy=-42.480140686035156 stress="0.00023003634123597294 -1.7588602574392098e-08 4.3098569157962174e-09 -1.7588602574392098e-08 0.0002300489431945607 5.566984651039775e-09 4.3098569157962174e-09 5.566984651039775e-09 0.00023004542163107544" pbc="T T T"
Sn       1.65356679       1.16924884       2.86406225       0.00000018       0.00000174       0.00000048
Sn       4.96070089       3.50774491       8.59218621      -0.00000019       0.00000062       0.00000248
Ca       0.00000012      -0.00000005       0.00000022       0.00000178       0.00000171       0.00000009
F        1.73539478       1.22710906       5.72812392      -0.00031687      -0.00022404      -0.00000146
F        4.87887338       3.44988434       5.72812381       0.00031431       0.00022069       0.00000015
F        4.09300368       1.22710947       4.36695768       0.00015882      -0.00022319      -0.00027430
F        2.52126395       3.44988395       7.08929024      -0.00015881       0.00022283       0.00027423
F        2.52126426       3.44988401       4.36695775      -0.00015914       0.00022215      -0.00027493
F        4.09300360       1.22710913       7.08928997       0.00016005      -0.00022252       0.00027333
