9
Lattice="4.681517401825695 -1.4887087511526697e-08 2.70287532188116 1.560505821152296 4.413776819384539 2.702875261987821 6.438919977440407e-08 -2.782400219291794e-08 5.405750532236928" Properties=species:S:1:pos:R:3:forces:R:3 energy=-52.593624114990234 free_energy=-52.593624114990234 stress="-5.291564229992218e-05 1.7029659460376934e-08 3.6381909040983373e-08 1.7029659460376934e-08 -5.294404400046915e-05 5.271345671076233e-08 3.6381909040983373e-08 5.271345671076233e-08 -5.284591679810546e-05" pbc="T T T"
Sn       1.56050640       1.10344405       2.70287567       0.00000353      -0.00000160       0.00000005
Sn       4.68151759       3.31033226       8.10862549       0.00000118      -0.00000035      -0.00000348
Cr      -0.00000003      -0.00000011      -0.00000009      -0.00000011       0.00000182      -0.00000120
O        1.51405452       1.07059867       5.40575055      -0.00146510      -0.00103473      -0.00000110
O        4.72796848       3.34317861       5.40575058       0.00145872       0.00103087       0.00000171
O        3.92448982       1.07059802       4.01408512       0.00073001      -0.00103181      -0.00126685
O        2.31753327       3.34317857       6.79741598      -0.00072979       0.00103565       0.00126785
O        2.31753319       3.34317860       4.01408508      -0.00073114       0.00103331      -0.00126633
O        3.92448990       1.07059840       6.79741621       0.00073200      -0.00103324       0.00126910
