9
Lattice="6.406351554432149 1.4539499792565119e-07 3.6987087958197122 2.1354506426627355 6.039966149768551 3.698708817575997 1.1188426093743974e-08 3.4557319904634293e-08 7.397417572260486" Properties=species:S:1:pos:R:3:forces:R:3 energy=-22.39933967590332 free_energy=-22.39933967590332 stress="-4.179194729658775e-05 -4.58032456407409e-09 3.4183509356466857e-09 -4.58032456407409e-09 -4.179206371190958e-05 5.707216366168666e-10 3.4183509356466857e-09 5.707216366168666e-10 -4.1801173210842535e-05" pbc="T T T"
Sn       2.13545124       1.50999258       3.69870871       0.00000321       0.00000369      -0.00000041
Sn       6.40635116       4.52997400      11.09612692      -0.00000237      -0.00000226       0.00000098
C        0.00000017      -0.00000009       0.00000004       0.00000034      -0.00000010      -0.00000008
I        2.13552134       1.51004188       7.39741757       0.00622973       0.00440575       0.00000013
I        6.40628081       4.52992436       7.39741739      -0.00623009      -0.00440627       0.00000013
I        5.33859073       1.51004210       5.54812430      -0.00311549       0.00440612       0.00539365
I        3.20321124       4.52992433       9.24671084       0.00311537      -0.00440679      -0.00539422
I        3.20321145       4.52992430       5.54812424       0.00311539      -0.00440615       0.00539392
I        5.33859073       1.51004184       9.24671078      -0.00311607       0.00440595      -0.00539425
