9
Lattice="4.974199770856954 2.7384765016915587e-08 2.8718555626225157 1.658066602426381 4.689720543315148 2.871855586313304 -5.091856137603253e-08 -6.989694327193015e-09 5.7437112134385355" Properties=species:S:1:pos:R:3:forces:R:3 energy=-37.182071685791016 free_energy=-37.182071685791016 stress="0.00022096264001447707 5.798663949008187e-08 1.8542676727406615e-08 5.798663949008187e-08 0.0002209142840001732 4.0757409891512e-08 1.8542676727406615e-08 4.0757409891512e-08 0.00022089891717769206" pbc="T T T"
Sn       1.65806717       1.17242982       2.87185568       0.00000324      -0.00000027       0.00000069
Sn       4.97420002       3.51729031       8.61556669       0.00000081      -0.00000174      -0.00000055
Cd      -0.00000003      -0.00000002       0.00000014       0.00000025      -0.00000289       0.00000395
F        1.74963171       1.23717691       5.74371101      -0.00017783      -0.00012508       0.00000023
F        4.88263404       3.45254432       5.74371108       0.00017837       0.00012740       0.00000014
F        4.09938359       1.23717655       4.38708124       0.00008740      -0.00012594      -0.00015372
F        2.53288258       3.45254387       7.10034097      -0.00008804       0.00012493       0.00015259
F        2.53288241       3.45254381       4.38708131      -0.00009012       0.00012568      -0.00015399
F        4.09938365       1.23717674       7.10034139       0.00008592      -0.00012243       0.00015092
