9
Lattice="4.926529023356388 -5.8376637468841856e-08 2.84433295821782 1.6421763170974903 4.644775970106745 2.8443329044953027 3.499238604159772e-08 -4.105302381129895e-08 5.688665855827026" Properties=species:S:1:pos:R:3:forces:R:3 energy=-47.446388244628906 free_energy=-47.446388244628906 stress="8.794812310952693e-05 9.560134905939321e-09 3.9133891682752164e-09 9.560134905939321e-09 8.795669418759644e-05 -1.486314893384133e-08 3.9133891682752164e-09 -1.486314893384133e-08 8.79941726452671e-05" pbc="T T T"
Sn       1.64217653       1.16119408       2.84433294      -0.00000051      -0.00000023       0.00000011
Sn       4.92652892       3.48358188       8.53299866       0.00000014      -0.00000010       0.00000016
Cr       0.00000005      -0.00000007      -0.00000016       0.00000045      -0.00000024      -0.00000144
F        1.58543663       1.12107295       5.68866595       0.00138159       0.00097661       0.00000033
F        4.98326832       3.52370263       5.68866580      -0.00137875      -0.00097458      -0.00000007
F        4.13381079       1.12107310       4.21736145      -0.00069117       0.00097604       0.00119527
F        2.43489466       3.52370303       7.15997037       0.00068952      -0.00097679      -0.00119486
F        2.43489479       3.52370294       4.21736151       0.00068966      -0.00097590       0.00119457
F        4.13381082       1.12107297       7.15997035      -0.00069082       0.00097514      -0.00119405
