9
Lattice="5.382676535699472 6.533054775041961e-09 3.1076897526695584 1.7942255390646746 5.074836035378176 3.107689716287122 3.013967021955225e-08 -2.3247263716668423e-08 6.215379453135733" Properties=species:S:1:pos:R:3:forces:R:3 energy=-40.286861419677734 free_energy=-40.286861419677734 stress="6.599545304197818e-05 1.670910698692296e-08 -5.2927258131774124e-09 1.670910698692296e-08 6.59393917885609e-05 -8.558341590969576e-09 -5.2927258131774124e-09 -8.558341590969576e-09 6.59403667668812e-05" pbc="T T T"
Sn       1.79422558       1.26870908       3.10768980      -0.00000056      -0.00000025       0.00000005
Sn       5.38267649       3.80612674       9.32306921       0.00000001       0.00000009       0.00000016
Co       0.00000010       0.00000013       0.00000006      -0.00000009      -0.00000305       0.00000203
S        1.77463946       1.25485945       6.21537946      -0.00034840      -0.00024638      -0.00000013
S        5.40226263       3.81997640       6.21537950       0.00035016       0.00024895      -0.00000084
S        4.49535687       1.25485947       4.64457226       0.00017382      -0.00024553      -0.00030071
S        2.68154531       3.81997640       7.78618656      -0.00017437       0.00024684       0.00030087
S        2.68154513       3.81997669       4.64457238      -0.00017387       0.00024626      -0.00030124
S        4.49535685       1.25485970       7.78618648       0.00017338      -0.00024696       0.00029986
