9
Lattice="5.365494692807541 -1.3958712798048447e-08 3.097769799861668 1.7884982265649518 5.058636854427211 3.097769784637796 1.5104130466167818e-08 -7.965126421195209e-09 6.1955395735622165" Properties=species:S:1:pos:R:3:forces:R:3 energy=-42.97005844116211 free_energy=-42.97005844116211 stress="-0.0003665646363515407 -1.0609823020146791e-09 -3.093399092435334e-09 -1.0609823020146791e-09 -0.00036659539910033345 -1.5811810527566195e-08 -3.093399092435334e-09 -1.5811810527566195e-08 -0.0003665041585918516" pbc="T T T"
Sn       1.78849827       1.26465921       3.09776979       0.00000017       0.00000072      -0.00000006
Sn       5.36549468       3.79397763       9.29330943       0.00000125      -0.00000049       0.00000009
Cr       0.00000006      -0.00000008       0.00000006      -0.00000068       0.00000124      -0.00000006
S        1.82426926       1.28995312       6.19553959      -0.00104418      -0.00073726      -0.00000011
S        5.32972362       3.76868370       6.19553960       0.00104332       0.00073735      -0.00000027
S        4.45336006       1.28995313       4.67763327       0.00052115      -0.00073698      -0.00090444
S        2.70063288       3.76868368       7.71344584      -0.00052150       0.00073700       0.00090325
S        2.70063290       3.76868374       4.67763324      -0.00052115       0.00073655      -0.00090384
S        4.45336003       1.28995320       7.71344579       0.00052162      -0.00073795       0.00090528
