9
Lattice="5.769486363370459 -5.135759728490846e-08 3.331014486402943 1.9231620923500317 5.439523872368702 3.331014452373465 1.0084653157453972e-07 2.963184393607492e-08 6.662028798134633" Properties=species:S:1:pos:R:3:forces:R:3 energy=-27.207195281982422 free_energy=-27.207195281982422 stress="0.00013147843128535897 1.208230217264461e-11 -2.9959085878772385e-08 1.208230217264461e-11 0.00013139552902430296 -1.2273851934807567e-09 -2.9959085878772385e-08 -1.2273851934807567e-09 0.00013147469144314528" pbc="T T T"
Sn       1.92316207       1.35988122       3.33101447       0.00000273      -0.00000026      -0.00000052
Sn       5.76948619       4.07964294       9.99304355      -0.00000127       0.00000016       0.00000169
C        0.00000020       0.00000026      -0.00000021      -0.00000157       0.00000004       0.00000037
Cl       1.93511296       1.36833147       6.66202896      -0.00636683      -0.00450413      -0.00000058
Cl       5.75753585       4.07119267       6.66202875       0.00636570       0.00450079      -0.00000084
Cl       4.80192993       1.36833097       5.00687069       0.00318353      -0.00450097      -0.00551112
Cl       2.89071866       4.07119217       8.31718672      -0.00318506       0.00450340       0.00551426
Cl       2.89071868       4.07119240       5.00687117      -0.00318287       0.00450203      -0.00551569
Cl       4.80192971       1.36833132       8.31718689       0.00318573      -0.00450125       0.00551233
