9
Lattice="5.343384856164468 -1.7788196106766236e-08 3.0850047091223343 1.7811282668455493 5.037791703822385 3.085004712191051 -2.801338656531604e-08 -1.6050055876500677e-08 6.170009466765293" Properties=species:S:1:pos:R:3:forces:R:3 energy=-36.648956298828125 free_energy=-36.648956298828125 stress="8.112129580695182e-05 1.4685386240387288e-08 -5.906291455914925e-09 1.4685386240387288e-08 8.110504131764174e-05 -1.1000919064585446e-09 -5.906291455914925e-09 -1.1000919064585446e-09 8.109951886581257e-05" pbc="T T T"
Sn       1.78112846       1.25944750       3.08500336       0.00000495      -0.00001374      -0.00002641
Sn       5.34338497       3.77834315       9.25501317       0.00000350      -0.00001515      -0.00002782
C       -0.00000433       0.00001443       0.00002793      -0.00010137       0.00035984       0.00069031
S        1.62936418       1.15213543       6.17001155       0.00253254       0.00181884       0.00004471
S        5.49514298       3.88565426       6.17001148      -0.00267869      -0.00186628       0.00004733
S        4.52870928       1.15212614       4.49606570      -0.00111330       0.00158721       0.00196016
S        2.59581943       3.88564462       7.84392872       0.00149503      -0.00210005      -0.00255615
S        2.59580915       3.88565976       4.49607541       0.00123098      -0.00172824       0.00218982
S        4.52869820       1.15214144       7.84393802      -0.00137419       0.00195765      -0.00232267
