9
Lattice="6.7287618950129096 -1.4606547886677826e-07 3.884852614053809 2.2429205104243533 6.343937386273295 3.88485258553522 4.860951787281089e-08 -5.559237480082804e-10 7.769705143913547" Properties=species:S:1:pos:R:3:forces:R:3 energy=-19.146625518798828 free_energy=-19.146625518798828 stress="-7.637522503500804e-05 -1.0009792994480904e-08 -1.5323914581699682e-08 -1.0009792994480904e-08 -7.634128269273788e-05 -3.0839970577289932e-09 -1.5323914581699682e-08 -3.0839970577289932e-09 -7.635600923094898e-05" pbc="T T T"
Sn       2.24292073       1.58598321       3.88485232      -0.00000099      -0.00000564      -0.00000043
Sn       6.72876188       4.75795419      11.65455876       0.00000094       0.00000572       0.00000505
Cd      -0.00000001      -0.00000014       0.00000047       0.00000245       0.00000188      -0.00000451
I        2.36177087       1.67002366       7.76970517      -0.00534977      -0.00378376      -0.00000013
I        6.60991182       4.67391354       7.76970486       0.00534628       0.00378186      -0.00000275
I        5.54787632       1.67002358       5.93020630       0.00267406      -0.00378183      -0.00463164
I        3.42380598       4.67391352       9.60920363      -0.00267607       0.00378560       0.00463259
I        3.42380619       4.67391386       5.93020635      -0.00267170       0.00378324      -0.00463128
I        5.54787603       1.67002352       9.60920350       0.00267483      -0.00378709       0.00463314
