9
Lattice="6.461163472498718 -3.2674188802113763e-08 3.73035450877925 2.153721111904799 6.091643385922175 3.7303545343949818 -2.5847068867880713e-08 1.309612654768446e-08 7.460709062327059" Properties=species:S:1:pos:R:3:forces:R:3 energy=-24.781755447387695 free_energy=-24.781755447387695 stress="-6.379096157616004e-05 2.175049695907205e-09 -3.723560793034153e-09 2.175049695907205e-09 -6.380590639309958e-05 2.9251412403397126e-09 -3.723560793034153e-09 2.9251412403397126e-09 -6.379662227118388e-05" pbc="T T T"
Sn       2.15372085       1.52291108       3.73035460      -0.00000090       0.00000114       0.00000002
Sn       6.46116410       4.56873236      11.19106383       0.00000249      -0.00000044       0.00000116
Co       0.00000000       0.00000002       0.00000009      -0.00000002       0.00000029      -0.00000019
I        2.13415307       1.50907433       7.46070911       0.00476846       0.00337338       0.00000018
I        6.48073143       4.58256908       7.46070878      -0.00476968      -0.00337318      -0.00000047
I        5.39408693       1.50907424       5.57858540      -0.00238404       0.00337223       0.00412962
I        3.22079749       4.58256900       9.34283277       0.00238366      -0.00337287      -0.00413042
I        3.22079755       4.58256926       5.57858541       0.00238405      -0.00337293       0.00413060
I        5.39408677       1.50907409       9.34283253      -0.00238396       0.00337235      -0.00413036
