9
Lattice="6.44560973980051 1.182457768606288e-08 3.721374561182621 2.1485365971537655 6.076979174469384 3.7213745506657445 -9.0429752618598e-09 -1.92748020372744e-08 7.442749138028207" Properties=species:S:1:pos:R:3:forces:R:3 energy=-21.738161087036133 free_energy=-21.738161087036133 stress="-0.0001352157414657995 1.2438213792265174e-09 -3.152998973021681e-09 1.2438213792265174e-09 -0.00013520898937713355 1.21291399146628e-09 -3.152998973021681e-09 1.21291399146628e-09 -0.0001352208637399599" pbc="T T T"
Sn       2.14853632       1.51924459       3.72137454      -0.00000139       0.00000005      -0.00000005
Sn       6.44560923       4.55773388      11.16412349      -0.00000199      -0.00000217      -0.00000105
Cu       0.00000003      -0.00000013       0.00000001      -0.00000027      -0.00000012       0.00000003
I        2.17844246       1.54039175       7.44274915      -0.00571241      -0.00403921       0.00000026
I        6.41570390       4.53658762       7.44274928       0.00571285       0.00403961       0.00000050
I        5.35638866       1.54039169       5.60796120       0.00285715      -0.00403851      -0.00494708
I        3.23775811       4.53658769       9.27753715      -0.00285510       0.00403952       0.00494730
I        3.23775801       4.53658779       5.60796117      -0.00285547       0.00403978      -0.00494764
I        5.35638858       1.54039183       9.27753705       0.00285666      -0.00403895       0.00494768
