9
Lattice="5.957899917676971 7.280422315203283e-08 3.4397953063908555 1.98596668920087 5.617161875244985 3.4397953387200952 -5.48493070508557e-08 8.107323379555009e-10 6.879590707783494" Properties=species:S:1:pos:R:3:forces:R:3 energy=-30.5982666015625 free_energy=-30.5982666015625 stress="5.9663812862709165e-05 -1.1541948730098284e-08 -3.466474041147194e-08 -1.1541948730098284e-08 5.968035839032382e-05 8.71886207676198e-09 -3.466474041147194e-08 8.71886207676198e-09 5.9627785958582535e-05" pbc="T T T"
Sn       1.98596629       1.40429005       3.43979559      -0.00000186      -0.00000297       0.00000191
Sn       5.95790030       4.21287195      10.31938573       0.00000434       0.00000446      -0.00000115
Ca      -0.00000005      -0.00000019       0.00000020       0.00000062       0.00000349       0.00000223
Cl       2.08778603       1.47628771       6.87959074      -0.00027209      -0.00019339      -0.00000073
Cl       5.85608087       4.14087452       6.87959103       0.00026958       0.00019114       0.00000045
Cl       4.91400683       1.47628790       5.24787144       0.00013877      -0.00019657      -0.00023790
Cl       3.02985946       4.14087416       8.51130972      -0.00013753       0.00019193       0.00023549
Cl       3.02985951       4.14087418       5.24787133      -0.00013798       0.00019337      -0.00023521
Cl       4.91400697       1.47628753       8.51130964       0.00013621      -0.00019162       0.00023507
