9
Lattice="5.720408303292175 -3.7424247256958675e-08 3.3026792432462275 1.9068027290505063 5.393252670857747 3.302679249186508 -3.1662630143953837e-08 -1.5113519167042442e-08 6.605358541333711" Properties=species:S:1:pos:R:3:forces:R:3 energy=-28.380096435546875 free_energy=-28.380096435546875 stress="-6.709662557113916e-05 -3.274982285361716e-09 3.6903031741530867e-09 -3.274982285361716e-09 -6.710079469485208e-05 -2.676189714279076e-09 3.6903031741530867e-09 -2.676189714279076e-09 -6.711718742735684e-05" pbc="T T T"
Sn       1.90680263       1.34831218       3.30267955      -0.00000072      -0.00000283       0.00000080
Sn       5.72040842       4.04494033       9.90803717       0.00000040       0.00000338      -0.00000195
Cu       0.00000010      -0.00000005       0.00000008      -0.00000132       0.00000078      -0.00000065
Cl       1.90740767       1.34874089       6.60535846      -0.00361297      -0.00255570      -0.00000030
Cl       5.71980330       4.04451184       6.60535872       0.00361347       0.00255631       0.00000110
Cl       4.76670446       1.34874031       4.95454265       0.00180510      -0.00255561      -0.00312895
Cl       2.86050661       4.04451214       8.25617465      -0.00180465       0.00255455       0.00312620
Cl       2.86050638       4.04451212       4.95454248      -0.00180635       0.00255473      -0.00312707
Cl       4.76670452       1.34874075       8.25617441       0.00180699      -0.00255577       0.00313073
