9
Lattice="6.10847921182216 2.6121904733958353e-08 3.526732214339896 2.036159747093792 5.759129542012799 3.5267322399885384 5.0844801282512324e-08 6.736582360522286e-08 7.053464340613949" Properties=species:S:1:pos:R:3:forces:R:3 energy=-34.41065979003906 free_energy=-34.41065979003906 stress="4.517971319728531e-05 -1.0680863304912691e-08 6.5172529595258766e-09 -1.0680863304912691e-08 4.5167198550188914e-05 -1.3524117825625126e-08 6.5172529595258766e-09 -1.3524117825625126e-08 4.51548803539481e-05" pbc="T T T"
Sn       2.03615975       1.43978255       3.52673202       0.00000013       0.00000058       0.00000016
Sn       6.10847935       4.31934717      10.58019684      -0.00000001      -0.00000033      -0.00000030
Co      -0.00000004       0.00000011       0.00000031       0.00000001      -0.00000269       0.00000062
Te       2.00955471       1.42096983       7.05346448      -0.00440556      -0.00311460      -0.00000013
Te       6.13508427       4.33815987       7.05346424       0.00440608       0.00311525      -0.00000051
Te       5.10370178       1.42096984       5.26705756       0.00220222      -0.00311489      -0.00381389
Te       3.04093722       4.33815947       8.83987098      -0.00220275       0.00311496       0.00381585
Te       3.04093713       4.33815949       5.26705781      -0.00220314       0.00311562      -0.00381646
Te       5.10370186       1.42097021       8.83987095       0.00220300      -0.00311392       0.00381467
