9
Lattice="4.114619541889422 1.1186001381810221e-07 2.3755769866258496 1.3715399081733364 3.879301595159581 2.375577063850675 3.555493029094164e-08 1.197218257501042e-07 4.751153911668769" Properties=species:S:1:pos:R:3:forces:R:3 energy=-48.975494384765625 free_energy=-48.975494384765625 stress="0.00015250517753884196 -9.037758275098895e-08 7.080465280751014e-08 -9.037758275098895e-08 0.0001522099773865193 -1.8571508064724185e-07 7.080465280751014e-08 -1.8571508064724185e-07 0.00015300881932489574" pbc="T T T"
Sn       1.37153983       0.96982586       2.37557849      -0.00000402       0.00000277       0.00000341
Sn       4.11461928       2.90947635       7.12673200       0.00000262       0.00000634       0.00001134
C        0.00000012       0.00000163       0.00000236      -0.00000043       0.00000649       0.00002121
O        1.26728324       0.89610453       4.75115324       0.00042391       0.00029671      -0.00001000
O        4.21887508       2.98319739       4.75115300      -0.00042868      -0.00029588      -0.00000425
O        3.48097869       0.89610441       3.47307653      -0.00020623       0.00029707       0.00035572
O        2.00518183       2.98319577       6.02923067       0.00021088      -0.00030565      -0.00036836
O        2.00518141       2.98319637       3.47307617       0.00020432      -0.00030828       0.00035703
O        3.48097819       0.89610507       6.02923004      -0.00020278       0.00029945      -0.00036836
