9
Lattice="5.727817640134247 1.3725647516672065e-08 3.306957115906353 1.9092725266839918 5.400238483467832 3.306957173008751 2.7253756659670102e-08 8.92071815533752e-08 6.613914184607792" Properties=species:S:1:pos:R:3:forces:R:3 energy=-39.89154052734375 free_energy=-39.89154052734375 stress="0.0002246096992166713 -2.950158339842801e-09 -1.6171545880183658e-08 -2.950158339842801e-09 0.00022456127044279128 4.520956409237442e-08 -1.6171545880183658e-08 4.520956409237442e-08 0.0002246046205982566" pbc="T T T"
Sn       1.90927287       1.35006019       3.30695709      -0.00000146      -0.00000029       0.00000162
Sn       5.72781737       4.05017865       9.92087163       0.00000157      -0.00000035      -0.00000159
Cr       0.00000000       0.00000004      -0.00000016       0.00000075      -0.00000126       0.00000142
Se       1.96799224       1.39158074       6.61391406      -0.00510444      -0.00360936       0.00000114
Se       5.66909788       4.00865773       6.61391413       0.00510533       0.00360914       0.00000041
Se       4.74382163       1.39158076       5.01128841       0.00255280      -0.00360932      -0.00442151
Se       2.89326877       4.00865788       8.21653992      -0.00255287       0.00360854       0.00442125
Se       2.89326858       4.00865780       5.01128858      -0.00255205       0.00360947      -0.00442058
Se       4.74382143       1.39158054       8.21654026       0.00255040      -0.00360654       0.00441777
