9
Lattice="6.110779895982691 -3.829657691459312e-08 3.528060612675332 2.036926622407987 5.761298431320602 3.528060566741169 4.5774049778798814e-08 -2.3890503355137223e-08 7.056121146067659" Properties=species:S:1:pos:R:3:forces:R:3 energy=-32.69956588745117 free_energy=-32.69956588745117 stress="-1.3663536265084986e-05 -2.1546751938217312e-08 1.1282020651037783e-08 -2.1546751938217312e-08 -1.363776573271025e-05 -4.835393419000411e-09 1.1282020651037783e-08 -4.835393419000411e-09 -1.3621787729789503e-05" pbc="T T T"
Sn       2.03692613       1.44032502       3.52806059      -0.00000338       0.00000218       0.00000055
Sn       6.11077914       4.32097327      10.58418119      -0.00000223      -0.00000171      -0.00000404
Cr      -0.00000087       0.00000017      -0.00000044       0.00001659      -0.00000094       0.00000586
Br       2.01672911       1.42604269       7.05612120      -0.00361729      -0.00255733      -0.00000047
Br       6.13097849       4.33525586       7.05612150       0.00360792       0.00254987       0.00000160
Br       5.10241579       1.42604259       5.27459909       0.00180743      -0.00255567      -0.00312892
Br       3.04529131       4.33525577       8.83764340      -0.00180623       0.00255656       0.00313237
Br       3.04529131       4.33525540       5.27459935      -0.00181021       0.00255953      -0.00313479
Br       5.10241589       1.42604269       8.83764346       0.00180737      -0.00255247       0.00312785
