9
Lattice="5.433665167644788 -3.0243686766705724e-08 3.137128078706984 1.8112217236647605 5.122908505520977 3.1371280273853985 6.454537825229057e-08 -1.7215418052729303e-08 6.274256045618156" Properties=species:S:1:pos:R:3:forces:R:3 energy=-41.87248992919922 free_energy=-41.87248992919922 stress="0.00025365647161379457 -3.2387639237185795e-08 -5.645806488985272e-09 -3.2387639237185795e-08 0.0002536697138566524 1.415417782979489e-09 -5.645806488985272e-09 1.415417782979489e-09 0.00025369549985043705" pbc="T T T"
Sn       1.81122157       1.28072694       3.13712809       0.00000057      -0.00000000       0.00000060
Sn       5.43366523       3.84218137       9.41138421      -0.00000016       0.00000028      -0.00000094
Fe      -0.00000011       0.00000016      -0.00000015       0.00000019      -0.00000309       0.00000071
S        1.77216872       1.25311229       6.27425580      -0.00257745      -0.00182217       0.00000043
S        5.47271838       3.86979612       6.27425590       0.00257969       0.00182346       0.00000146
S        4.54758078       1.25311281       4.67187102       0.00129111      -0.00182590      -0.00223473
S        2.69730614       3.86979609       7.87664136      -0.00129060       0.00182483       0.00223458
S        2.69730629       3.86979573       4.67187119      -0.00129268       0.00182652      -0.00223562
S        4.54758083       1.25311234       7.87664121       0.00128967      -0.00182387       0.00223371
