9
Lattice="4.942578608004562 -6.998462439564807e-08 2.8535990550085 1.647526135937546 4.659907834686685 2.853599056304921 -9.34923026836185e-08 -6.452127663482923e-08 5.707198271950441" Properties=species:S:1:pos:R:3:forces:R:3 energy=-44.459739685058594 free_energy=-44.459739685058594 stress="8.401501872867811e-06 -6.360704407626372e-09 -5.931035218509351e-09 -6.360704407626372e-09 8.390633411181625e-06 1.608928634766471e-08 -5.931035218509351e-09 1.608928634766471e-08 8.373672244488262e-06" pbc="T T T"
Sn       1.64752604       1.16497669       2.85359877       0.00000130       0.00000102      -0.00000097
Sn       4.94257879       3.49493105       8.56079678      -0.00000032       0.00000022      -0.00000036
Fe      -0.00000023       0.00000013       0.00000050       0.00000232      -0.00000034      -0.00000623
F        1.59245235       1.12603365       5.70719867       0.00023413       0.00016624      -0.00000065
F        4.99765286       3.53387411       5.70719841      -0.00023855      -0.00016813      -0.00000002
F        4.14635239       1.12603362       4.23270316      -0.00011885       0.00016847       0.00020626
F        2.44375242       3.53387340       7.18169286       0.00011618      -0.00016403      -0.00020223
F        2.44375208       3.53387419       4.23270320       0.00011981      -0.00016887       0.00020762
F        4.14635192       1.12603394       7.18169316      -0.00011609       0.00016549      -0.00020335
