9
Lattice="6.147939687736362 2.835697992483529e-08 3.549514583159238 2.0493132908495757 5.796332978002456 3.549514522764477 5.839341420793692e-08 -3.267779898657035e-08 7.099029065178106" Properties=species:S:1:pos:R:3:forces:R:3 energy=-35.82709884643555 free_energy=-35.82709884643555 stress="-6.76630370435305e-05 2.6480895698455242e-08 6.291632104193923e-09 2.6480895698455242e-08 -6.768000457668677e-05 -1.8237454879610482e-09 6.291632104193923e-09 -1.8237454879610482e-09 -6.769441824872047e-05" pbc="T T T"
Sn       2.04931334       1.44908318       3.54951456      -0.00000006       0.00000015      -0.00000013
Sn       6.14793987       4.34724987      10.64854360      -0.00000005      -0.00000025       0.00000014
Fe      -0.00000017       0.00000029       0.00000004       0.00000313      -0.00000358      -0.00000114
Te       1.97111478       1.39378859       7.09902888       0.00094799       0.00067045       0.00000000
Te       6.22613847       4.40254446       7.09902914      -0.00094838      -0.00067036      -0.00000004
Te       5.16238247       1.39378818       5.25654956      -0.00047613       0.00067367       0.00082511
Te       3.03487047       4.40254463       8.94150850       0.00047448      -0.00067131      -0.00082226
Te       3.03487043       4.40254443       5.25654997       0.00047451      -0.00067122       0.00082216
Te       5.16238249       1.39378830       8.94150843      -0.00047551       0.00067243      -0.00082385
