9
Lattice="5.712373998140857 1.7630902971011816e-08 3.2980404310850466 1.9041247139876551 5.385678132718326 3.2980403768403614 -5.339901143523819e-08 -1.0419464877679592e-07 6.59608095465984" Properties=species:S:1:pos:R:3:forces:R:3 energy=-34.06889724731445 free_energy=-34.06889724731445 stress="-1.553336733195465e-05 2.0956539614758185e-08 8.07193867302658e-09 2.0956539614758185e-08 -1.554400114400778e-05 3.677853799288755e-09 8.07193867302658e-09 3.677853799288755e-09 -1.554425762151368e-05" pbc="T T T"
Sn       1.90412437       1.34641891       3.29804045      -0.00000271      -0.00000251       0.00000087
Sn       5.71237423       4.03925892       9.89412215      -0.00000080      -0.00000017       0.00000392
Fe      -0.00000025       0.00000085       0.00000108       0.00000167      -0.00001232      -0.00001151
Cl       1.85806161       1.31384782       6.59608082      -0.00216264      -0.00153035      -0.00000063
Cl       5.75843678       4.07182984       6.59608091       0.00217041       0.00153591      -0.00000263
Cl       4.78334388       1.31384749       4.90716793       0.00107874      -0.00152507      -0.00186610
Cl       2.83315544       4.07183006       8.28499229      -0.00108729       0.00153735       0.00187902
Cl       2.83315534       4.07183006       4.90716855      -0.00108095       0.00153024      -0.00187530
Cl       4.78334341       1.31384827       8.28499280       0.00108352      -0.00153320       0.00187209
