9
Lattice="4.604515114484246 1.0085899870187892e-07 2.658417967519789 1.534838402525684 4.341178681633864 2.658418078474698 -1.615614759149936e-08 1.2446734570063368e-07 5.316835963022844" Properties=species:S:1:pos:R:3:forces:R:3 energy=-48.506378173828125 free_energy=-48.506378173828125 stress="-0.0005632941611111164 5.743740771890771e-08 3.7631856741882075e-08 5.743740771890771e-08 -0.0005632113316096365 7.162856263676076e-08 3.7631856741882075e-08 7.162856263676076e-08 -0.0005633386317640543" pbc="T T T"
Sn       1.53483844       1.08529512       2.65841759       0.00000203       0.00000347      -0.00000255
Sn       4.60451570       3.25588441       7.97525349       0.00000280       0.00000229      -0.00000068
Fe       0.00000010       0.00000014       0.00000012      -0.00000209      -0.00000414      -0.00000178
O        1.46307119       1.03454773       5.31683583      -0.00180297      -0.00127521      -0.00000057
O        4.67628205       3.30663078       5.31683611       0.00180527       0.00127682       0.00000143
O        3.87297975       1.03454769       3.92547530       0.00090038      -0.00127576      -0.00155925
O        2.26637399       3.30663109       6.70819711      -0.00090242       0.00127278       0.00156014
O        2.26637389       3.30663091       3.92547518      -0.00090308       0.00127391      -0.00156012
O        3.87297890       1.03454775       6.70819720       0.00089973      -0.00127428       0.00156336
