9
Lattice="6.4986685685578465 -7.995647682927031e-08 3.7520079824770733 2.1662228570403146 6.127003289966103 3.75200785042885 9.484407564378795e-08 -9.466049807675554e-08 7.504015800679425" Properties=species:S:1:pos:R:3:forces:R:3 energy=-26.43353843688965 free_energy=-26.43353843688965 stress="0.00022302019351627678 -1.707282315521752e-09 -1.9671702045087613e-09 -1.707282315521752e-09 0.00022300025739241391 4.302201261907612e-09 -1.9671702045087613e-09 4.302201261907612e-09 0.0002229978854302317" pbc="T T T"
Sn       2.16622303       1.53175083       3.75200792       0.00000034      -0.00000021      -0.00000029
Sn       6.49866871       4.59525306      11.25602317       0.00000001       0.00000118      -0.00000090
Fe       0.00000002       0.00000004      -0.00000022       0.00000030      -0.00000097       0.00000217
I        2.02326968       1.43066697       7.50401581       0.00792688       0.00560623      -0.00000015
I        6.64162173       4.69633567       7.50401613      -0.00792557      -0.00560464       0.00000010
I        5.48703369       1.43066714       5.50421067      -0.00396395       0.00560547       0.00686589
I        3.17785794       4.69633560       9.50382123       0.00396299      -0.00560605      -0.00686623
I        3.17785746       4.69633582       5.50421039       0.00396303      -0.00560675       0.00686631
I        5.48703385       1.43066731       9.50382144      -0.00396390       0.00560581      -0.00686684
