9
Lattice="5.802944510585713 7.90215784251723e-08 3.3503316726303556 1.9343148618572215 5.471068645192681 3.3503317583789216 9.769415499024648e-09 1.1192813989108501e-07 6.700663328339544" Properties=species:S:1:pos:R:3:forces:R:3 energy=-33.8230094909668 free_energy=-33.8230094909668 stress="-4.310487929615192e-05 -9.18594089682756e-09 -4.009801934934387e-10 -9.18594089682756e-09 -4.3051950342487544e-05 1.1712439018651821e-08 -4.009801934934387e-10 1.1712439018651821e-08 -4.305420588934794e-05" pbc="T T T"
Sn       1.93431475       1.36776759       3.35033212       0.00000104       0.00000005      -0.00000096
Sn       5.80294455       4.10330121      10.05099562       0.00000099      -0.00000049      -0.00000073
Ge      -0.00000005       0.00000002       0.00000032       0.00000213      -0.00000206      -0.00000481
Se       2.01880185       1.42750870       6.70066323       0.00012052       0.00008645      -0.00000042
Se       5.71845754       4.04356040       6.70066341      -0.00012279      -0.00008718      -0.00000099
Se       4.79354346       1.42750852       5.09866547      -0.00006258       0.00008827       0.00010748
Se       2.94371633       4.04355977       8.30266069       0.00005812      -0.00008310      -0.00010094
Se       2.94371576       4.04356033       5.09866561       0.00006153      -0.00008640       0.00010556
Se       4.79354335       1.42750880       8.30266054      -0.00005897       0.00008442      -0.00010419
