9
Lattice="5.1329174721418385 7.3478395778874e-08 2.963491453747535 1.7109725646630836 4.839360947459562 2.9634914456535335 3.231725960304344e-08 1.2938683945103715e-08 5.926982851519845" Properties=species:S:1:pos:R:3:forces:R:3 energy=-42.836814880371094 free_energy=-42.836814880371094 stress="-8.585762407165021e-05 -1.6593022511557365e-09 -9.654699262284794e-09 -1.6593022511557365e-09 -8.585073373978958e-05 -1.0392718685636737e-08 -9.654699262284794e-09 -1.0392718685636737e-08 -8.58118073665537e-05" pbc="T T T"
Sn       1.71097255       1.20984027       2.96349152       0.00000036      -0.00000020       0.00000001
Sn       5.13291768       3.62952063       8.89047401      -0.00000042      -0.00000022       0.00000010
Ge       0.00000010      -0.00000004      -0.00000011       0.00000079       0.00000165       0.00000211
F        1.51166358       1.06890789       5.92698317      -0.00019126      -0.00013546      -0.00000071
F        5.33222622       3.77045334       5.92698318       0.00019197       0.00013488      -0.00000109
F        4.37708556       1.06890780       4.27263046       0.00009616      -0.00013626      -0.00016674
F        2.46680455       3.77045334       7.58133501      -0.00009630       0.00013486       0.00016648
F        2.46680456       3.77045315       4.27263082      -0.00009644       0.00013599      -0.00016668
F        4.37708562       1.06890767       7.58133497       0.00009514      -0.00013518       0.00016646
