9
Lattice="5.8380844230196605 -4.44629978732918e-08 3.3706195944712425 1.946028112291736 5.504198555411874 3.370619571599016 7.682302665598622e-09 -2.2580438414070847e-08 6.741239175636377" Properties=species:S:1:pos:R:3:forces:R:3 energy=-30.441608428955078 free_energy=-30.441608428955078 stress="8.364239329239354e-05 1.5715546197725416e-08 -1.6202211128302224e-08 1.5715546197725416e-08 8.357939805136994e-05 -9.640745091132885e-09 -1.6202211128302224e-08 -9.640745091132885e-09 8.361743675777689e-05" pbc="T T T"
Sn       1.94602803       1.37605011       3.37062011       0.00000047       0.00000041       0.00000228
Sn       5.83808437       4.12814966      10.11185867      -0.00000104       0.00000183      -0.00000110
Ge       0.00000021      -0.00000026      -0.00000029      -0.00000102       0.00000566       0.00000479
Cl       1.92137857       1.35861934       6.74123881      -0.00060746      -0.00042920      -0.00000052
Cl       5.86273440       4.14557863       6.74123920       0.00060592       0.00042785       0.00000129
Cl       4.87739477       1.35861939       5.03458195       0.00030403      -0.00043239      -0.00052845
Cl       2.90671742       4.14557915       8.44789677      -0.00030168       0.00042538       0.00051988
Cl       2.90671739       4.14557874       5.03458174      -0.00030339       0.00042810      -0.00052300
Cl       4.87739501       1.35861919       8.44789643       0.00030415      -0.00042765       0.00052486
