9
Lattice="4.544609548641262 9.447502202165754e-08 2.6238316592388786 1.5148699047396863 4.28469905911899 2.6238317179195607 2.3070397500754144e-08 8.818210001210008e-08 5.247663278518648" Properties=species:S:1:pos:R:3:forces:R:3 energy=-48.20555877685547 free_energy=-48.20555877685547 stress="-0.00015084831102285534 -4.616698845438805e-08 4.646884121939365e-08 -4.616698845438805e-08 -0.00015100074233487248 -2.7258041157551816e-08 4.646884121939365e-08 -2.7258041157551816e-08 -0.00015093332331161946" pbc="T T T"
Sn       1.51486962       1.07117451       2.62383161      -0.00000376      -0.00000053      -0.00000111
Sn       4.54460941       3.21352498       7.87149492      -0.00000066       0.00000352      -0.00000130
Ge      -0.00000013       0.00000007      -0.00000012       0.00000082      -0.00000120      -0.00000125
O        1.54884614       1.09519976       5.24766339       0.00053608       0.00037944       0.00000175
O        4.51063339       3.18949946       5.24766340      -0.00053394      -0.00037813       0.00000148
O        3.77018641       1.09519940       3.96517187      -0.00026929       0.00037622       0.00046492
O        2.28929294       3.18949958       6.53015497       0.00027013      -0.00037897      -0.00046492
O        2.28929318       3.18949969       3.96517193       0.00026828      -0.00037611       0.00046492
O        3.77018686       1.09519949       6.53015470      -0.00026745       0.00037622      -0.00046515
