9
Lattice="6.681354188994583 3.3199376297804614e-08 3.8574816119748983 2.227118071865265 6.299241075798991 3.8574816508310525 3.2400210022197405e-09 4.9879764174807475e-08 7.714963218338028" Properties=species:S:1:pos:R:3:forces:R:3 energy=-22.51637077331543 free_energy=-22.51637077331543 stress="-4.245936725055799e-05 6.958090548181417e-09 2.8433446708220345e-09 6.958090548181417e-09 -4.2466675949981436e-05 -3.484253774388435e-09 2.8433446708220345e-09 -3.484253774388435e-09 -4.2453204514458776e-05" pbc="T T T"
Sn       2.22711874       1.57480991       3.85748104       0.00000216      -0.00000242      -0.00000190
Sn       6.68135479       4.72443083      11.57244524       0.00000292       0.00000197       0.00000006
Ge       0.00000005      -0.00000007      -0.00000004       0.00000015       0.00000038      -0.00000032
I        2.31084985       1.63401766       7.71496326      -0.00118689      -0.00083888       0.00000094
I        6.59762208       4.66522401       7.71496322       0.00118537       0.00083997       0.00000001
I        5.52592901       1.63401744       5.85873630       0.00059270      -0.00083951      -0.00102759
I        3.38254278       4.66522358       9.57119021      -0.00059449       0.00083909       0.00102756
I        3.38254290       4.66522381       5.85873650      -0.00059403       0.00083917      -0.00102688
I        5.52592885       1.63401747       9.57119022       0.00059212      -0.00083975       0.00102804
