9
Lattice="6.1828680227657635 -1.004121020628772e-08 3.569680522935465 2.060956021533651 5.829263780879728 3.5696804823847867 3.7241309412769947e-08 -2.3330747541266422e-08 7.139360981367081" Properties=species:S:1:pos:R:3:forces:R:3 energy=-26.32048797607422 free_energy=-26.32048797607422 stress="6.153036520117894e-05 5.692978088944756e-09 -4.192758584764533e-09 5.692978088944756e-09 6.153011054266244e-05 -3.0618251532256446e-13 -4.192758584764533e-09 -3.0618251532256446e-13 6.151256093289703e-05" pbc="T T T"
Sn       2.06095599       1.45731599       3.56968059      -0.00000018      -0.00000109       0.00000114
Sn       6.18286823       4.37194744      10.70904073      -0.00000044      -0.00000119      -0.00000394
Ge       0.00000009       0.00000024       0.00000040      -0.00000011      -0.00000088      -0.00000023
Br       2.08723078       1.47589503       7.13936098      -0.00341422      -0.00241376      -0.00000062
Br       6.15659297       4.35336854       7.13936139       0.00341580       0.00241565       0.00000131
Br       5.13925244       1.47589519       5.37727550       0.00170674      -0.00241425      -0.00295698
Br       3.10457179       4.35336859       8.90144644      -0.00170782       0.00241556       0.00295831
Br       3.10457139       4.35336858       5.37727546      -0.00170800       0.00241422      -0.00295699
Br       5.13925265       1.47589539       8.90144642       0.00170826      -0.00241431       0.00295812
