9
Lattice="5.58888567462807 2.95228482307205e-08 3.226744583582173 1.862961908270255 5.269251896981068 3.2267446028197986 -8.912825387927232e-09 1.7258883874281744e-08 6.453489182601805" Properties=species:S:1:pos:R:3:forces:R:3 energy=-36.308258056640625 free_energy=-36.308258056640625 stress="0.0001444664812879637 -1.2037818741816864e-08 -3.1510964504377625e-08 -1.2037818741816864e-08 0.00014449923764914274 9.956646174202888e-09 -3.1510964504377625e-08 9.956646174202888e-09 0.00014448857109528035" pbc="T T T"
Sn       1.86296234       1.31731307       3.22674420       0.00000067       0.00000037       0.00000021
Sn       5.58888529       3.95193879       9.68023427       0.00000067       0.00000036      -0.00000078
Ge      -0.00000005      -0.00000019      -0.00000014      -0.00000059       0.00000444       0.00000093
S        1.89874054       1.34261243       6.45348935      -0.00049150      -0.00034678       0.00000161
S        5.55310721       3.92663991       6.45348927       0.00048780       0.00034475      -0.00000038
S        4.63951515       1.34261253       4.87110195       0.00024626      -0.00034678      -0.00042593
S        2.81233206       3.92663966       8.03587631      -0.00024417       0.00034413       0.00042278
S        2.81233221       3.92663957       4.87110191      -0.00024313       0.00034577      -0.00042194
S        4.63951537       1.34261205       8.03587636       0.00024396      -0.00034609       0.00042361
