9
Lattice="6.285248633258753 -3.156523513625455e-08 3.6287899873198195 2.095082858573667 5.925789263205281 3.6287899689934293 -2.136103392679831e-08 -3.754965554230409e-08 7.257580011638098" Properties=species:S:1:pos:R:3:forces:R:3 energy=-30.32328224182129 free_energy=-30.32328224182129 stress="1.9098815755569376e-05 -3.6125229474492926e-09 8.891103853159166e-09 -3.6125229474492926e-09 1.9095461539109237e-05 -2.3194324239028674e-09 8.891103853159166e-09 -2.3194324239028674e-09 1.9104218154097907e-05" pbc="T T T"
Sn       2.09508272       1.48144748       3.62879013      -0.00000039       0.00000151       0.00000062
Sn       6.28524867       4.44434191      10.88637059       0.00000019       0.00000001       0.00000237
Ge      -0.00000009      -0.00000009       0.00000006       0.00000077       0.00000027       0.00000013
Te       2.26737042       1.60327304       7.25757996      -0.00306033      -0.00216378       0.00000003
Te       6.11296135       4.32251619       7.25757945       0.00306116       0.00216391      -0.00000195
Te       5.15156342       1.60327301       5.59239025       0.00153014      -0.00216424      -0.00265120
Te       3.22876781       4.32251620       8.92276960      -0.00153176       0.00216353       0.00265071
Te       3.22876816       4.32251623       5.59239019      -0.00153028       0.00216395      -0.00265118
Te       5.15156342       1.60327280       8.92276966       0.00153045      -0.00216515       0.00265048
