9
Lattice="6.750160003120338 2.68210480148782e-09 3.897206711111132 2.250053361689442 6.364111819860428 3.897206668178363 -2.8689295768629216e-08 -7.286809727752944e-08 7.794413471913541" Properties=species:S:1:pos:R:3:forces:R:3 energy=-17.452377319335938 free_energy=-17.452377319335938 stress="-7.663814176339656e-05 6.954944620218839e-09 7.457916950670551e-09 6.954944620218839e-09 -7.662901771254838e-05 9.225249009148229e-09 7.457916950670551e-09 9.225249009148229e-09 -7.663592987228185e-05" pbc="T T T"
Sn       2.25005407       1.59102651       3.89720670       0.00000327      -0.00000485       0.00000050
Sn       6.75016019       4.77308372      11.69161885       0.00000113      -0.00000090      -0.00000668
Hg      -0.00000016      -0.00000015       0.00000023       0.00000063       0.00000040      -0.00000085
I        2.38973912       1.68980074       7.79441356      -0.00486790      -0.00344189      -0.00000014
I        6.61047435       4.67431184       7.79441437       0.00486428       0.00344335       0.00000209
I        5.55529009       1.68980024       5.96678123       0.00243121      -0.00344129      -0.00421478
I        3.44492314       4.67431140       9.62204535      -0.00243241       0.00344391       0.00421530
I        3.44492230       4.67431178       5.96678150      -0.00243369       0.00344257      -0.00421271
I        5.55529024       1.68980097       9.62204565       0.00243349      -0.00344124       0.00421731
