9
Lattice="5.897986105429687 -3.877698516656358e-08 3.4052038554433133 1.9659953279968458 5.560674670652352 3.4052038622336287 4.941345829930585e-08 4.325703083832558e-08 6.810407625300026" Properties=species:S:1:pos:R:3:forces:R:3 energy=-41.35718536376953 free_energy=-41.35718536376953 stress="0.0003004235040862113 -9.559384395174675e-09 -1.024414597594614e-08 -9.559384395174675e-09 0.00030036241514608264 -4.671392161981203e-10 -1.024414597594614e-08 -4.671392161981203e-10 0.0003004011232405901" pbc="T T T"
Sn       1.96599472       1.39016871       3.40520363      -0.00000169      -0.00000007      -0.00000084
Sn       5.89798584       4.17050579      10.21561151      -0.00000076       0.00000056       0.00000052
Hf      -0.00000007      -0.00000016      -0.00000089       0.00000492       0.00000418       0.00001372
Se       2.10388815       1.48767330       6.81040761      -0.00388706      -0.00274993       0.00000020
Se       5.76009406       4.07300170       6.81040755       0.00388193       0.00274447       0.00000154
Se       4.84604196       1.48767386       5.22722421       0.00194623      -0.00275142      -0.00336833
Se       3.01793908       4.07300162       8.39359147      -0.00194052       0.00274494       0.00336055
Se       3.01793956       4.07300080       5.22722457      -0.00194395       0.00275152      -0.00336840
Se       4.84604267       1.48767307       8.39359174       0.00194096      -0.00274421       0.00336090
