9
Lattice="6.4097366481030615 7.851431702193291e-08 3.700663112561985 2.1365789119237677 6.043157622677128 3.7006631901601117 -4.674724589048427e-08 6.198259102691726e-08 7.401326306092608" Properties=species:S:1:pos:R:3:forces:R:3 energy=-37.64872741699219 free_energy=-37.64872741699219 stress="9.334328933618963e-05 1.113841019417805e-08 -7.1476731200448285e-09 1.113841019417805e-08 9.333545312983915e-05 1.0281717699456294e-08 -7.1476731200448285e-09 1.0281717699456294e-08 9.334730566479266e-05" pbc="T T T"
Sn       2.13657882       1.51078955       3.70066316      -0.00000043      -0.00000096       0.00000039
Sn       6.40973665       4.53236821      11.10198966       0.00000071      -0.00000008       0.00000150
Hf      -0.00000028       0.00000046       0.00000028       0.00000343      -0.00000243      -0.00000390
Te       2.29323864       1.62156498       7.40132636      -0.00243899      -0.00172436       0.00000057
Te       6.25307683       4.42159295       7.40132617       0.00243789       0.00172378      -0.00000121
Te       5.26311731       1.62156439       5.68666581       0.00121813      -0.00172302      -0.00210983
Te       3.28319845       4.42159296       9.11598621      -0.00122067       0.00172687       0.00211336
Te       3.28319824       4.42159301       5.68666602      -0.00121813       0.00172405      -0.00211163
Te       5.26311737       1.62156458       9.11598676       0.00121814      -0.00172392       0.00211075
