9
Lattice="6.273957880360491 -4.279452452833079e-08 3.6222712692667347 2.091319269118944 5.915144135285623 3.6222712415322427 -5.923504253422997e-09 -3.815621448783493e-08 7.2445425487932225" Properties=species:S:1:pos:R:3:forces:R:3 energy=-20.670318603515625 free_energy=-20.670318603515625 stress="6.321624823613092e-05 -1.7425887399724616e-09 9.379077514637402e-10 -1.7425887399724616e-09 6.322477565845475e-05 -7.364587162328462e-09 9.379077514637402e-10 -7.364587162328462e-09 6.322420813376084e-05" pbc="T T T"
Sn       2.09131938       1.47878546       3.62227102      -0.00000009      -0.00000330      -0.00000093
Sn       6.27395774       4.43635823      10.86681336      -0.00000001       0.00000245      -0.00000214
Hg      -0.00000051      -0.00000012      -0.00000058       0.00000481       0.00000184       0.00000438
Br       2.20961808       1.56243563       7.24454251      -0.00255686      -0.00180977       0.00000142
Br       6.15565979       4.35270912       7.24454265       0.00255030       0.00180426       0.00000079
Br       5.16914890       1.56243515       5.53585638       0.00127795      -0.00180651      -0.00221180
Br       3.19612813       4.35270866       8.95322919      -0.00127488       0.00180516       0.00221168
Br       3.19612786       4.35270867       5.53585666      -0.00127760       0.00180945      -0.00221332
Br       5.16914920       1.56243538       8.95322901       0.00127658      -0.00180358       0.00220986
