9
Lattice="6.277502475553175 -4.688075923468066e-08 3.6243177574075935 2.0925007919915086 5.918486076387548 3.624317738343469 1.8809386377699833e-08 -1.0048381463986651e-08 7.248635482236241" Properties=species:S:1:pos:R:3:forces:R:3 energy=-25.12712287902832 free_energy=-25.12712287902832 stress="0.00019756310211960226 -1.1099848817863744e-09 4.4333642312821553e-10 -1.1099848817863744e-09 0.00019758114649448544 7.626362652501939e-09 4.4333642312821553e-10 7.626362652501939e-09 0.000197571687749587" pbc="T T T"
Sn       2.09250109       1.47962164       3.62431842       0.00000216       0.00000046       0.00000229
Sn       6.27750232       4.43886523      10.87295304      -0.00000056       0.00000353       0.00000020
In       0.00000027       0.00000031       0.00000080      -0.00000290      -0.00000369      -0.00000880
Br       2.16700992       1.53230685       7.24863521      -0.00775432      -0.00548457      -0.00000189
Br       6.20299309       4.38617849       7.24863588       0.00776125       0.00548771      -0.00000132
Br       5.19399740       1.53230691       5.50100326       0.00387540      -0.00548415      -0.00671674
Br       3.17600609       4.38617844       8.99626715      -0.00388290       0.00548897       0.00672255
Br       3.17600557       4.38617875       5.50100319      -0.00387804       0.00548209      -0.00671706
Br       5.19399741       1.53230746       8.99626694       0.00387990      -0.00549041       0.00672075
