9
Lattice="5.515428885834382 3.2930613031457716e-08 3.184334310443106 1.8384763305090581 5.199996201147445 3.1843343031968674 -2.4329106210934507e-08 -2.6078072731864776e-08 6.368668663025456" Properties=species:S:1:pos:R:3:forces:R:3 energy=-42.04303741455078 free_energy=-42.04303741455078 stress="0.00010579406807664782 -5.542887815401798e-10 -1.9827224306823155e-08 -5.542887815401798e-10 0.00010584647679934278 2.71331010992526e-08 -1.9827224306823155e-08 2.71331010992526e-08 0.00010588493023533374" pbc="T T T"
Sn       1.83847637       1.29999899       3.18433431       0.00000018      -0.00000015      -0.00000007
Sn       5.51542893       3.89999723       9.55300293       0.00000005       0.00000039       0.00000021
Ir       0.00000002       0.00000010      -0.00000017       0.00000026       0.00000022       0.00000142
S        1.88081508       1.32993712       6.36866866       0.00043505       0.00030786      -0.00000050
S        5.47309005       3.87005903       6.36866860      -0.00043541      -0.00030842       0.00000055
S        4.57502132       1.32993719       4.81316802      -0.00021708       0.00030676       0.00037557
S        2.77888377       3.87005915       7.92416927       0.00021732      -0.00030720      -0.00037599
S        2.77888379       3.87005905       4.81316803       0.00021729      -0.00030831       0.00037664
S        4.57502145       1.32993703       7.92416939      -0.00021765       0.00030884      -0.00037825
