9
Lattice="5.791672418480385 -5.111356026676748e-09 3.3438236062705915 1.9305574626400748 5.460441248556994 3.3438236155677172 -5.350921407825123e-08 -2.6450130885221048e-08 6.687647305221861" Properties=species:S:1:pos:R:3:forces:R:3 energy=-39.138771057128906 free_energy=-39.138771057128906 stress="7.926084072096273e-05 -3.384446145560105e-08 2.001306231846911e-09 -3.384446145560105e-08 7.924048259155825e-05 1.1014568812584002e-08 2.001306231846911e-09 1.1014568812584002e-08 7.927861588541418e-05" pbc="T T T"
Sn       1.93055759       1.36511031       3.34382369       0.00000055      -0.00000068      -0.00000019
Sn       5.79167263       4.09533100      10.03147111       0.00000029       0.00000093       0.00000066
Ir      -0.00000002      -0.00000014       0.00000003      -0.00000035       0.00000163      -0.00000273
Se       2.00449082       1.41738911       6.68764721      -0.00002664      -0.00001816      -0.00000014
Se       5.71773895       4.04305207       6.68764718       0.00002511       0.00001709      -0.00000040
Se       4.78942679       1.41738921       5.07976380       0.00001378      -0.00001949      -0.00002450
Se       2.93280280       4.04305206       8.29553078      -0.00001395       0.00002097       0.00002512
Se       2.93280284       4.04305208       5.07976370      -0.00001353       0.00001885      -0.00002402
Se       4.78942693       1.41738920       8.29553065       0.00001469      -0.00002116       0.00002620
