9
Lattice="5.92517725814524 1.330425677817052e-07 3.4209029441292933 1.97505928708976 5.58631070343467 3.420902813172986 1.0690261521517128e-07 -8.479645477656679e-08 6.841805703097755" Properties=species:S:1:pos:R:3:forces:R:3 energy=-28.97077178955078 free_energy=-28.97077178955078 stress="5.354285895009525e-05 1.4607000053956654e-08 -1.2587727304946839e-08 1.4607000053956654e-08 5.354250970412977e-05 -3.653866897934677e-08 -1.2587727304946839e-08 -3.653866897934677e-08 5.3580704843625426e-05" pbc="T T T"
Sn       1.97505903       1.39657743       3.42090391      -0.00000149      -0.00000163       0.00000230
Sn       5.92517776       4.18973323      10.26270705      -0.00000120       0.00000026      -0.00000687
In      -0.00000007      -0.00000016      -0.00000029       0.00000247       0.00000303       0.00000085
Cl       2.02344931       1.43079446       6.84180555      -0.00034277      -0.00024222      -0.00000370
Cl       5.87678697       4.15551645       6.84180599       0.00033936       0.00024093       0.00000436
Cl       4.91345312       1.43079424       5.17326182       0.00017107      -0.00024405      -0.00029405
Cl       2.98678400       4.15551666       8.51035040      -0.00016835       0.00024252       0.00029512
Cl       2.98678336       4.15551593       5.17326108      -0.00017284       0.00024090      -0.00029531
Cl       4.91345312       1.43079475       8.51035030       0.00017374      -0.00023969       0.00029723
