9
Lattice="5.058206148481821 4.5100063198140935e-08 2.9203568398969058 1.6860687230903004 4.76892289025032 2.920356901542427 -6.066629899921163e-08 3.2602461061071546e-08 5.840713784870943" Properties=species:S:1:pos:R:3:forces:R:3 energy=-41.128997802734375 free_energy=-41.128997802734375 stress="0.00044648442417383194 -1.7950926078924567e-08 -3.474551490967315e-08 -1.7950926078924567e-08 0.00044649463961832225 2.176990321345329e-08 -3.474551490967315e-08 2.176990321345329e-08 0.0004465319507289678" pbc="T T T"
Sn       1.68606872       1.19223097       2.92035683      -0.00000060      -0.00000035       0.00000015
Sn       5.05820610       3.57669198       8.76107079       0.00000064       0.00000053      -0.00000082
In      -0.00000010      -0.00000002      -0.00000016       0.00000224      -0.00000250      -0.00000267
F        1.69999833       1.20208058       5.84071377      -0.00024706      -0.00017400       0.00000017
F        5.04427647       3.56684235       5.84071386       0.00024672       0.00017437      -0.00000085
F        4.20820682       1.20208060       4.39259893       0.00012382      -0.00017460      -0.00021488
F        2.53606816       3.56684230       7.28882857      -0.00012629       0.00017785       0.00021780
F        2.53606796       3.56684222       4.39259905      -0.00012290       0.00017395      -0.00021388
F        4.20820677       1.20208086       7.28882836       0.00012337      -0.00017531       0.00021489
