9
Lattice="4.82172985663123 -1.0655390371290966e-07 2.783827115546704 1.6072433095526926 4.545969948160408 2.783826899960193 2.227917449423412e-07 -1.065009339933759e-07 5.567653845206749" Properties=species:S:1:pos:R:3:forces:R:3 energy=-51.966407775878906 free_energy=-51.966407775878906 stress="6.589810800505802e-05 5.806494840498999e-09 -2.784983088588433e-08 5.806494840498999e-09 6.60075675114058e-05 2.0777882525635505e-08 -2.784983088588433e-08 2.0777882525635505e-08 6.595427839783952e-05" pbc="T T T"
Sn       1.60724307       1.13649209       2.78382699      -0.00000092       0.00000051      -0.00000011
Sn       4.82173012       3.40947736       8.35148087      -0.00000009      -0.00000060      -0.00000013
Ir      -0.00000023       0.00000017       0.00000041       0.00001419      -0.00001875      -0.00002931
O        1.54953950       1.09568955       5.56765421       0.00358732       0.00253586      -0.00000082
O        4.87943393       3.45028006       5.56765384      -0.00358734      -0.00253720      -0.00000158
O        4.04696050       1.09568913       4.12576739      -0.00180275       0.00254822       0.00312272
O        2.38201342       3.45028026       7.00954026       0.00178630      -0.00252397      -0.00309426
O        2.38201296       3.45028027       4.12576742       0.00179487      -0.00253991       0.00310899
O        4.04696035       1.09568987       7.00954040      -0.00179171       0.00253575      -0.00310557
