9
Lattice="4.721227145783681 -5.899952454186429e-08 2.7258016250614845 1.5737423910700437 4.451215245798636 2.7258015128809876 4.9489089888419373e-08 -1.0239838493153031e-07 5.451603164405338" Properties=species:S:1:pos:R:3:forces:R:3 energy=-43.16200637817383 free_energy=-43.16200637817383 stress="0.0005642588366754353 3.091752631689815e-08 3.210177013102111e-08 3.091752631689815e-08 0.0005641140742227435 -3.9816853814045317e-08 3.210177013102111e-08 -3.9816853814045317e-08 0.0005640553426928818" pbc="T T T"
Sn       1.57374167       1.11280388       2.72580114       0.00000036       0.00000204      -0.00000184
Sn       4.72122769       3.33841174       8.17740454      -0.00000135       0.00000068      -0.00000009
Mg       0.00000016      -0.00000000       0.00000101      -0.00000464      -0.00000284      -0.00001828
F        1.56438792       1.10618887       5.45160351      -0.00509301      -0.00360215      -0.00000024
F        4.73058140       3.34502579       5.45160306       0.00510092       0.00360558       0.00000029
F        3.93903396       1.10618879       4.08060056       0.00254299      -0.00359753      -0.00440338
F        2.35593651       3.34502575       6.82260550      -0.00255012       0.00360405       0.00441366
F        2.35593604       3.34502637       4.08060060      -0.00254635       0.00359727      -0.00440542
F        3.93903293       1.10618916       6.82260525       0.00255109      -0.00360714       0.00441492
