9
Lattice="6.649248571384292 8.022872573765232e-08 3.8389454041587423 2.216416184904414 6.268971927869141 3.8389455447967284 -1.4190085551692854e-07 7.190662220198785e-08 7.677891054096956" Properties=species:S:1:pos:R:3:forces:R:3 energy=-21.576414108276367 free_energy=-21.576414108276367 stress="-8.573118248023093e-05 3.090220968005042e-09 -9.445256798912283e-10 3.090220968005042e-09 -8.574925595894456e-05 8.974545551154733e-09 -9.445256798912283e-10 8.974545551154733e-09 -8.575034007662907e-05" pbc="T T T"
Sn       2.21641584       1.56724333       3.83894609      -0.00000175       0.00000050       0.00000280
Sn       6.64924831       4.70172843      11.51683712      -0.00000086      -0.00000308       0.00000274
Mg       0.00000031       0.00000020       0.00000039      -0.00000184      -0.00000183      -0.00000405
I        2.29569254       1.62330023       7.67789093      -0.00353350      -0.00249717      -0.00000243
I        6.56997152       4.64567165       7.67789089       0.00353666       0.00249978      -0.00000162
I        5.50140243       1.62330044       5.82707366       0.00176718      -0.00249625      -0.00306085
I        3.36426283       4.64567171       9.52870750      -0.00176916       0.00250065       0.00306220
I        3.36426259       4.64567201       5.82707346      -0.00176577       0.00249641      -0.00306011
I        5.50140207       1.62330031       9.52870796       0.00176904      -0.00249909       0.00306134
