9
Lattice="5.5842108632518475 6.000707149856706e-09 3.2240456803462068 1.8614036316397113 5.2648444399585035 3.2240456718621715 -4.054754969910548e-09 -1.325789066538069e-08 6.448091367715423" Properties=species:S:1:pos:R:3:forces:R:3 energy=-44.86967086791992 free_energy=-44.86967086791992 stress="0.00010852037667063996 -7.181718775228774e-09 -4.629690852908652e-09 -7.181718775228774e-09 0.00010850901890080422 5.257016599813369e-09 -4.629690852908652e-09 5.257016599813369e-09 0.00010850856779143214" pbc="T T T"
Sn       1.86140358       1.31621118       3.22404560      -0.00000041      -0.00000036      -0.00000004
Sn       5.58421087       3.94863331       9.67213709      -0.00000017      -0.00000003       0.00000048
Mo      -0.00000014      -0.00000014       0.00000002       0.00000012       0.00000028      -0.00000185
S        1.90233134       1.34515148       6.44809136       0.00006136       0.00004347      -0.00000008
S        5.54328315       3.91969308       6.44809137      -0.00006157      -0.00004356      -0.00000085
S        4.63304519       1.34515136       4.87151287      -0.00003088       0.00004417       0.00005442
S        2.81256947       3.91969302       8.02466974       0.00003012      -0.00004290      -0.00005338
S        2.81256927       3.91969305       4.87151301       0.00003145      -0.00004393       0.00005400
S        4.63304520       1.34515137       8.02466983      -0.00002982       0.00004275      -0.00005271
