9
Lattice="6.153331933955592 -5.37411463584386e-08 3.5526278668419295 2.05111057909802 5.801417004842737 3.552627892625459 4.51330560606378e-09 3.476961311275487e-08 7.105255725866594" Properties=species:S:1:pos:R:3:forces:R:3 energy=-31.83527183532715 free_energy=-31.83527183532715 stress="-5.854113260284066e-05 3.825980421368058e-09 -5.948290304758075e-09 3.825980421368058e-09 -5.853575567016378e-05 7.038740257314657e-09 -5.948290304758075e-09 7.038740257314657e-09 -5.8525169151835144e-05" pbc="T T T"
Sn       2.05110976       1.45035265       3.55262808      -0.00000399      -0.00000874       0.00000127
Sn       6.15333246       4.35106222      10.65788368       0.00000260      -0.00000081       0.00000069
Mn      -0.00000021       0.00000000       0.00000057       0.00000198       0.00000081      -0.00000436
Br       2.03482755       1.43884107       7.10525578       0.00536691       0.00379686      -0.00000031
Br       6.16961491       4.36257676       7.10525554      -0.00536974      -0.00379602      -0.00000039
Br       5.13591810       1.43884035       5.31484038      -0.00268386       0.00379725       0.00465110
Br       3.06852470       4.36257723       8.89567030       0.00268352      -0.00379136      -0.00464881
Br       3.06852464       4.36257720       5.31484082       0.00268521      -0.00379418       0.00465060
Br       5.13591815       1.43884047       8.89567078      -0.00268257       0.00379612      -0.00464977
