9
Lattice="4.713518099774922 -7.696974892393355e-07 2.7213534604030096 1.571172158818309 4.443949971741698 2.721353140715929 9.027889489270519e-07 2.4683330061495534e-07 5.442705357128379" Properties=species:S:1:pos:R:3:forces:R:3 energy=-54.97050476074219 free_energy=-54.97050476074219 stress="0.00023959644022397697 -5.662447506438184e-07 -2.432459744738935e-08 -5.662447506438184e-07 0.00023901576059870422 -1.5344448911491781e-07 -2.432459744738935e-08 -1.5344448911491781e-07 0.00023950025206431746" pbc="T T T"
Sn       1.57117298       1.11098603       2.72135553       0.00000266       0.00001706      -0.00001020
Sn       4.71351774       3.33296618       8.16406266       0.00000566      -0.00002770      -0.00002464
Mn       0.00000367      -0.00000045       0.00000220       0.00000066       0.00000152      -0.00001762
O        1.52963420       1.08161255       5.44270331      -0.00356925      -0.00253034       0.00000621
O        4.75506029       3.36233525       5.44270659       0.00355804       0.00252867       0.00000376
O        3.94870320       1.08161122       4.04605361       0.00179029      -0.00252795      -0.00309157
O        2.33599092       3.36233737       6.83935618      -0.00178367       0.00253832       0.00311863
O        2.33599183       3.36233717       4.04605122      -0.00180763       0.00253141      -0.00308239
O        3.94870310       1.08161217       6.83935758       0.00180256      -0.00253057       0.00309813
