9
Lattice="5.80321913856427 -1.2375432124521444e-08 3.3504902578140157 1.9344064046544394 5.471327692598125 3.350490194073309 1.086746077612402e-07 -1.22151293500967e-09 6.700980327398092" Properties=species:S:1:pos:R:3:forces:R:3 energy=-39.98394775390625 free_energy=-39.98394775390625 stress="0.0002940947888419032 -6.8986421020156286e-09 2.59736570029645e-08 -6.8986421020156286e-09 0.00029419668135233223 -3.477651588923436e-08 2.59736570029645e-08 -3.477651588923436e-08 0.0002941975835710764" pbc="T T T"
Sn       1.93440629       1.36783221       3.35049031      -0.00000050      -0.00000081       0.00000035
Sn       5.80321920       4.10349583      10.05147113      -0.00000010      -0.00000043       0.00000021
Mn       0.00000026       0.00000010      -0.00000040      -0.00000477      -0.00000143       0.00000376
Se       1.90663825       1.34819668       6.70098033      -0.00100872      -0.00071338       0.00000058
Se       5.83098728       4.12313076       6.70098037       0.00101393       0.00071704       0.00000033
Se       4.84990003       1.34819676       5.00168727       0.00050591      -0.00071609      -0.00087601
Se       2.88772557       4.12313089       8.40027337      -0.00050464       0.00071326       0.00087345
Se       2.88772556       4.12313055       5.00168744      -0.00050814       0.00071871      -0.00088093
Se       4.84990017       1.34819696       8.40027321       0.00050716      -0.00071701       0.00087836
