9
Lattice="6.118155720615588 -8.637911333606139e-08 3.532318895166576 2.039385165065211 5.7682526342887 3.532318884256436 -1.6167393414057838e-09 -1.4505377073026027e-08 7.064637793133435" Properties=species:S:1:pos:R:3:forces:R:3 energy=-36.111236572265625 free_energy=-36.111236572265625 stress="-0.000223528069909662 5.9948570552137426e-09 -3.7080563064506578e-09 5.9948570552137426e-09 -0.00022352527594193816 5.1190114369603634e-09 -3.7080563064506578e-09 5.1190114369603634e-09 -0.0002235329448012635" pbc="T T T"
Sn       2.03938517       1.44206301       3.53231904      -0.00000043      -0.00000076       0.00000066
Sn       6.11815579       4.32618974      10.59695725       0.00000024       0.00000060       0.00000153
Mn      -0.00000018       0.00000004       0.00000035      -0.00000089      -0.00000148      -0.00000435
Te       2.04527918       1.44623059       7.06463770      -0.00594112      -0.00420091      -0.00000020
Te       6.11226182       4.32202191       7.06463753       0.00594240       0.00420196      -0.00000066
Te       5.09551609       1.44623080       5.30358280       0.00297050      -0.00420026      -0.00514509
Te       3.06202474       4.32202177       8.82569241      -0.00297183       0.00420268       0.00514671
Te       3.06202490       4.32202178       5.30358273      -0.00297010       0.00420062      -0.00514449
Te       5.09551604       1.44623049       8.82569254       0.00297116      -0.00420253       0.00514591
