9
Lattice="4.922394114782423 3.8991986032952335e-07 2.8419454254455228 1.6407982742636067 4.640877922363273 2.8419456534132155 4.205561967532074e-08 3.0893996739079585e-07 5.683890778048645" Properties=species:S:1:pos:R:3:forces:R:3 energy=-46.41526412963867 free_energy=-46.41526412963867 stress="0.00015460319991689175 -8.5848661512955e-08 7.251284017684156e-08 -8.5848661512955e-08 0.00015462313604075462 -2.3856205899619454e-08 7.251284017684156e-08 -2.3856205899619454e-08 0.00015473364328499883" pbc="T T T"
Sn       1.64079845       1.16021994       2.84194614      -0.00000027      -0.00000095      -0.00000160
Sn       4.92239400       3.48065872       8.52583616       0.00000018      -0.00000022       0.00000092
Mn      -0.00000012      -0.00000087      -0.00000109       0.00000327       0.00002244       0.00002371
F        1.61131936       1.13937490       5.68389094      -0.00028545      -0.00020230      -0.00000071
F        4.95187400       3.50150416       5.68389071       0.00027272       0.00019267       0.00000156
F        4.11673478       1.13937496       4.23738804       0.00014587      -0.00020722      -0.00025457
F        2.44645661       3.50150474       7.13039494      -0.00013322       0.00019041       0.00023410
F        2.44645732       3.50150410       4.23738755      -0.00014330       0.00020173      -0.00024736
F        4.11673528       1.13937380       7.13039410       0.00014046      -0.00019658       0.00024411
