9
Lattice="5.776606476291982 -4.010098920919169e-09 3.335125153134968 1.9255354730190026 5.446236334700545 3.3351251796310297 7.777809382019901e-08 8.744844464517544e-08 6.670250171554378" Properties=species:S:1:pos:R:3:forces:R:3 energy=-35.768341064453125 free_energy=-35.768341064453125 stress="-1.942032395163551e-05 1.6779351241780205e-08 -9.732425532149591e-09 1.6779351241780205e-08 -1.9422024706727825e-05 -1.2000682225732362e-08 -9.732425532149591e-09 -1.2000682225732362e-08 -1.9428061932558194e-05" pbc="T T T"
Sn       1.92553478       1.36155835       3.33512485      -0.00000207      -0.00000408       0.00000049
Sn       5.77660717       4.08467766      10.00537577       0.00000030       0.00000230       0.00000357
Mn       0.00000010      -0.00000030      -0.00000067      -0.00000147       0.00000531       0.00000870
Cl       1.91063596       1.35102313       6.67024988      -0.00201268      -0.00142149       0.00000078
Cl       5.79150637       4.09521314       6.67025026       0.00201098       0.00142181      -0.00000117
Cl       4.82128825       1.35102355       4.98978422       0.00100994      -0.00142501      -0.00174535
Cl       2.88085330       4.09521377       8.35071702      -0.00100327       0.00141890       0.00173402
Cl       2.88085360       4.09521326       4.98978397      -0.00100593       0.00142334      -0.00173999
Cl       4.82128858       1.35102313       8.35071671       0.00100414      -0.00142107       0.00173891
