9
Lattice="6.549562076642254 -5.4338771066814426e-08 3.781391394136643 2.183187311834038 6.17498625707362 3.781391386889165 -7.690781219294438e-09 -1.4314480140323193e-08 7.56278280159411" Properties=species:S:1:pos:R:3:forces:R:3 energy=-27.962427139282227 free_energy=-27.962427139282227 stress="-0.00011490439646877348 3.1068196904016077e-08 -7.025164894258751e-09 3.1068196904016077e-08 -0.00011492079647723585 -9.042421811322754e-10 -7.025164894258751e-09 -9.042421811322754e-10 -0.00011492463818285614" pbc="T T T"
Sn       2.18318900       1.54374571       3.78139205       0.00000635      -0.00000251       0.00000285
Sn       6.54956154       4.63123856      11.34417409      -0.00000201      -0.00000542       0.00000079
Mn       0.00000023       0.00000006      -0.00000031      -0.00000020      -0.00000130       0.00000006
I        2.17824439       1.54025194       7.56278258       0.00176589       0.00125102      -0.00000110
I        6.55450429       4.63473507       7.56278278      -0.00176802      -0.00124698       0.00000039
I        5.46043908       1.54025212       5.66780633      -0.00088469       0.00124890       0.00152761
I        3.27231002       4.63473493       9.45775864       0.00088417      -0.00124718      -0.00152929
I        3.27230977       4.63473442       5.66780655       0.00088292      -0.00124774       0.00152781
I        5.46043927       1.54025197       9.45775949      -0.00088438       0.00125126      -0.00152912
