9
Lattice="6.131069042230331 4.5118674148929803e-08 3.5397743052549338 2.043689702468016 5.78042729386008 3.5397743413053746 -1.9920346625406965e-08 3.0066731551477944e-08 7.079548645012931" Properties=species:S:1:pos:R:3:forces:R:3 energy=-25.98880958557129 free_energy=-25.98880958557129 stress="-3.2822932553244755e-05 8.119316774468643e-09 6.220611581397861e-09 8.119316774468643e-09 -3.281480894656852e-05 3.7912402106599075e-09 6.220611581397861e-09 3.7912402106599075e-09 -3.281611134298146e-05" pbc="T T T"
Sn       2.04368994       1.44510604       3.53977427       0.00000256      -0.00000296       0.00000007
Sn       6.13106880       4.33532142      10.61932210      -0.00000198       0.00000289      -0.00000544
Mg       0.00000033      -0.00000015      -0.00000014      -0.00000398      -0.00000016      -0.00000142
Br       2.09998515       1.48491347       7.07954869      -0.00346536      -0.00245212       0.00000086
Br       6.07477335       4.29551376       7.07954886       0.00346970       0.00245583       0.00000195
Br       5.08107616       1.48491334       5.35841475       0.00173233      -0.00245505      -0.00300261
Br       3.09368246       4.29551414       8.80068292      -0.00173186       0.00245220       0.00300293
Br       3.09368216       4.29551376       5.35841467      -0.00173461       0.00245197      -0.00300144
Br       5.08107652       1.48491366       8.80068304       0.00173321      -0.00245263       0.00300516
