9
Lattice="4.826799473673466 9.53154289025837e-08 2.7867539613751777 1.60893323008172 4.55075021095594 2.786753991986836 5.5748903947958244e-08 7.69119225516419e-08 5.57350782619042" Properties=species:S:1:pos:R:3:forces:R:3 energy=-52.74831771850586 free_energy=-52.74831771850586 stress="-0.0002089804329443723 -1.9856665645079374e-08 3.854236041433978e-08 -1.9856665645079374e-08 -0.00020922742260154337 -7.091267661962775e-08 3.854236041433978e-08 -7.091267661962775e-08 -0.00020898377988487482" pbc="T T T"
Sn       1.60893333       1.13768783       2.78675382       0.00000126       0.00000092      -0.00000007
Sn       4.82679928       3.41306323       8.36026181      -0.00000059       0.00000513      -0.00000022
Mo      -0.00000004      -0.00000003       0.00000010      -0.00000118      -0.00000129       0.00000232
O        1.59119314       1.12514330       5.57350796       0.00395477       0.00279671       0.00000246
O        4.84453984       3.42560657       5.57350783      -0.00395203      -0.00279599      -0.00000046
O        4.03120283       1.12514316       4.16476791      -0.00197935       0.00279534       0.00342560
O        2.40453012       3.42560717       6.98224818       0.00197881      -0.00279999      -0.00342691
O        2.40452992       3.42560679       4.16476756       0.00197738      -0.00279623       0.00342369
O        4.03120257       1.12514331       6.98224822      -0.00197983       0.00279599      -0.00342584
