9
Lattice="5.513564634371528 2.9182381037653197e-08 3.1832580853677443 1.837854895739296 5.198238437622606 3.1832581025114615 -5.634195464134189e-09 1.701274213740749e-08 6.36651618049416" Properties=species:S:1:pos:R:3:forces:R:3 energy=-42.98200988769531 free_energy=-42.98200988769531 stress="0.0004143137775827199 8.80987993667759e-09 -6.760352277979109e-09 8.80987993667759e-09 0.000414333218941465 -2.524835063244524e-10 -6.760352277979109e-09 -2.524835063244524e-10 0.0004142997204326093" pbc="T T T"
Sn       1.83785488       1.29955980       3.18325788       0.00000004       0.00000019      -0.00000058
Sn       5.51356470       3.89867871       9.54977470       0.00000029       0.00000002       0.00000108
Mn       0.00000017       0.00000011      -0.00000004      -0.00000055       0.00000139      -0.00000017
S        1.80326005       1.27509735       6.36651647      -0.00330514      -0.00233597      -0.00000068
S        5.54815972       3.92314089       6.36651603       0.00330412       0.00233576       0.00000021
S        4.61193451       1.27509720       4.74492715       0.00165147      -0.00233603      -0.00286090
S        2.73948490       3.92314136       7.98810511      -0.00165123       0.00233555       0.00285971
S        2.73948494       3.92314141       4.74492713      -0.00165129       0.00233501      -0.00285974
S        4.61193434       1.27509718       7.98810508       0.00165239      -0.00233647       0.00286111
