9
Lattice="5.792131582052074 2.345198358283855e-08 3.344088720162183 1.9307105466274 5.460874044637894 3.3440887250708697 -7.422871000788578e-09 7.631275369281045e-10 6.688177453181162" Properties=species:S:1:pos:R:3:forces:R:3 energy=-30.058116912841797 free_energy=-30.058116912841797 stress="0.00037958170287311077 8.789919014873249e-09 1.3100452278536068e-08 8.789919014873249e-09 0.00037954223807901144 -1.8075468899425573e-09 1.3100452278536068e-08 -1.8075468899425573e-09 0.00037958871689625084" pbc="T T T"
Sn       1.93071055       1.36521854       3.34408875      -0.00000039      -0.00000001      -0.00000014
Sn       5.79213163       4.09565549      10.03226621       0.00000070       0.00000043       0.00000159
Mg      -0.00000004      -0.00000000      -0.00000022      -0.00000011       0.00000079      -0.00000057
Cl       1.95521484       1.38254569       6.68817739       0.00511447       0.00361627       0.00000004
Cl       5.76762742       4.07832839       6.68817733      -0.00511540      -0.00361662      -0.00000096
Cl       4.81452415       1.38254572       5.03735438      -0.00255717       0.00361681       0.00442958
Cl       2.90831781       4.07832847       8.33900066       0.00255822      -0.00361799      -0.00443037
Cl       2.90831790       4.07832838       5.03735441       0.00255705      -0.00361723       0.00443003
Cl       4.81452422       1.38254559       8.33900068      -0.00255725       0.00361758      -0.00442923
