9
Lattice="4.533649896396135 2.107526227908668e-08 2.617503964218036 1.5112166694398481 4.274366140069082 2.6175039340147666 3.9214090723303065e-08 -9.262768184783906e-09 5.235007860515324" Properties=species:S:1:pos:R:3:forces:R:3 energy=-44.220550537109375 free_energy=-44.220550537109375 stress="7.248613837873563e-05 -2.898521866967485e-09 6.407959496357307e-09 -2.898521866967485e-09 7.230378832900897e-05 8.285974573141175e-09 6.407959496357307e-09 8.285974573141175e-09 7.241596176754683e-05" pbc="T T T"
Sn       1.51121660       1.06859163       2.61750381      -0.00000011       0.00000087      -0.00000006
Sn       4.53364992       3.20577471       7.85251223      -0.00000105       0.00000033       0.00000084
Ni       0.00000007      -0.00000000      -0.00000004       0.00000125       0.00000315       0.00000389
O        1.46967959       1.03922040       5.23500809      -0.00222422      -0.00157382      -0.00000147
O        4.57518697       3.23514569       5.23500767       0.00222193       0.00156949      -0.00000365
O        3.79881038       1.03922017       3.89028374       0.00111172      -0.00157156      -0.00192415
O        2.24605651       3.23514570       6.57973210      -0.00111268       0.00157552       0.00192321
O        2.24605639       3.23514578       3.89028333      -0.00110915       0.00156730      -0.00192226
O        3.79880996       1.03922052       6.57973228       0.00111246      -0.00157103       0.00192332
