9
Lattice="4.868287866748355 9.546879151109258e-08 2.8107074214949987 1.622762669421759 4.589865781590018 2.8107074956900435 2.380067545419217e-07 2.5916619132821194e-07 5.621414430750162" Properties=species:S:1:pos:R:3:forces:R:3 energy=-56.72113800048828 free_energy=-56.72113800048828 stress="0.0004644528962671757 4.6909850226484195e-08 -8.133577011903981e-08 4.6909850226484195e-08 0.00046445472980849445 2.9642608367907997e-08 -8.133577011903981e-08 2.9642608367907997e-08 0.0004645361041184515" pbc="T T T"
Sn       1.62276435       1.14746714       2.81070746       0.00001159       0.00000328       0.00000524
Sn       4.86828761       3.44239966       8.43212505      -0.00000190       0.00000125       0.00002164
Nb       0.00000005       0.00000004       0.00000012      -0.00000253      -0.00000033       0.00000390
O        1.64223879       1.16123768       5.62141407      -0.00262916      -0.00186157      -0.00000346
O        4.84881152       3.42862835       5.62141364       0.00262952       0.00186539      -0.00000861
O        4.04716891       1.16123898       4.23292699       0.00131691      -0.00185919      -0.00228989
O        2.44388120       3.42862743       7.00990131      -0.00132293       0.00186026       0.00227892
O        2.44388221       3.42862753       4.23292698      -0.00131434       0.00185764      -0.00228596
O        4.04716839       1.16123802       7.00990147       0.00131220      -0.00186634       0.00227880
