9
Lattice="6.104018137618082 -8.755607908674212e-08 3.524156530036147 2.0346726685110665 5.754923426353925 3.524156463316959 2.4773940835327493e-08 -6.419616270912826e-08 7.04831301716256" Properties=species:S:1:pos:R:3:forces:R:3 energy=-32.718475341796875 free_energy=-32.718475341796875 stress="-0.00013246932940091938 -1.3125876385799984e-08 5.054315632690987e-09 -1.3125876385799984e-08 -0.00013244840374682099 -1.4474983878187686e-08 5.054315632690987e-09 -1.4474983878187686e-08 -0.00013244424189906567" pbc="T T T"
Sn       2.03467278       1.43873054       3.52415634      -0.00000048      -0.00000068      -0.00000049
Sn       6.10401793       4.31619270      10.57246984      -0.00000047       0.00000058       0.00000054
Ni      -0.00000025      -0.00000046      -0.00000021       0.00000302       0.00000565      -0.00000110
Te       2.07807841       1.46942301       7.04831306      -0.00204062      -0.00144354       0.00000012
Te       6.06061280       4.28550049       7.04831275       0.00203609       0.00144032      -0.00000049
Te       5.06497907       1.46942318       5.32382513       0.00101986      -0.00144223      -0.00176635
Te       3.07371191       4.28550026       8.77280099      -0.00101907       0.00144124       0.00176597
Te       3.07371199       4.28550035       5.32382528      -0.00101886       0.00144208      -0.00176544
Te       5.06497872       1.46942304       8.77280082       0.00102052      -0.00144340       0.00176729
