9
Lattice="6.3104563016654165 6.223983852386076e-08 3.6433436231966314 2.103485505888993 5.949555124848794 3.6433436001253887 3.084954419248299e-08 -6.442489417098537e-09 7.286687192960338" Properties=species:S:1:pos:R:3:forces:R:3 energy=-33.35924530029297 free_energy=-33.35924530029297 stress="0.00024080181901808828 2.0730286820480615e-08 2.7018909776188593e-08 2.0730286820480615e-08 0.0002407907013548538 -4.345811177586256e-08 2.7018909776188593e-08 -4.345811177586256e-08 0.00024078425485640764" pbc="T T T"
Sn       2.10348515       1.48738897       3.64334357      -0.00000045       0.00000140       0.00000096
Sn       6.31045627       4.46216653      10.93003092      -0.00000037       0.00000040      -0.00000047
Nb       0.00000026       0.00000007      -0.00000039      -0.00000222       0.00000196       0.00000123
Br       2.09189462       1.47919276       7.28668740      -0.00562507      -0.00397749      -0.00000007
Br       6.32204748       4.47036248       7.28668729       0.00562447       0.00397703      -0.00000041
Br       5.26450929       1.47919239       5.45497724       0.00281094      -0.00397477      -0.00486857
Br       3.14943251       4.47036244       9.11839736      -0.00280930       0.00397298       0.00486623
Br       3.14943261       4.47036240       5.45497719      -0.00281176       0.00397624      -0.00487104
Br       5.26450914       1.47919262       9.11839712       0.00281373      -0.00397784       0.00487202
