9
Lattice="5.687441526005632 -3.4833815429368125e-08 3.283645903745484 1.8958138146685861 5.362171328338153 3.283645894204704 1.0432895198697961e-09 -1.0947304178967687e-08 6.567291805683935" Properties=species:S:1:pos:R:3:forces:R:3 energy=-30.921829223632812 free_energy=-30.921829223632812 stress="0.00013099257193971425 1.52002925801753e-08 2.4164255041370097e-09 1.52002925801753e-08 0.00013102078810334206 6.4499960927832944e-09 2.4164255041370097e-09 6.4499960927832944e-09 0.00013104354729875922" pbc="T T T"
Sn       1.89581440       1.34054257       3.28364590       0.00000133      -0.00000247       0.00000012
Sn       5.68744142       4.02162880       9.85093709       0.00000017       0.00000140      -0.00000153
Ni       0.00000024       0.00000014      -0.00000006      -0.00000219       0.00000030      -0.00000108
Cl       1.87104787       1.32303052       6.56729188       0.00088449       0.00062586      -0.00000016
Cl       5.71220704       4.03914055       6.56729194      -0.00088222      -0.00062352       0.00000048
Cl       4.75191719       1.32303072       4.90402121      -0.00044286       0.00062507       0.00076398
Cl       2.83133796       4.03914066       8.23056264       0.00044124      -0.00062594      -0.00076441
Cl       2.83133778       4.03914052       4.90402127       0.00044230      -0.00062606       0.00076558
Cl       4.75191744       1.32303069       8.23056264      -0.00044209       0.00062536      -0.00076316
