9
Lattice="5.118959036300327 6.569099507255639e-08 2.9554323975740457 1.7063196948979535 4.826200916542207 2.955432476907001 -5.8974817282705116e-08 5.5461108710536325e-08 5.910864897295525" Properties=species:S:1:pos:R:3:forces:R:3 energy=-50.00914764404297 free_energy=-50.00914764404297 stress="2.6220364816254005e-05 -1.0912398096252218e-08 1.5437728873024525e-09 -1.0912398096252218e-08 2.6239187718601897e-05 3.848497076575086e-09 1.5437728873024525e-09 3.848497076575086e-09 2.6267591238138266e-05" pbc="T T T"
Sn       1.70631955       1.20655018       2.95543234       0.00000025       0.00000021       0.00000022
Sn       5.11895911       3.61965086       8.86629776       0.00000034       0.00000018      -0.00000036
Nb      -0.00000007      -0.00000005       0.00000004      -0.00000217      -0.00000141       0.00000360
F        1.66121154       1.17465403       5.91086496       0.00174597       0.00123440      -0.00000002
F        5.16406697       3.65154688       5.91086482      -0.00174370      -0.00123304       0.00000010
F        4.28835327       1.17465433       4.39408407      -0.00087188       0.00123250       0.00150988
F        2.53692552       3.65154674       7.42764563       0.00087251      -0.00123443      -0.00151214
F        2.53692561       3.65154695       4.39408407       0.00087157      -0.00123291       0.00151011
F        4.28835307       1.17465439       7.42764569      -0.00087282       0.00123441      -0.00151175
