9
Lattice="5.398300487306235 9.585707944344219e-08 3.116710273731033 1.7994335545119133 5.089566494459642 3.116710328518857 8.065416348290054e-08 1.2413219132406847e-07 6.233420407764974" Properties=species:S:1:pos:R:3:forces:R:3 energy=-38.174156188964844 free_energy=-38.174156188964844 stress="0.00037118856562301517 1.5167669786819715e-08 -1.3069223925299411e-08 1.5167669786819715e-08 0.000371172180166468 2.8238616778253345e-08 -1.3069223925299411e-08 2.8238616778253345e-08 0.0003711361496243626" pbc="T T T"
Sn       1.79943340       1.27239184       3.11671034       0.00000009       0.00000001      -0.00000083
Sn       5.39830067       3.81717512       9.35013071      -0.00000026       0.00000050       0.00000063
Ni      -0.00000030      -0.00000007      -0.00000002       0.00001042      -0.00000360       0.00000356
S        1.77834173       1.25747764       6.23342036      -0.00543705      -0.00384529       0.00000011
S        5.41939246       3.83208912       6.23342068       0.00543100       0.00384106      -0.00000069
S        4.50912964       1.25747750       4.65679916       0.00271721      -0.00384237      -0.00470510
S        2.68860453       3.83208900       7.81004178      -0.00271851       0.00384533       0.00470807
S        2.68860434       3.83208898       4.65679921      -0.00271715       0.00384469      -0.00470652
S        4.50913013       1.25747771       7.81004186       0.00271431      -0.00384016       0.00470079
