9
Lattice="5.7143603065411295 6.344380647245452e-08 3.2991875626132217 1.904786818999155 5.387550624155359 3.2991875793505265 8.348645584146063e-08 7.953274610767182e-08 6.598374980623632" Properties=species:S:1:pos:R:3:forces:R:3 energy=-35.59558868408203 free_energy=-35.59558868408203 stress="0.00015291127783712 -2.6435453825968125e-09 2.241827390392359e-09 -2.6435453825968125e-09 0.00015292561147361994 2.673375831818703e-08 2.241827390392359e-09 2.673375831818703e-08 0.00015291711315512657" pbc="T T T"
Sn       1.90478661       1.34688758       3.29918715      -0.00000083       0.00000076      -0.00000057
Sn       5.71436043       4.04066354       9.89756260      -0.00000049       0.00000082       0.00000070
Ni       0.00000003       0.00000004      -0.00000024       0.00000160      -0.00000757       0.00000988
Se       1.90552515       1.34740995       6.59837505      -0.00167501      -0.00118521      -0.00000011
Se       5.71362193       4.04014083       6.59837520       0.00167802       0.00118650       0.00000019
Se       4.76159765       1.34741016       4.94942079       0.00083987      -0.00118762      -0.00145400
Se       2.85754954       4.04014076       8.24732920      -0.00083838       0.00118545       0.00145200
Se       2.85754938       4.04014065       4.94942106      -0.00084041       0.00118840      -0.00145563
Se       4.76159812       1.34740953       8.24732976       0.00083558      -0.00118151       0.00144760
