9
Lattice="6.431237934700411 -1.9920981496228512e-08 3.7130768212786096 2.143745940424719 6.063429301210734 3.713076854234502 6.125740786357647e-09 4.469409572866819e-08 7.426153631947231" Properties=species:S:1:pos:R:3:forces:R:3 energy=-23.8299617767334 free_energy=-23.8299617767334 stress="-0.00012572179548442364 5.210725739779321e-10 1.0722321919232058e-09 5.210725739779321e-10 -0.00012571553816087544 -3.156207739607453e-09 1.0722321919232058e-09 -3.156207739607453e-09 -0.00012572124251164496" pbc="T T T"
Sn       2.14374603       1.51585775       3.71307700      -0.00000012       0.00000184       0.00000059
Sn       6.43123834       4.54757200      11.13923151       0.00000103      -0.00000047       0.00000454
Ni      -0.00000007      -0.00000008       0.00000006       0.00000058      -0.00000011       0.00000010
I        2.15216225       1.52180869       7.42615366      -0.00441769      -0.00312494      -0.00000018
I        6.42282162       4.54162055       7.42615305       0.00441706       0.00312366      -0.00000130
I        5.35515689       1.52180892       5.57690382       0.00220907      -0.00312430      -0.00382657
I        3.21982667       4.54162050       9.27540316      -0.00220968       0.00312385       0.00382502
I        3.21982715       4.54162049       5.57690386      -0.00220889       0.00312456      -0.00382704
I        5.35515667       1.52180855       9.27540311       0.00220858      -0.00312403       0.00382498
