9
Lattice="6.813809125643919 -4.236447299599377e-08 3.933954545097842 2.2712696439523143 6.424120923477023 3.933954587799965 -7.453155871146553e-08 -4.0260731306594874e-10 7.867909219288233" Properties=species:S:1:pos:R:3:forces:R:3 energy=-29.323867797851562 free_energy=-29.323867797851562 stress="5.721293200622313e-05 -9.734614891954152e-09 9.27104226722264e-10 -9.734614891954152e-09 5.722241257899441e-05 -2.1016473283896886e-10 9.27104226722264e-10 -2.1016473283896886e-10 5.723618596675806e-05" pbc="T T T"
Sn       2.27126945       1.60603009       3.93395453      -0.00000066      -0.00000089      -0.00000098
Sn       6.81380904       4.81809095      11.80186496       0.00000044       0.00000085       0.00000346
Nb      -0.00000040      -0.00000025      -0.00000045       0.00000634       0.00000349       0.00000228
I        2.26428977       1.60109480       7.86790929      -0.00147044      -0.00103965      -0.00000027
I        6.82078927       4.82302642       7.86790871       0.00146402       0.00103515      -0.00000101
I        5.68166414       1.60109491       5.89488710       0.00073481      -0.00103866      -0.00127297
I        3.40341437       4.82302618       9.84093112      -0.00073395       0.00103850       0.00127176
I        3.40341503       4.82302619       5.89488690      -0.00073455       0.00103979      -0.00127339
I        5.68166410       1.60109423       9.84093123       0.00073394      -0.00103853       0.00127115
