9
Lattice="4.7385742780017965 -7.440129019507041e-09 2.7358172510796877 1.5795247725666526 4.467570840178473 2.7358172160102345 3.3569895790988786e-08 -1.9213607037489436e-08 5.471634444014577" Properties=species:S:1:pos:R:3:forces:R:3 energy=-40.783573150634766 free_energy=-40.783573150634766 stress="0.00046454573748633265 -3.894479760901959e-08 -2.386255104624979e-08 -3.894479760901959e-08 0.000464629236375913 2.0693587288178605e-08 -2.386255104624979e-08 2.0693587288178605e-08 0.00046460836892947555" pbc="T T T"
Sn       1.57952508       1.11689208       2.73581692       0.00000170      -0.00000155      -0.00000174
Sn       4.73857487       3.35067768       8.20745093       0.00000176      -0.00000103      -0.00000223
Ni       0.00000000      -0.00000003       0.00000108      -0.00000104       0.00000393      -0.00002027
F        1.58247700       1.11898075       5.47163466      -0.00453518      -0.00320584      -0.00000038
F        4.73562198       3.34859071       5.47163482       0.00453193       0.00320435       0.00000071
F        3.94733555       1.11898025       4.10628278       0.00226466      -0.00320405      -0.00392240
F        2.37076342       3.34859037       6.83698581      -0.00227092       0.00321213       0.00393304
F        2.37076310       3.34859074       4.10628289      -0.00226405       0.00320229      -0.00392005
F        3.94733533       1.11898073       6.83698587       0.00227115      -0.00321040       0.00393350
