9
Lattice="5.929777452970145 1.478683783154883e-07 3.4235587521838124 1.9765924642325507 5.590648229216635 3.423559028450305 8.449246966762584e-09 3.443304601437785e-07 6.847117489733108" Properties=species:S:1:pos:R:3:forces:R:3 energy=-37.302040100097656 free_energy=-37.302040100097656 stress="7.369748345809057e-05 -6.327394430627464e-08 -2.019344336190443e-08 -6.327394430627464e-08 7.383150659734383e-05 1.033169141351209e-07 -2.019344336190443e-08 1.033169141351209e-07 7.37670052330941e-05" pbc="T T T"
Sn       1.97659210       1.39766266       3.42355868       0.00000167      -0.00000007      -0.00000190
Sn       5.92977775       4.19298587      10.27067681      -0.00000109      -0.00000163       0.00000148
Nb      -0.00000042       0.00000111       0.00000085       0.00000899      -0.00001365      -0.00001196
Cl       1.97237669       1.39468126       6.84711783      -0.00075826      -0.00053668      -0.00000091
Cl       5.93399319       4.19596760       6.84711764       0.00075954       0.00053528      -0.00000111
Cl       4.94358897       1.39468173       5.13168751       0.00038236      -0.00053775      -0.00065860
Cl       2.96278172       4.19596645       8.56254692      -0.00039126       0.00055301       0.00067759
Cl       2.96278062       4.19596694       5.13168722      -0.00038253       0.00053796      -0.00066072
Cl       4.94358904       1.39468140       8.56254755       0.00038067      -0.00053632       0.00065607
