9
Lattice="6.000001232864173 -4.9700741798535245e-08 3.4641022039695963 2.0000003832550193 5.656855375939729 3.4641021707860182 -2.3460614775905675e-08 -5.7230631097536985e-08 6.928204448574174" Properties=species:S:1:pos:R:3:forces:R:3 energy=-27.414424896240234 free_energy=-27.414424896240234 stress="-0.00014647239004261792 -6.86372139679925e-11 2.3405419824484852e-09 -6.86372139679925e-11 -0.00014646923227701336 1.3483339778019854e-08 2.3405419824484852e-09 1.3483339778019854e-08 -0.00014645804185420275" pbc="T T T"
Sn       2.00000015       1.41421380       3.46410212       0.00000018       0.00000063      -0.00000037
Sn       6.00000111       4.24264241      10.39230623       0.00000005       0.00000219      -0.00000002
Ni       0.00000005      -0.00000043       0.00000052      -0.00000174       0.00000313      -0.00001113
Br       1.97690350       1.39788153       6.92820436      -0.00157082      -0.00111164      -0.00000029
Br       6.02309847       4.25897348       6.92820467       0.00156909       0.00110970       0.00000034
Br       5.01154955       1.39788151       5.17615082       0.00078502      -0.00110966      -0.00135872
Br       2.98845207       4.25897347       8.68025819      -0.00078557       0.00111201       0.00136274
Br       2.98845202       4.25897380       5.17615045      -0.00078288       0.00110687      -0.00135621
Br       5.01154942       1.39788148       8.68025796       0.00078678      -0.00111300       0.00136349
