9
Lattice="4.842762294511296 2.8191841762206685e-08 2.7959699595933243 1.6142540947583366 4.565800323915352 2.7959700115403567 -9.218395291658695e-08 -1.5620737908004212e-09 5.59194007885395" Properties=species:S:1:pos:R:3:forces:R:3 energy=-56.34789276123047 free_energy=-56.34789276123047 stress="5.199907172936946e-05 8.896278380632339e-09 -2.075032057291537e-08 8.896278380632339e-09 5.198201324674301e-05 5.871650188282729e-08 -2.075032057291537e-08 5.871650188282729e-08 5.186201087781228e-05" pbc="T T T"
Sn       1.61425408       1.14145008       2.79597014       0.00000023       0.00000043       0.00000103
Sn       4.84276220       3.42435054       8.38790992      -0.00000185       0.00000177       0.00000006
Os      -0.00000004       0.00000016      -0.00000017      -0.00000335      -0.00000196       0.00000735
O        1.53126518       1.08276792       5.59193999      -0.00111377      -0.00078684       0.00000108
O        4.92575126       3.48303221       5.59194013       0.00111568       0.00078875       0.00000002
O        4.07712956       1.08276791       4.12208447       0.00055975      -0.00079060      -0.00096694
O        2.37988661       3.48303236       7.06179571      -0.00055487       0.00078431       0.00095984
O        2.37988673       3.48303233       4.12208433      -0.00055629       0.00078648      -0.00096083
O        4.07712961       1.08276779       7.06179551       0.00055403      -0.00078258       0.00095829
