9
Lattice="5.782417828143059 5.2172153360601366e-08 3.3384805655659706 1.9274726232175965 5.451716043141133 3.338480626797025 -2.766219236289721e-08 5.543236741022959e-08 6.6769611790442704" Properties=species:S:1:pos:R:3:forces:R:3 energy=-41.06253433227539 free_energy=-41.06253433227539 stress="5.102801515022293e-05 9.996262484435192e-09 -9.22112786128082e-09 9.996262484435192e-09 5.104171214043163e-05 8.750423496906024e-09 -9.22112786128082e-09 8.750423496906024e-09 5.0986476708203554e-05" pbc="T T T"
Sn       1.92747260       1.36292873       3.33848035       0.00000090       0.00000087      -0.00000051
Sn       5.78241772       4.08878687      10.01544165       0.00000047      -0.00000018      -0.00000008
Os       0.00000005       0.00000010      -0.00000016      -0.00000068       0.00000043       0.00000111
Se       2.00038044       1.41448287       6.67696111      -0.00003424      -0.00002444       0.00000001
Se       5.70951004       4.03723344       6.67696115       0.00003424       0.00002438       0.00000020
Se       4.78222746       1.41448307       5.07086109       0.00001775      -0.00002533      -0.00002959
Se       2.92766278       4.03723352       8.28306163      -0.00001641       0.00002339       0.00002906
Se       2.92766288       4.03723340       5.07086109      -0.00001779       0.00002435      -0.00002855
Se       4.78222764       1.41448273       8.28306168       0.00001578      -0.00002354       0.00002867
