9
Lattice="5.4893474037877095 6.192875199806887e-08 3.169276237664907 1.8297825297207269 5.175406295979059 3.1692762317681296 4.0100947656394844e-08 2.1133600222047974e-08 6.338552405872993" Properties=species:S:1:pos:R:3:forces:R:3 energy=-43.817169189453125 free_energy=-43.817169189453125 stress="0.0004810639366041869 -4.408661435917338e-09 1.1221337636868611e-08 -4.408661435917338e-09 0.00048105642781592906 -3.6177529860736968e-09 1.1221337636868611e-08 -3.6177529860736968e-09 0.0004810452810488641" pbc="T T T"
Sn       1.82978253       1.29385167       3.16927639       0.00000117       0.00000063       0.00000090
Sn       5.48934731       3.88155474       9.50782885      -0.00000030       0.00000022      -0.00000031
Os      -0.00000009      -0.00000005      -0.00000012       0.00000111       0.00000116       0.00000032
S        1.89280661       1.33841645       6.33855237      -0.00719148      -0.00508583       0.00000086
S        5.42632346       3.83699019       6.33855246       0.00718987       0.00508410      -0.00000045
S        4.54294412       1.33841629       4.80849438       0.00359580      -0.00508529      -0.00622696
S        2.77618567       3.83699020       7.86861027      -0.00359565       0.00508457       0.00622624
S        2.77618580       3.83698996       4.80849448      -0.00359505       0.00508559      -0.00622684
S        4.54294455       1.33841615       7.86861042       0.00359458      -0.00508463       0.00622582
