9
Lattice="5.025370897294444 -1.356065039808599e-07 2.901399107494024 1.6751235577343755 4.737964899251861 2.9013990154287392 2.6532542720017233e-08 -9.399516373737456e-08 5.802798169032326" Properties=species:S:1:pos:R:3:forces:R:3 energy=-40.07207107543945 free_energy=-40.07207107543945 stress="0.0004057065525557846 1.9860040723074235e-08 -6.855761292001716e-09 1.9860040723074235e-08 0.0004056641773786396 2.3405894111760972e-08 -6.855761292001716e-09 2.3405894111760972e-08 0.00040562846697866917" pbc="T T T"
Sn       1.67512365       1.18449109       2.90139914      -0.00000027      -0.00000008      -0.00000011
Sn       5.02537069       3.55347353       8.70419734       0.00000023       0.00000036      -0.00000011
Pt       0.00000013      -0.00000003       0.00000015      -0.00000895      -0.00000701      -0.00000385
F        1.67289499       1.18291520       5.80279819      -0.00183806      -0.00130001      -0.00000015
F        5.02759944       3.55504951       5.80279842       0.00184587       0.00130504       0.00000005
F        4.18892324       1.18291537       4.35016858       0.00092013      -0.00130102      -0.00159431
F        2.51157143       3.55504939       7.25542744      -0.00092074       0.00130326       0.00159609
F        2.51157104       3.55504942       4.35016841      -0.00091857       0.00130025      -0.00159216
F        4.18892331       1.18291522       7.25542760       0.00092074      -0.00130081       0.00159442
