9
Lattice="5.863495471730231 1.0603334021403851e-07 3.3852907467920708 1.9544986022513917 5.528156737603395 3.3852907265176744 8.203349970586564e-08 3.3175469952035305e-08 6.7705813514979685" Properties=species:S:1:pos:R:3:forces:R:3 energy=-30.496570587158203 free_energy=-30.496570587158203 stress="0.00016728421906009316 4.303286260665118e-08 2.2707450142434027e-08 4.303286260665118e-08 0.00016723656153772026 2.6096877991932388e-09 2.2707450142434027e-08 2.6096877991932388e-09 0.00016723551379982382" pbc="T T T"
Sn       1.95449857       1.38203887       3.38529089       0.00000112      -0.00000269       0.00000202
Sn       5.86349499       4.14611775      10.15587285      -0.00000525       0.00000066       0.00000513
Pt       0.00000013      -0.00000004       0.00000017       0.00000211       0.00000431      -0.00000385
Cl       1.92487975       1.36109547       6.77058144      -0.00420976      -0.00297688       0.00000003
Cl       5.89311479       4.16706185       6.77058108       0.00420594       0.00297460      -0.00000214
Cl       4.90105601       1.36109535       5.05228467       0.00210149      -0.00296903      -0.00363986
Cl       2.91693814       4.16706180       8.48887782      -0.00209998       0.00296949       0.00363737
Cl       2.91693822       4.16706168       5.05228465      -0.00209892       0.00297275      -0.00363944
Cl       4.90105602       1.36109477       8.48887772       0.00210315      -0.00297320       0.00364065
