9
Lattice="5.705461048985547 -2.143740560277989e-08 3.294049462760576 1.9018203425661013 5.379160317619634 3.294049440043634 -1.2902850565482299e-08 -3.694616227267332e-08 6.588098947869542" Properties=species:S:1:pos:R:3:forces:R:3 energy=-33.25012969970703 free_energy=-33.25012969970703 stress="0.00014352546713780612 1.756489886872714e-08 1.334500421279472e-08 1.756489886872714e-08 0.00014350525452755392 1.5387533025545963e-08 1.334500421279472e-08 1.5387533025545963e-08 0.00014351772551890463" pbc="T T T"
Sn       1.90182041       1.34478999       3.29404955       0.00000130       0.00000087      -0.00000005
Sn       5.70546113       4.03437025       9.88214855      -0.00000097      -0.00000003       0.00000100
Pb       0.00000023      -0.00000010      -0.00000020      -0.00000035      -0.00000115      -0.00000007
S        2.08139713       1.47177006       6.58809896       0.00146729       0.00103703       0.00000008
S        5.52588434       3.90739014       6.58809853      -0.00146621      -0.00103610       0.00000043
S        4.66476253       1.47177017       5.09659181      -0.00073360       0.00103655       0.00127038
S        2.94251891       3.90739063       8.07960590       0.00073377      -0.00103731      -0.00127155
S        2.94251885       3.90739022       5.09659200       0.00073323      -0.00103717       0.00127097
S        4.66476198       1.47176966       8.07960627      -0.00073456       0.00103723      -0.00127116
