9
Lattice="5.179342189593001 -1.4952620382411933e-08 2.990294497862248 1.7264473981900357 4.883130409550255 2.99029447057119 2.7546040973831493e-08 -1.394657538911966e-08 5.980588948013368" Properties=species:S:1:pos:R:3:forces:R:3 energy=-40.07757568359375 free_energy=-40.07757568359375 stress="0.00035957491490989923 -1.939471871992282e-08 2.903266960174733e-08 -1.939471871992282e-08 0.00035957907675765455 -4.649091067676636e-08 2.903266960174733e-08 -4.649091067676636e-08 0.0003595826856326312" pbc="T T T"
Sn       1.72644719       1.22078268       2.99029441      -0.00000021       0.00000022       0.00000025
Sn       5.17934221       3.66234791       8.97088357      -0.00000000       0.00000015      -0.00000003
Pb       0.00000008       0.00000003       0.00000016      -0.00000106       0.00000121       0.00000077
F        1.77627040       1.25601240       5.98058909      -0.00104238      -0.00073729       0.00000015
F        5.12951950       3.62711769       5.98058883       0.00104276       0.00073725       0.00000011
F        4.29120744       1.25601255       4.52858968       0.00052149      -0.00073747      -0.00090261
F        2.61458235       3.62711776       7.43258844      -0.00052077       0.00073577       0.00090128
F        2.61458232       3.62711783       4.52858953      -0.00052259       0.00073919      -0.00090475
F        4.29120711       1.25601267       7.43258797       0.00052261      -0.00073897       0.00090475
