9
Lattice="4.904878503486524 9.790417593344182e-08 2.8318328352574893 1.6349595868250242 4.624363697488618 2.8318328467618032 1.315583334965098e-07 1.0711571447563531e-07 5.66366544264923" Properties=species:S:1:pos:R:3:forces:R:3 energy=-43.343223571777344 free_energy=-43.343223571777344 stress="9.500155101704877e-06 3.20050084212653e-08 -4.553001531348855e-09 3.20050084212653e-08 9.452702215639874e-06 -2.555183442609632e-08 -4.553001531348855e-09 -2.555183442609632e-08 9.476243576500565e-06" pbc="T T T"
Sn       1.63495976       1.15609076       2.83183146       0.00000251      -0.00000146      -0.00001051
Sn       4.90487902       3.46827318       8.49549795       0.00000240       0.00000360      -0.00000302
Pb      -0.00000009      -0.00000006      -0.00000023      -0.00000224      -0.00000087      -0.00000471
O        1.68203342       1.18937724       5.66366636       0.00051266       0.00036427       0.00000614
O        4.85780496       3.43498655       5.66366592      -0.00051165      -0.00036162       0.00000248
O        4.06386190       1.18937696       4.28851649      -0.00025761       0.00036263       0.00044894
O        2.47597632       3.43498676       7.03881505       0.00025679      -0.00036600      -0.00044599
O        2.47597612       3.43498697       4.28851656       0.00025724      -0.00036290       0.00045037
O        4.06386160       1.18937697       7.03881509      -0.00026003       0.00036263      -0.00044364
