9
Lattice="5.50224814559651 -2.3163754053152316e-08 3.176724450123622 1.834082701007023 5.187569206723206 3.1767244368783407 -7.489596307610318e-09 -2.1518006824846272e-08 6.353448913219593" Properties=species:S:1:pos:R:3:forces:R:3 energy=-39.42770004272461 free_energy=-39.42770004272461 stress="5.3075265896040946e-05 5.169686900785564e-09 -1.094343282659338e-08 5.169686900785564e-09 5.301646888256073e-05 2.96114954778659e-09 -1.094343282659338e-08 2.96114954778659e-09 5.3039828344481066e-05" pbc="T T T"
Sn       1.83408271       1.29689236       3.17672445       0.00000061      -0.00000064      -0.00000038
Sn       5.50224816       3.89067675       9.53017326      -0.00000180       0.00000073       0.00000011
Pt       0.00000001      -0.00000006       0.00000022      -0.00000273       0.00000242      -0.00000079
S        1.88440330       1.33247452       6.35344896       0.00043595       0.00030831      -0.00000026
S        5.45192737       3.85509470       6.35344891      -0.00043410      -0.00030756      -0.00000001
S        4.56004641       1.33247448       4.80866573      -0.00021684       0.00030690       0.00037694
S        2.77628449       3.85509476       7.89823193       0.00021765      -0.00030819      -0.00037807
S        2.77628443       3.85509480       4.80866585       0.00021827      -0.00030887       0.00037926
S        4.56004641       1.33247435       7.89823193      -0.00021714       0.00030684      -0.00037688
