9
Lattice="6.941950796185564 7.682236919813736e-08 4.007937132853488 2.3139837063971673 6.544933795317447 4.007937071816312 7.31323937389636e-08 -2.3042532566646152e-08 8.015874139037988" Properties=species:S:1:pos:R:3:forces:R:3 energy=-21.411781311035156 free_energy=-21.411781311035156 stress="7.025894592516124e-05 1.3994586822718702e-08 -3.793474423474663e-09 1.3994586822718702e-08 7.024547085165977e-05 -2.442187119200412e-09 -3.793474423474663e-09 -2.442187119200412e-09 7.022279896773398e-05" pbc="T T T"
Sn       2.31398297       1.63623308       4.00793681      -0.00000162      -0.00000087      -0.00000062
Sn       6.94195112       4.90870074      12.02381184      -0.00000012       0.00000143       0.00000314
Pb      -0.00000024       0.00000003       0.00000028       0.00000239       0.00000013      -0.00000145
I        2.50119557       1.76861205       8.01587423      -0.00286286      -0.00202634       0.00000013
I        6.75473935       4.77632169       8.01587422       0.00286171       0.00202476      -0.00000188
I        5.69135368       1.76861199       6.17403538       0.00143214      -0.00202303      -0.00247617
I        3.56458124       4.77632154       9.85771262      -0.00143296       0.00202446       0.00247768
I        3.56458140       4.77632212       6.17403560      -0.00142964       0.00202411      -0.00247864
I        5.69135323       1.76861213       9.85771237       0.00143096      -0.00202470       0.00247790
