9
Lattice="6.160176417837206 -6.539690918982661e-09 3.5565795030739014 2.0533920739509837 5.8078701828305554 3.5565796055462977 -1.9415688420505394e-08 1.1177347303209711e-07 7.113159039776738" Properties=species:S:1:pos:R:3:forces:R:3 energy=-27.44234275817871 free_energy=-27.44234275817871 stress="-1.9416906070546247e-05 -2.0912963805130858e-08 -1.181829833996062e-08 -2.0912963805130858e-08 -1.9394410628592595e-05 1.4888552613001593e-08 -1.181829833996062e-08 1.4888552613001593e-08 -1.936480293807108e-05" pbc="T T T"
Sn       2.05339242       1.45196732       3.55657950       0.00000056      -0.00000214       0.00000062
Sn       6.16017631       4.35590313      10.66973759      -0.00000027       0.00000197      -0.00000312
Pt      -0.00000044      -0.00000138      -0.00000076       0.00000780       0.00002347       0.00001743
Br       2.02594451       1.43255910       7.11315917      -0.00088382      -0.00062563      -0.00000025
Br       6.18762457       4.37531170       7.11315935       0.00086968       0.00061493       0.00000104
Br       5.14720383       1.43255908       5.31109955       0.00044324      -0.00062954      -0.00076933
Br       3.06636418       4.37531184       8.91521973      -0.00043508       0.00061590       0.00075516
Br       3.06636418       4.37531146       5.31109897      -0.00044031       0.00062101      -0.00076199
Br       5.14720436       1.43255888       8.91521948       0.00043815      -0.00062003       0.00076045
