9
Lattice="5.900696347528568 5.9684385742320386e-09 3.4067686197982967 1.966898774341566 5.563229858473227 3.4067686436920264 1.9067231930779694e-09 3.061198938852044e-08 6.813537236294047" Properties=species:S:1:pos:R:3:forces:R:3 energy=-31.697710037231445 free_energy=-31.697710037231445 stress="0.00018101053137797862 1.6240216282881192e-08 1.0929189109276649e-08 1.6240216282881192e-08 0.00018098166037816554 -7.497680698520526e-09 1.0929189109276649e-08 -7.497680698520526e-09 0.00018095967243425548" pbc="T T T"
Sn       1.96689892       1.39080765       3.40676855       0.00000044       0.00000018      -0.00000030
Sn       5.90069630       4.17242252      10.22030572      -0.00000092      -0.00000032      -0.00000104
Pb      -0.00000014      -0.00000009       0.00000020      -0.00000053       0.00000058       0.00000153
Se       2.31565381       1.63741412       6.81353716       0.00633905       0.00448094      -0.00000089
Se       5.55194163       3.92581570       6.81353717      -0.00633761      -0.00448120      -0.00000060
Se       4.74286951       1.63741410       5.41218343      -0.00316960       0.00448142       0.00548820
Se       3.12472564       3.92581523       8.21489128       0.00317088      -0.00448392      -0.00548853
Se       3.12472541       3.92581557       5.41218334       0.00316805      -0.00448141       0.00548883
Se       4.74286940       1.63741480       8.21489123      -0.00316973       0.00448377      -0.00548727
