9
Lattice="5.786552283156813 1.3304602147765134e-07 3.3408676929902517 1.9288509187873637 5.455614058729678 3.340867637048299 1.1046295806133619e-07 9.594489085580141e-09 6.6817351946530685" Properties=species:S:1:pos:R:3:forces:R:3 energy=-36.649696350097656 free_energy=-36.649696350097656 stress="0.00017815543105825782 -2.529835896325494e-09 2.504811291714759e-08 -2.529835896325494e-09 0.00017808367556426674 -4.618495452746174e-08 2.504811291714759e-08 -4.618495452746174e-08 0.00017805310199037194" pbc="T T T"
Sn       1.92885084       1.36390349       3.34086773       0.00000115      -0.00000100       0.00000099
Sn       5.78655253       4.09171074      10.02260307      -0.00000105       0.00000037      -0.00000044
Pt       0.00000006       0.00000016       0.00000010      -0.00000165      -0.00000060       0.00000316
Se       2.00102306       1.41493709       6.68173500      -0.00101982      -0.00072023      -0.00000033
Se       5.71438015       4.04067714       6.68173539       0.00102174       0.00072181      -0.00000023
Se       4.78604074       1.41493707       5.07380443       0.00050897      -0.00071992      -0.00088169
Se       2.92936246       4.04067696       8.28966596      -0.00050844       0.00071913       0.00088006
Se       2.92936254       4.04067700       5.07380454      -0.00051069       0.00072284      -0.00088415
Se       4.78604087       1.41493712       8.28966593       0.00050981      -0.00072251       0.00088280
