9
Lattice="6.341514970569365 -1.2171471218048022e-08 3.6612753251107035 2.1138383126034617 5.978837702874729 3.661275324148161 -9.330986586720494e-09 -7.77684544924711e-09 7.322550666383131" Properties=species:S:1:pos:R:3:forces:R:3 energy=-24.936182022094727 free_energy=-24.936182022094727 stress="9.173935541184619e-05 5.826520599327978e-09 5.786583212596952e-09 5.826520599327978e-09 9.172745194518939e-05 9.112173238179366e-09 5.786583212596952e-09 9.112173238179366e-09 9.173507714876905e-05" pbc="T T T"
Sn       2.11383812       1.49471008       3.66127574      -0.00000116       0.00000234       0.00000401
Sn       6.34151497       4.48412804      10.98382611       0.00000088      -0.00000089      -0.00000154
Pb       0.00000019      -0.00000028      -0.00000021      -0.00000075       0.00000426       0.00000305
Br       2.24575410       1.58798799       7.32255046      -0.00187971      -0.00132750      -0.00000070
Br       6.20959938       4.39084971       7.32255056       0.00187752       0.00132623       0.00000030
Br       5.21863760       1.58798808       5.60615553       0.00094067      -0.00133011      -0.00162902
Br       3.23671512       4.39084988       9.03894603      -0.00093780       0.00132624       0.00162378
Br       3.23671530       4.39084941       5.60615508      -0.00093941       0.00132629      -0.00162621
Br       5.21863830       1.58798785       9.03894597       0.00093964      -0.00132686       0.00162638
