9
Lattice="6.572824510078511 -9.987998891143754e-08 3.7948219872474285 2.190941404562503 6.196918462263918 3.7948219952654405 3.127988980195722e-08 3.1938263253253586e-08 7.589643920316439" Properties=species:S:1:pos:R:3:forces:R:3 energy=-24.317974090576172 free_energy=-24.317974090576172 stress="0.00013258043327368796 -9.83552883582206e-09 -8.231502590660966e-09 -9.83552883582206e-09 0.00013259347178973258 6.416418507626531e-09 -8.231502590660966e-09 6.416418507626531e-09 0.00013259791012387723" pbc="T T T"
Sn       2.19094128       1.54923013       3.79482236      -0.00000088       0.00000178       0.00000198
Sn       6.57282477       4.64768807      11.38446553       0.00000146      -0.00000417      -0.00000234
Pt       0.00000013       0.00000006       0.00000010       0.00000047      -0.00000083      -0.00000001
I        2.20026151       1.55582054       7.58964390       0.00042925       0.00030527      -0.00000015
I        6.56350423       4.64109788       7.58964399      -0.00042958      -0.00030454       0.00000065
I        5.47269357       1.55582011       5.70030454      -0.00021430       0.00030320       0.00037189
I        3.29107243       4.64109834       9.47898328       0.00021412      -0.00030246      -0.00037101
I        3.29107216       4.64109809       5.70030452       0.00021360      -0.00030401       0.00037146
I        5.47269368       1.55582034       9.47898341      -0.00021418       0.00030580      -0.00037252
