9
Lattice="6.5625719971400835 -3.811088485182511e-08 3.7889026083443533 2.1875239873767787 6.1872519572877485 3.788902566322403 6.1473582696325425e-09 -4.711934635018976e-08 7.577805206041161" Properties=species:S:1:pos:R:3:forces:R:3 energy=-28.713987350463867 free_energy=-28.713987350463867 stress="6.053393008187413e-05 1.0325791777177074e-08 7.009080427167191e-09 1.0325791777177074e-08 6.053372999303974e-05 -1.1217156981047083e-08 7.009080427167191e-09 -1.1217156981047083e-08 6.051948366803117e-05" pbc="T T T"
Sn       2.18752413       1.54681334       3.78890243       0.00000120       0.00000275      -0.00000065
Sn       6.56257209       4.64043898      11.36670745      -0.00000012      -0.00000001       0.00000012
Pb      -0.00000006      -0.00000023      -0.00000022       0.00000068       0.00000029       0.00000011
Te       2.49871017       1.76685484       7.57780528       0.00115582       0.00081810      -0.00000026
Te       6.25138592       4.42039715       7.57780521      -0.00115580      -0.00081763      -0.00000009
Te       5.31321696       1.76685452       5.95284910      -0.00057853       0.00081781       0.00100225
Te       3.43687892       4.42039700       9.20276173       0.00057862      -0.00082036      -0.00100181
Te       3.43687894       4.42039703       5.95284900       0.00057744      -0.00081936       0.00100153
Te       5.31321689       1.76685485       9.20276153      -0.00057933       0.00081841      -0.00100116
