9
Lattice="4.6877484116848835 1.2266579995119217e-07 2.7064727198700065 1.562582835965073 4.419652061676223 2.706472864635342 -7.762505277410906e-08 1.2241139733773555e-07 5.412945574190531" Properties=species:S:1:pos:R:3:forces:R:3 energy=-45.38657760620117 free_energy=-45.38657760620117 stress="0.00034449578379280865 7.135927404533504e-08 -4.8195346380452975e-08 7.135927404533504e-08 0.0003445002075750381 8.299240761289184e-08 -4.8195346380452975e-08 8.299240761289184e-08 0.00034440497984178364" pbc="T T T"
Sn       1.56258296       1.10491251       2.70647260       0.00000068      -0.00000456      -0.00000068
Sn       4.68774775       3.31473946       8.11941785      -0.00000316       0.00000166      -0.00000126
Pd       0.00000007       0.00000002       0.00000004      -0.00000580      -0.00000314      -0.00000112
O        1.58552172       1.12113343       5.41294563      -0.00164658      -0.00116363       0.00000005
O        4.66480935       3.29851885       5.41294571       0.00165153       0.00116903       0.00000120
O        3.89498740       1.12113292       4.07957493       0.00082362      -0.00116715      -0.00142694
O        2.35534394       3.29851941       6.74631637      -0.00082257       0.00116837       0.00142649
O        2.35534420       3.29851908       4.07957481      -0.00081816       0.00116187      -0.00142348
O        3.89498736       1.12113342       6.74631659       0.00082037      -0.00116262       0.00142574
