9
Lattice="6.044020588927487 -3.3334706519912977e-10 3.489516938182687 2.014673491291284 5.698357186312273 3.4895170040645955 2.546593741331338e-08 9.869566010687982e-08 6.979033832257046" Properties=species:S:1:pos:R:3:forces:R:3 energy=-28.487512588500977 free_energy=-28.487512588500977 stress="0.00012621252972166985 1.7280649799999992e-08 1.1719213155458874e-08 1.7280649799999992e-08 0.0001261955185327679 -1.0261662630739465e-08 1.1719213155458874e-08 -1.0261662630739465e-08 0.00012620950292330235" pbc="T T T"
Sn       2.01467321       1.42458923       3.48951642      -0.00000174      -0.00000074      -0.00000195
Sn       6.04401997       4.27376689      10.46855032      -0.00000279      -0.00000473      -0.00000254
Pb       0.00000024       0.00000045       0.00000012      -0.00000074      -0.00000368       0.00000046
Cl       2.12322268       1.50134537       6.97903408      -0.00064959      -0.00045776       0.00000064
Cl       5.93547151       4.19701211       6.97903438       0.00065258       0.00046122       0.00000158
Cl       4.98240976       1.50134533       5.32828145       0.00032508      -0.00045579      -0.00056060
Cl       3.07628483       4.19701241       8.62978611      -0.00032333       0.00045850       0.00056264
Cl       3.07628463       4.19701221       5.32828185      -0.00032369       0.00045975      -0.00056221
Cl       4.98240961       1.50134517       8.62978636       0.00032435      -0.00045677       0.00056198
