9
Lattice="4.7882107176629525 8.074958892320322e-08 2.7644747952638724 1.5960703091666926 4.514368468385491 2.7644748059778856 4.475969705712361e-08 4.477181000737352e-08 5.528949513001638" Properties=species:S:1:pos:R:3:forces:R:3 energy=-47.33111572265625 free_energy=-47.33111572265625 stress="0.00017032359028235078 2.9428258940811247e-08 -3.791674529907141e-08 2.9428258940811247e-08 0.00017037807265296578 4.5946546123332155e-08 -3.791674529907141e-08 4.5946546123332155e-08 0.00017039774684235454" pbc="T T T"
Sn       1.59607108       1.12859248       2.76447503       0.00000570       0.00000086       0.00000706
Sn       4.78821070       3.38577610       8.29342469       0.00000158      -0.00000010       0.00000550
Pt       0.00000042       0.00000015       0.00000034      -0.00004169      -0.00001881      -0.00001868
O        1.58272935       1.11915859       5.52894852       0.00287381       0.00203285      -0.00000182
O        4.80155099       3.39520981       5.52894925      -0.00284129      -0.00200799       0.00000119
O        3.99684575       1.11915972       4.13515857      -0.00142819       0.00202212       0.00247279
O        2.38743470       3.39520988       6.92274065       0.00142707      -0.00202289      -0.00247318
O        2.38743526       3.39520937       4.13515863       0.00143224      -0.00202516       0.00248033
O        3.99684596       1.11915836       6.92274051      -0.00142901       0.00201902      -0.00247303
