9
Lattice="6.147630350499652 -7.976724540094299e-09 3.5493361132142036 2.049210146901083 5.796041326757398 3.5493360481092453 9.994542124968353e-08 -9.064874391984059e-09 7.098672053317828" Properties=species:S:1:pos:R:3:forces:R:3 energy=-26.726253509521484 free_energy=-26.726253509521484 stress="-2.4962480893009342e-05 -6.141931851999516e-09 -1.566502150218696e-09 -6.141931851999516e-09 -2.4951803425210528e-05 -2.8307565180796246e-09 -1.566502150218696e-09 -2.8307565180796246e-09 -2.494636100891512e-05" pbc="T T T"
Sn       2.04920991       1.44901086       3.54933649      -0.00000041       0.00000355       0.00000117
Sn       6.14763097       4.34703056      10.64800798       0.00000300      -0.00000175      -0.00000004
Pd      -0.00000029      -0.00000017       0.00000002       0.00000650      -0.00000001      -0.00000075
Br       2.04173690       1.44372635       7.09867199      -0.00099979      -0.00070596      -0.00000057
Br       6.15510387       4.35231524       7.09867237       0.00099484       0.00070257      -0.00000050
Br       5.12676175       1.44372619       5.31753208       0.00049864      -0.00070463      -0.00086249
Br       3.07007871       4.35231513       8.87981194      -0.00050107       0.00070602       0.00086454
Br       3.07007846       4.35231495       5.31753221      -0.00050078       0.00070615      -0.00086423
Br       5.12676214       1.44372615       8.87981181       0.00049904      -0.00070595       0.00086295
