9
Lattice="5.5044856788664465 -2.4551051648801237e-08 3.1780162180018383 1.8348285358933043 5.1896789123843 3.178016219009675 -3.759573938997399e-09 -1.424061873877179e-09 6.356032442515442" Properties=species:S:1:pos:R:3:forces:R:3 energy=-36.970863342285156 free_energy=-36.970863342285156 stress="0.00022858576267026365 5.228979915727905e-09 -8.919775140725505e-09 5.228979915727905e-09 0.0002285970695083961 5.602250663372388e-09 -8.919775140725505e-09 5.602250663372388e-09 0.00022860591707285494" pbc="T T T"
Sn       1.83482846       1.29741971       3.17801629      -0.00000004       0.00000109      -0.00000041
Sn       5.50448578       3.89225925       9.53404850       0.00000010       0.00000003       0.00000040
Pd       0.00000004       0.00000016       0.00000024       0.00000093      -0.00000424       0.00000306
S        1.91230549       1.35220416       6.35603240      -0.00219333      -0.00155205      -0.00000025
S        5.42700854       3.83747455       6.35603248       0.00219554       0.00155348       0.00000003
S        4.54833301       1.35220429       4.83412119       0.00109637      -0.00155175      -0.00190049
S        2.79098130       3.83747434       7.87794359      -0.00109747       0.00155252       0.00190032
S        2.79098124       3.83747462       4.83412126      -0.00109783       0.00155199      -0.00190139
S        4.54833294       1.35220446       7.87794362       0.00109586      -0.00155079       0.00189847
