9
Lattice="5.828127138141253 2.149479795413999e-08 3.364870749292044 1.9427090258468336 5.494810777339254 3.3648708193807773 8.623871450467547e-08 1.4682078268754585e-07 6.729741349214247" Properties=species:S:1:pos:R:3:forces:R:3 energy=-34.99231719970703 free_energy=-34.99231719970703 stress="4.683880615630187e-05 1.5711973944121382e-08 -1.1049743342539387e-08 1.5711973944121382e-08 4.688877015723847e-05 7.115767086673941e-09 -1.1049743342539387e-08 7.115767086673941e-09 4.6873214159859344e-05" pbc="T T T"
Sn       1.94270888       1.37370279       3.36487057      -0.00000014       0.00000013      -0.00000034
Sn       5.82812729       4.12110796      10.09461173      -0.00000027      -0.00000091      -0.00000061
Pd       0.00000002       0.00000018       0.00000023       0.00000244      -0.00000014       0.00000126
Se       2.03862185       1.44152333       6.72974156       0.00054380       0.00038402       0.00000067
Se       5.73221428       4.05328772       6.72974149      -0.00054407      -0.00038476       0.00000050
Se       4.80881616       1.44152354       5.13036913      -0.00027207       0.00038435       0.00047064
Se       2.96202008       4.05328745       8.32911358       0.00027134      -0.00038405      -0.00047073
Se       2.96202008       4.05328757       5.13036929       0.00027086      -0.00038332       0.00047112
Se       4.80881637       1.44152328       8.32911414      -0.00027174       0.00038473      -0.00047243
