9
Lattice="5.578345664867029 1.1755596129252413e-07 3.22065936329981 1.8594486667603558 5.259314870127283 3.2206593616164803 1.1939764540031407e-07 8.236525828534582e-08 6.441318519796805" Properties=species:S:1:pos:R:3:forces:R:3 energy=-38.36620330810547 free_energy=-38.36620330810547 stress="0.00023260321177076548 -3.28230065349544e-08 -1.7186122747148147e-08 -3.28230065349544e-08 0.0002325849636690691 4.082324256415859e-09 -1.7186122747148147e-08 4.082324256415859e-09 0.00023265014169737697" pbc="T T T"
Sn       1.85944871       1.31482886       3.22065952       0.00000091       0.00000030       0.00000012
Sn       5.57834580       3.94448619       9.66197791      -0.00000099      -0.00000023       0.00000010
P       -0.00000011      -0.00000018      -0.00000029      -0.00000352       0.00000260       0.00000596
S        1.77812639       1.25732532       6.44131836      -0.00175393      -0.00123930      -0.00000066
S        5.65966797       4.00198974       6.44131865       0.00175560       0.00124174       0.00000045
S        4.68928257       1.25732550       4.76056228       0.00088051      -0.00124604      -0.00152493
S        2.74851199       4.00198997       8.12207542      -0.00087738       0.00124109       0.00151926
S        2.74851198       4.00198947       4.76056194      -0.00087929       0.00124252      -0.00152266
S        4.68928262       1.25732550       8.12207509       0.00087789      -0.00124270       0.00152159
