9
Lattice="5.724864254719369 -2.4165375875743617e-08 3.305251887234945 1.908288055539001 5.397453817960811 3.305251898639017 -4.2800742170372754e-08 -1.629763836654016e-08 6.610503848602971" Properties=species:S:1:pos:R:3:forces:R:3 energy=-35.366920471191406 free_energy=-35.366920471191406 stress="0.00037917576264590025 1.004389549308371e-08 1.3574794621717956e-09 1.004389549308371e-08 0.0003791636845562607 -1.1653820131130033e-08 1.3574794621717956e-09 -1.1653820131130033e-08 0.0003792042552959174" pbc="T T T"
Sn       1.90828817       1.34936350       3.30525200      -0.00000093      -0.00000057       0.00000028
Sn       5.72486423       4.04809034       9.91575567      -0.00000024       0.00000012      -0.00000048
P        0.00000007      -0.00000018       0.00000008      -0.00000605       0.00000228       0.00000523
Se       1.89119475       1.33727659       6.61050385       0.00097312       0.00068878       0.00000025
Se       5.74195740       4.06017715       6.61050380      -0.00096928      -0.00068548       0.00000000
Se       4.77926678       1.33727668       4.94307477      -0.00048479       0.00068538       0.00083910
Se       2.85388543       4.06017717       8.27793292       0.00048814      -0.00069065      -0.00084497
Se       2.85388552       4.06017720       4.94307467       0.00048670      -0.00068800       0.00084247
Se       4.77926672       1.33727670       8.27793276      -0.00048675       0.00068815      -0.00084172
