9
Lattice="6.535883540426654 4.789526313641774e-08 3.773494163299162 2.178627894972226 6.1620901287632925 3.7734941580903896 -1.3311084569259616e-08 -1.5791705219209396e-08 7.54698834965374" Properties=species:S:1:pos:R:3:forces:R:3 energy=-23.557628631591797 free_energy=-23.557628631591797 stress="-1.0242426469631027e-05 -1.5087602278640588e-09 -1.475621291824325e-09 -1.5087602278640588e-09 -1.0239389666821808e-05 -4.737993997139256e-09 -1.475621291824325e-09 -4.737993997139256e-09 -1.0239878974971361e-05" pbc="T T T"
Sn       2.17862780       1.54052200       3.77349391      -0.00000124      -0.00000149      -0.00000038
Sn       6.53588357       4.62156771      11.32048200       0.00000009       0.00000078      -0.00000138
Pd       0.00000015      -0.00000001      -0.00000025      -0.00000258      -0.00000136       0.00000245
I        2.20454071       1.55884576       7.54698833      -0.00122995      -0.00086982       0.00000008
I        6.50997052       4.60324454       7.54698861       0.00123138       0.00087178       0.00000068
I        5.43361317       1.55884572       5.68268281       0.00061647      -0.00087170      -0.00106727
I        3.28089829       4.60324468       9.41129429      -0.00061379       0.00086973       0.00106510
I        3.28089817       4.60324447       5.68268274      -0.00061570       0.00087127      -0.00106559
I        5.43361330       1.55884580       9.41129425       0.00061529      -0.00086921       0.00106632
