9
Lattice="5.778256137311665 1.340227365063208e-08 3.336077797354385 1.9260853828413862 5.447792024649814 3.336077812766694 8.224853463992319e-08 7.703463059079825e-08 6.672155452250153" Properties=species:S:1:pos:R:3:forces:R:3 energy=-39.744239807128906 free_energy=-39.744239807128906 stress="6.742024561390281e-05 2.118816588847494e-08 -1.3169057844208965e-08 2.118816588847494e-08 6.7446606408339e-05 -2.9320212924233147e-10 -1.3169057844208965e-08 -2.9320212924233147e-10 6.745916471118107e-05" pbc="T T T"
Sn       1.92608562       1.36194824       3.33607796      -0.00000115      -0.00000093      -0.00000013
Sn       5.77825594       4.08584384      10.00823336       0.00000003       0.00000036      -0.00000145
Ru      -0.00000008      -0.00000003       0.00000017       0.00000104      -0.00000006      -0.00000009
Se       1.99314271       1.40936470       6.67215562      -0.00015001      -0.00010547       0.00000004
Se       5.71119897       4.03842750       6.67215566       0.00015157       0.00010699      -0.00000053
Se       4.78168491       1.40936461       5.06219014       0.00007424      -0.00010601      -0.00013080
Se       2.92265703       4.03842715       8.28212059      -0.00007582       0.00010641       0.00013217
Se       2.92265669       4.03842747       5.06219011      -0.00007478       0.00010557      -0.00013065
Se       4.78168465       1.40936497       8.28212060       0.00007487      -0.00010687       0.00013146
