9
Lattice="5.7737226482666735 -2.1108065368711053e-08 3.3334603022032216 1.924574199125008 5.44351800791426 3.3334602971161944 -4.875750077242804e-08 -4.070707582695226e-08 6.666920688856925" Properties=species:S:1:pos:R:3:forces:R:3 energy=-37.933406829833984 free_energy=-37.933406829833984 stress="6.149744876893237e-05 3.953339433593328e-09 -2.980538127417276e-08 3.953339433593328e-09 6.148924148874357e-05 -2.2683990241745278e-09 -2.980538127417276e-08 -2.2683990241745278e-09 6.149183172965422e-05" pbc="T T T"
Sn       1.92457426       1.36087949       3.33346030       0.00000107      -0.00000061       0.00000102
Sn       5.77372256       4.08263846      10.00038121       0.00000015      -0.00000002       0.00000028
Rh      -0.00000017      -0.00000011       0.00000015      -0.00000052       0.00000076      -0.00000213
Se       1.99214721       1.40866087       6.66692067      -0.00003242      -0.00002258       0.00000052
Se       5.70614978       4.03485717       6.66692064       0.00003174       0.00002287      -0.00000060
Se       4.77764911       1.40866074       5.05871030       0.00001628      -0.00002232      -0.00002740
Se       2.92064777       4.03485715       8.27513079      -0.00001672       0.00002258       0.00002691
Se       2.92064769       4.03485718       5.05871027      -0.00001480       0.00002177      -0.00002545
Se       4.77764898       1.40866081       8.27513080       0.00001539      -0.00002238       0.00002702
