9
Lattice="5.54857143828104 -9.899272934013211e-09 3.2034692065258312 1.849523777177282 5.231243406710082 3.203469251992058 -2.4568542971628426e-08 3.831191573424337e-08 6.40693845560566" Properties=species:S:1:pos:R:3:forces:R:3 energy=-46.700531005859375 free_energy=-46.700531005859375 stress="0.00011439797526691109 -3.953621430241583e-08 -9.590269911541327e-09 -3.953621430241583e-08 0.00011442200047895312 2.2247566011657227e-09 -9.590269911541327e-09 2.2247566011657227e-09 0.00011442750110290945" pbc="T T T"
Sn       1.84952378       1.30781068       3.20346910      -0.00000065      -0.00000004      -0.00000046
Sn       5.54857123       3.92343280       9.61040775       0.00000033      -0.00000051      -0.00000052
Re       0.00000010      -0.00000006       0.00000019      -0.00000089      -0.00000012      -0.00000135
S        1.90056805       1.34390456       6.40693852       0.00022340       0.00015813      -0.00000031
S        5.49752731       3.88733881       6.40693837      -0.00022328      -0.00015771      -0.00000028
S        4.59828721       1.34390467       4.84940964      -0.00011066       0.00015628       0.00019068
S        2.79980792       3.88733875       7.96446720       0.00010967      -0.00015491      -0.00018966
S        2.79980786       3.88733892       4.84940958       0.00011161      -0.00015706       0.00019258
S        4.59828725       1.34390456       7.96446728      -0.00010973       0.00015587      -0.00019050
