9
Lattice="5.83200782392661 -4.009038054773505e-08 3.367111380005274 1.9440025960445286 5.4984696925379195 3.367111335203064 4.1907614278697176e-08 -2.5238133166653977e-08 6.734222687424434" Properties=species:S:1:pos:R:3:forces:R:3 energy=-43.170589447021484 free_energy=-43.170589447021484 stress="0.00037452735705301166 -5.6172950735344784e-09 -1.9126984440731576e-08 -5.6172950735344784e-09 0.0003745525609701872 8.826358310898286e-09 -1.9126984440731576e-08 8.826358310898286e-09 0.00037460774183273315" pbc="T T T"
Sn       1.94400260       1.37461742       3.36711143      -0.00000004       0.00000143      -0.00000085
Sn       5.83200778       4.12385222      10.10133413      -0.00000090      -0.00000004      -0.00000035
Re      -0.00000019       0.00000000       0.00000018      -0.00000013      -0.00000135      -0.00000391
Se       1.99701239       1.41210102       6.73422269      -0.00348660      -0.00246611      -0.00000015
Se       5.77899806       4.08636861       6.73422255       0.00348872       0.00246689      -0.00000019
Se       4.83350156       1.41210104       5.09657493       0.00174466      -0.00246713      -0.00302103
Se       2.94250902       4.08636858       8.37187026      -0.00174613       0.00246906       0.00302410
Se       2.94250899       4.08636868       5.09657500      -0.00174426       0.00246495      -0.00301996
Se       4.83350166       1.41210094       8.37187039       0.00174493      -0.00246769       0.00302234
