9
Lattice="4.732477601795461 -6.313946622578075e-08 2.7322970773946964 1.577492546842915 4.461822344218732 2.732296951925702 4.8298974633984805e-08 -1.1951498457940438e-07 5.464594071133144" Properties=species:S:1:pos:R:3:forces:R:3 energy=-48.78108215332031 free_energy=-48.78108215332031 stress="4.210623956169002e-05 1.358722023780956e-08 2.36555486310408e-08 1.358722023780956e-08 4.2054791265400127e-05 -2.0583977189403413e-08 2.36555486310408e-08 -2.0583977189403413e-08 4.2008272430393845e-05" pbc="T T T"
Sn       1.57749220       1.11545483       2.73229709      -0.00000181      -0.00000494       0.00000063
Sn       4.73247786       3.34636638       8.19689079      -0.00000179      -0.00000198      -0.00000023
Rh      -0.00000011       0.00000011       0.00000001      -0.00000139      -0.00001177       0.00000865
O        1.56315395       1.10531621       5.46459425       0.00112748       0.00079834       0.00000142
O        4.74681603       3.35650580       5.46459402      -0.00112122      -0.00079066       0.00000005
O        3.95090047       1.10531679       4.08602772      -0.00056344       0.00079611       0.00097439
O        2.35906950       3.35650600       6.84316011       0.00056419      -0.00079501      -0.00097626
O        2.35906958       3.35650581       4.08602829       0.00055926      -0.00079140       0.00097203
O        3.95090120       1.10531663       6.84316016      -0.00056162       0.00080130      -0.00098044
