9
Lattice="5.442864984068444 5.054001798631569e-08 3.1424396501152008 1.814288360501776 5.1315824509666665 3.142439676391513 1.4597469412536863e-08 4.250371613976265e-08 6.2848792749468805" Properties=species:S:1:pos:R:3:forces:R:3 energy=-42.38398742675781 free_energy=-42.38398742675781 stress="0.00011379375791875646 1.0017924267913259e-08 4.874773917862285e-09 1.0017924267913259e-08 0.0001137711078627035 -9.447986393240626e-09 4.874773917862285e-09 -9.447986393240626e-09 0.00011378149065421894" pbc="T T T"
Sn       1.81428826       1.28289567       3.14243945       0.00000006      -0.00000043       0.00000120
Sn       5.44286491       3.84868680       9.42731926      -0.00000035      -0.00000126      -0.00000020
Ru      -0.00000008      -0.00000005       0.00000003      -0.00000028      -0.00000048       0.00000130
S        1.88097273       1.33004868       6.28487925      -0.00090605      -0.00063950      -0.00000036
S        5.37618066       3.80153395       6.28487931       0.00090593       0.00064078      -0.00000010
S        4.50237861       1.33004879       4.77141000       0.00045344      -0.00064057      -0.00078458
S        2.75477486       3.80153372       7.79834856      -0.00045273       0.00064015       0.00078380
S        2.75477494       3.80153378       4.77141017      -0.00045341       0.00064102      -0.00078535
S        4.50237848       1.33004893       7.79834844       0.00045317      -0.00063971       0.00078440
