9
Lattice="5.480337143574402 4.292038460457927e-08 3.1640740928797992 1.8267790911648352 5.166911441970397 3.1640740879590075 2.3991397088954656e-08 1.0937796907723216e-08 6.328148144205239" Properties=species:S:1:pos:R:3:forces:R:3 energy=-40.62206268310547 free_energy=-40.62206268310547 stress="0.00048453695490024984 1.8730167639091633e-08 2.928507658594981e-09 1.8730167639091633e-08 0.0004845251969527453 -2.083870498381657e-08 2.928507658594981e-09 -2.083870498381657e-08 0.00048448803136125207" pbc="T T T"
Sn       1.82677918       1.29172784       3.16407435       0.00000023      -0.00000010       0.00000006
Sn       5.48033736       3.87518372       9.49222237       0.00000039      -0.00000019       0.00000005
Rh       0.00000006       0.00000002      -0.00000022      -0.00000068       0.00000011      -0.00000125
S        1.87699484       1.32723566       6.32814810      -0.00583744      -0.00412753       0.00000003
S        5.43012138       3.83967562       6.32814799       0.00583780       0.00412807      -0.00000042
S        4.54183961       1.32723592       4.78959915       0.00291738      -0.00412640      -0.00505453
S        2.76527636       3.83967596       7.86669732      -0.00291824       0.00412679       0.00505471
S        2.76527654       3.83967556       4.78959914      -0.00291806       0.00412697      -0.00505447
S        4.54183977       1.32723570       7.86669711       0.00291851      -0.00412759       0.00505584
