9
Lattice="4.813390768140087 1.394984463416653e-08 2.7790123519814958 1.6044636029619008 4.538108302209854 2.7790123512370086 8.009226540676782e-09 4.7515691004028974e-09 5.558024690090586" Properties=species:S:1:pos:R:3:forces:R:3 energy=-52.89816665649414 free_energy=-52.89816665649414 stress="0.00015816313680261374 -4.127708841394906e-09 -2.7726514417736325e-08 -4.127708841394906e-09 0.00015809162869118154 2.306937929574815e-08 -2.7726514417736325e-08 2.306937929574815e-08 0.0001580611860845238" pbc="T T T"
Sn       1.60446377       1.13452685       2.77901195       0.00000112      -0.00000098      -0.00000142
Sn       4.81339058       3.40358191       8.33703735      -0.00000050       0.00000277      -0.00000031
Ru      -0.00000002       0.00000004      -0.00000006       0.00000215      -0.00000108      -0.00000466
O        1.53294770       1.08395755       5.55802487       0.00549597       0.00388476      -0.00000052
O        4.88490663       3.45415070       5.55802495      -0.00549680      -0.00388652      -0.00000007
O        4.04691698       1.08395739       4.10658385      -0.00274916       0.00388691       0.00476238
O        2.37093757       3.45415068       7.00946538       0.00274542      -0.00388154      -0.00475752
O        2.37093759       3.45415077       4.10658376       0.00275081      -0.00388902       0.00476223
O        4.04691665       1.08395755       7.00946565      -0.00274894       0.00388476      -0.00475955
