9
Lattice="6.24655952123574 1.310057422154223e-07 3.606452698905039 2.0821866331164665 5.889312729767251 3.6064526945325164 1.8003000072481492e-08 7.374789282483384e-09 7.212905366627973" Properties=species:S:1:pos:R:3:forces:R:3 energy=-38.80851745605469 free_energy=-38.80851745605469 stress="9.458462955080904e-06 7.436170079699878e-08 -9.43491418325948e-09 7.436170079699878e-08 9.406328899785876e-06 1.3227797523995832e-08 -9.43491418325948e-09 1.3227797523995832e-08 9.360588592244312e-06" pbc="T T T"
Sn       2.08218603       1.47232804       3.60645275      -0.00000116      -0.00000067       0.00000038
Sn       6.24655972       4.41698470      10.81935790       0.00000011       0.00000033      -0.00000115
Re       0.00000011       0.00000035      -0.00000021      -0.00000155      -0.00000424       0.00000376
Te       2.15560746       1.52424454       7.21290532      -0.00357023      -0.00252546       0.00000017
Te       6.17313878       4.36506824       7.21290541       0.00357360       0.00252657       0.00000086
Te       5.16875600       1.52424443       5.47326324       0.00178337      -0.00252166      -0.00308681
Te       3.15999015       4.36506858       8.95254769      -0.00178155       0.00252052       0.00308691
Te       3.15999015       4.36506833       5.47326317      -0.00178393       0.00252263      -0.00308785
Te       5.16875630       1.52424428       8.95254773       0.00178128      -0.00251798       0.00308366
