9
Lattice="4.992190934190679 -1.0975338944701932e-07 2.8822428669750897 1.6640636079934525 4.706682350244929 2.882242751378543 8.846593256581078e-08 -7.90214076758825e-08 5.764485580722725" Properties=species:S:1:pos:R:3:forces:R:3 energy=-50.30830383300781 free_energy=-50.30830383300781 stress="0.00017685523198451847 -3.4159793216304024e-08 -1.0486549406607537e-08 -3.4159793216304024e-08 0.00017681119788903743 3.019579963847718e-08 -1.0486549406607537e-08 3.019579963847718e-08 0.0001768821239238605" pbc="T T T"
Sn       1.66406382       1.17667034       2.88224282       0.00000057      -0.00000039      -0.00000042
Sn       4.99219071       3.53001169       8.64672844      -0.00000002      -0.00000002      -0.00000009
Sc      -0.00000003      -0.00000001      -0.00000010       0.00000397       0.00000137      -0.00000117
F        1.63255853       1.15439289       5.76448565       0.00241739       0.00170924      -0.00000027
F        5.02369642       3.55228937       5.76448570      -0.00242160      -0.00171225      -0.00000003
F        4.17591160       1.15439294       4.29607983      -0.00120946       0.00171023       0.00209421
F        2.48034285       3.55228923       7.23289129       0.00120851      -0.00170803      -0.00209239
F        2.48034283       3.55228942       4.29607974       0.00121008      -0.00171090       0.00209541
F        4.17591183       1.15439276       7.23289159      -0.00120951       0.00171091      -0.00209547
