9
Lattice="4.9112325790419815 -1.250776506889095e-07 2.8355014908636647 1.6370774493321159 4.630354088820729 2.8355014200069024 -1.6099423645477203e-10 -8.689523170155406e-08 5.6710029820061765" Properties=species:S:1:pos:R:3:forces:R:3 energy=-37.59071350097656 free_energy=-37.59071350097656 stress="0.00016619548841845244 -2.4619204452847043e-08 7.266393708960095e-09 -2.4619204452847043e-08 0.00016617750225123018 -1.576556485360925e-08 7.266393708960095e-09 -1.576556485360925e-08 0.00016619106463622302" pbc="T T T"
Sn       1.63707731       1.15758842       2.83550144       0.00000104       0.00000000      -0.00000002
Sn       4.91123272       3.47276535       8.50650430      -0.00000057       0.00000094       0.00000086
S       -0.00000012      -0.00000028       0.00000006       0.00000255       0.00000683       0.00000414
F        1.62015345       1.14562118       5.67100302      -0.00184553      -0.00130447      -0.00000003
F        4.92815720       3.48473278       5.67100281       0.00184154       0.00130206       0.00000009
F        4.10115591       1.14562121       4.23859541       0.00092253      -0.00130528      -0.00159829
F        2.44715384       3.48473277       7.10341052      -0.00092128       0.00130212       0.00159510
F        2.44715399       3.48473293       4.23859539      -0.00092273       0.00130344      -0.00159862
F        4.10115576       1.14562117       7.10341054       0.00092261      -0.00130558       0.00159690
