9
Lattice="6.242403077109505 5.058685147213704e-08 3.6040530768948678 2.080801061517405 5.885394038432727 3.6040530974707643 -7.905979172264695e-09 1.9609857842474602e-08 7.208106167483306" Properties=species:S:1:pos:R:3:forces:R:3 energy=-30.984058380126953 free_energy=-30.984058380126953 stress="0.00011053818161599338 -1.1211189095139407e-11 1.6753899378940673e-09 -1.1211189095139407e-11 0.00011054051719838753 -5.700324101631793e-10 1.6753899378940673e-09 -5.700324101631793e-10 0.00011053930938942358" pbc="T T T"
Sn       2.08080087       1.47134858       3.60405328      -0.00000149      -0.00000009       0.00000067
Sn       6.24240281       4.41404566      10.81215885       0.00000021       0.00000092      -0.00000208
Si      -0.00000019       0.00000015      -0.00000006       0.00000124       0.00000036       0.00000023
Te       2.15514349       1.52391656       7.20810615      -0.00608361      -0.00430206      -0.00000051
Te       6.16806079       4.36147780       7.20810654       0.00608235       0.00430016       0.00000139
Te       5.16483141       1.52391617       5.47046167       0.00304154      -0.00430151      -0.00526696
Te       3.15837294       4.36147763       8.94575053      -0.00304078       0.00430199       0.00526799
Te       3.15837267       4.36147761       5.47046181      -0.00304199       0.00430135      -0.00526782
Te       5.16483172       1.52391628       8.94575058       0.00304249      -0.00430121       0.00526712
