9
Lattice="5.913418674213905 4.1906282183368216e-08 3.4141138344885364 1.9711395681280228 5.575224650591304 3.4141138855025104 -1.4594913065542126e-07 -4.0722519295789546e-08 6.828227921768391" Properties=species:S:1:pos:R:3:forces:R:3 energy=-26.527231216430664 free_energy=-26.527231216430664 stress="9.062257049663458e-06 2.025812761985435e-08 -2.645290919645049e-08 2.025812761985435e-08 9.008646884467453e-06 1.9816651430915044e-08 -2.645290919645049e-08 1.9816651430915044e-08 9.038774805958383e-06" pbc="T T T"
Sn       1.97113923       1.39380624       3.41411401      -0.00000201      -0.00000027       0.00000062
Sn       5.91341773       4.18141862      10.24234285      -0.00000034      -0.00000076       0.00000237
Se      -0.00000011       0.00000055       0.00000033       0.00000243      -0.00000665      -0.00000604
Cl       1.98864636       1.40618515       6.82822769       0.00120127       0.00084768       0.00000081
Cl       5.89591188       4.16903965       6.82822733      -0.00120077      -0.00084940      -0.00000127
Cl       4.91909591       1.40618546       5.13633170      -0.00060146       0.00085481       0.00104360
Cl       2.96546279       4.16903872       8.52012316       0.00059925      -0.00084747      -0.00103767
Cl       2.96546260       4.16903968       5.13633222       0.00060354      -0.00085081       0.00104189
Cl       4.91909603       1.40618452       8.52012327      -0.00060186       0.00085290      -0.00104438
