9
Lattice="5.890178872867613 -8.294645199699775e-08 3.4006965139099834 1.9633929323709147 5.553313796723383 3.400696422196149 9.121193186294934e-08 -4.782951435270975e-08 6.801392869836268" Properties=species:S:1:pos:R:3:forces:R:3 energy=-36.96153259277344 free_energy=-36.96153259277344 stress="0.00015966661158017814 -2.2062605964379145e-08 6.201119617799122e-08 -2.2062605964379145e-08 0.00015967994113452733 -8.402452067457489e-09 6.201119617799122e-08 -8.402452067457489e-09 0.0001596606889506802" pbc="T T T"
Sn       1.96339308       1.38832827       3.40069654       0.00000105      -0.00000132      -0.00000063
Sn       5.89017847       4.16498506      10.20208966      -0.00000085      -0.00000011       0.00000061
Sc       0.00000047      -0.00000005       0.00000025      -0.00000769      -0.00000076      -0.00000594
Cl       1.98824535       1.40590171       6.80139309      -0.00374489      -0.00264710      -0.00000233
Cl       5.86532592       4.14741159       6.80139270       0.00375049       0.00265317       0.00000073
Cl       4.89605615       1.40590202       5.12256787       0.00187100      -0.00264750      -0.00324407
Cl       2.95751603       4.14741186       8.48021788      -0.00187286       0.00265110       0.00324649
Cl       2.95751621       4.14741190       5.12256801      -0.00187441       0.00264834      -0.00324637
Cl       4.89605588       1.40590233       8.48021730       0.00187822      -0.00265573       0.00325146
