9
Lattice="5.093840597523729 7.59065086945459e-08 2.940930361182457 1.6979469273098562 4.802518911163805 2.9409303786704863 9.608642329014015e-08 8.936177462075529e-08 5.881860555938308" Properties=species:S:1:pos:R:3:forces:R:3 energy=-40.62153244018555 free_energy=-40.62153244018555 stress="0.0005763224908150733 6.070326463714082e-09 -2.4237156281969874e-08 6.070326463714082e-09 0.0005763398366980255 6.62508270465878e-10 -2.4237156281969874e-08 6.62508270465878e-10 0.0005762693472206593" pbc="T T T"
Sn       1.69794703       1.20062979       2.94093048       0.00000034       0.00000051       0.00000126
Sn       5.09384127       3.60188949       8.82279146       0.00000283       0.00000152       0.00000287
Sr      -0.00000010       0.00000009      -0.00000006       0.00000014       0.00000126       0.00000363
F        1.81888725       1.28614735       5.88186043       0.00003821       0.00002646      -0.00000095
F        4.97290040       3.51637171       5.88186031      -0.00003825      -0.00002616      -0.00000078
F        4.18439716       1.28614785       4.51613283      -0.00001810       0.00002494       0.00003168
F        2.60739007       3.51637151       7.24758842       0.00001784      -0.00002860      -0.00003520
F        2.60739044       3.51637138       4.51613290       0.00001761      -0.00002680       0.00003343
F        4.18439704       1.28614719       7.24758841      -0.00002059       0.00002669      -0.00003575
