9
Lattice="6.2482219458006805 -1.2157040567705348e-07 3.6074126928387384 2.082740540757226 5.890880183815915 3.6074126811046145 4.041526376176696e-09 -1.15135450198812e-08 7.214825378677299" Properties=species:S:1:pos:R:3:forces:R:3 energy=-32.66777801513672 free_energy=-32.66777801513672 stress="0.00012459962454158813 -9.654943511350211e-09 -3.0150066887557614e-09 -9.654943511350211e-09 0.00012461651931516826 5.103789391114333e-09 -3.0150066887557614e-09 5.103789391114333e-09 0.00012462328595574945" pbc="T T T"
Sn       2.08274088       1.47271967       3.60741267       0.00000148      -0.00000164      -0.00000030
Sn       6.24822188       4.41815970      10.82223742      -0.00000084      -0.00000218      -0.00000420
Sc      -0.00000020      -0.00000029       0.00000016       0.00000201       0.00000431       0.00000007
Br       2.11383289       1.49470584       7.21482533      -0.00361630      -0.00255579       0.00000019
Br       6.21712958       4.39617458       7.21482566       0.00361161       0.00255506       0.00000135
Br       5.19130513       1.49470589       5.43804618       0.00180822      -0.00255701      -0.00313212
Br       3.13965749       4.39617427       8.99160471      -0.00180688       0.00255691       0.00313093
Br       3.13965709       4.39617436       5.43804613      -0.00180761       0.00255667      -0.00312927
Br       5.19130524       1.49470619       8.99160477       0.00180828      -0.00255631       0.00313334
