9
Lattice="4.54989369231445 9.224784163550816e-08 2.626882347240888 1.5166313320342804 4.289680847257109 2.6268823224886675 8.117834154097899e-08 2.7086604487497887e-08 5.253764553876727" Properties=species:S:1:pos:R:3:forces:R:3 energy=-49.57756042480469 free_energy=-49.57756042480469 stress="0.00024053473316598684 7.641252963708212e-09 -8.186296440726437e-08 7.641252963708212e-09 0.00024060079886112362 -3.63631187383362e-08 -8.186296440726437e-08 -3.63631187383362e-08 0.0002406955900369212" pbc="T T T"
Sn       1.51663124       1.07242002       2.62688248      -0.00000052      -0.00000088      -0.00000095
Sn       4.54989382       3.21726060       7.88064694       0.00000025      -0.00000019       0.00000081
S       -0.00000005       0.00000002       0.00000011       0.00000008      -0.00000114       0.00000185
O        1.36679558       0.96647020       5.25376435       0.00090396       0.00063694       0.00000271
O        4.69972976       3.32321085       5.25376448      -0.00090575      -0.00063980      -0.00000114
O        3.86649613       0.96647047       3.81056174      -0.00045043       0.00064015       0.00078559
O        2.20002912       3.32321049       6.69696740       0.00045139      -0.00064039      -0.00078428
O        2.20002878       3.32321096       3.81056211       0.00045377      -0.00063479       0.00078368
O        3.86649629       0.96647038       6.69696745      -0.00045300       0.00063968      -0.00078797
