9
Lattice="4.634845809775409 6.726568138979275e-08 2.6759295327396724 1.5449486681878786 4.369774570338196 2.6759295301230352 3.3928527244349315e-08 2.0786382175954764e-08 5.351859006713399" Properties=species:S:1:pos:R:3:forces:R:3 energy=-46.228492736816406 free_energy=-46.228492736816406 stress="3.150212432956323e-05 1.8041969696014348e-08 6.049666723129121e-08 1.8041969696014348e-08 3.161989661748521e-05 9.200331874126277e-08 6.049666723129121e-08 9.200331874126277e-08 3.153083162032999e-05" pbc="T T T"
Sn       1.54494864       1.09244360       2.67592914      -0.00000044      -0.00000019      -0.00000371
Sn       4.63484571       3.27733080       8.02778803      -0.00000133      -0.00000040      -0.00000304
Se      -0.00000045      -0.00000012      -0.00000099      -0.00000706      -0.00000251      -0.00001434
O        1.48492938       1.05000365       5.35185902       0.00329387       0.00232661       0.00000226
O        4.69486536       3.31977121       5.35185950      -0.00328910      -0.00232536       0.00000474
O        3.89238142       1.05000371       3.96191640      -0.00164312       0.00232905       0.00285435
O        2.28741322       3.31977102       6.74180234       0.00164419      -0.00232720      -0.00284660
O        2.28741349       3.31977116       3.96191620       0.00164789      -0.00232834       0.00285232
O        3.89238131       1.05000361       6.74180246      -0.00164521       0.00232702      -0.00284719
