9
Lattice="6.411002990536143 -5.844325087225398e-08 3.7013944307976323 2.1370009774111316 6.044351343431397 3.701394369021335 2.7323023478692905e-08 -5.6339927259425837e-08 7.40278881427037" Properties=species:S:1:pos:R:3:forces:R:3 energy=-25.782276153564453 free_energy=-25.782276153564453 stress="8.658657316118479e-05 -1.2650443359518704e-08 -3.8697343107685356e-09 -1.2650443359518704e-08 8.660410094307736e-05 -3.893941280530555e-10 -3.8697343107685356e-09 -3.893941280530555e-10 8.657587022753432e-05" pbc="T T T"
Sn       2.13700024       1.51108661       3.70139391      -0.00000497      -0.00000771      -0.00000409
Sn       6.41100303       4.53326396      11.10418339       0.00000136       0.00000314       0.00000157
Sr       0.00000011       0.00000028      -0.00000025      -0.00000054      -0.00000263      -0.00000141
Br       2.30988970       1.63333831       7.40278899      -0.00073665      -0.00052273       0.00000182
Br       6.23811420       4.41101269       7.40278860       0.00073937       0.00052397      -0.00000020
Br       5.25605851       1.63333839       5.70181755       0.00037112      -0.00052266      -0.00063681
Br       3.29194589       4.41101310       9.10376016      -0.00036948       0.00052565       0.00063991
Br       3.29194600       4.41101337       5.70181806      -0.00036919       0.00052680      -0.00063837
Br       5.25605833       1.63333820       9.10376005       0.00036907      -0.00052388       0.00063755
