9
Lattice="4.520052132012581 -8.200909651951763e-08 2.6096533160834516 1.5066839703182293 4.261545921074202 2.609653309790979 -1.58624938998913e-08 -1.8923137771055605e-08 5.219306659641555" Properties=species:S:1:pos:R:3:forces:R:3 energy=-52.632720947265625 free_energy=-52.632720947265625 stress="-0.00012449912901502103 5.8900319288568426e-08 -2.683028199612636e-08 5.8900319288568426e-08 -0.0001242606231244281 2.5121265068150933e-08 -2.683028199612636e-08 2.5121265068150933e-08 -0.00012453371891751885" pbc="T T T"
Sn       1.50668442       1.06538622       2.60965279       0.00000276       0.00000122      -0.00000257
Sn       4.52005240       3.19615945       7.82895986       0.00000139      -0.00000180      -0.00000227
Si      -0.00000011      -0.00000007      -0.00000030       0.00000125      -0.00000112       0.00001100
O        1.45307620       1.02747999       5.21930716       0.00658214       0.00465190      -0.00000051
O        4.57365961       3.23406627       5.21930671      -0.00658596      -0.00464928      -0.00000061
O        3.79351394       1.02747996       3.86805436      -0.00329173       0.00465512       0.00570130
O        2.23322126       3.23406556       6.57055928       0.00329053      -0.00465763      -0.00570619
O        2.23322202       3.23406567       3.86805396       0.00329244      -0.00465488       0.00570381
O        3.79351422       1.02748015       6.57055910      -0.00329250       0.00465596      -0.00570345
