9
Lattice="6.279203789089488 -6.563836858891472e-08 3.6252999433219486 2.093067853538965 5.920089713465137 3.625299968043639 3.238547673304829e-08 5.317776307971926e-08 7.2505998305505965" Properties=species:S:1:pos:R:3:forces:R:3 energy=-22.880128860473633 free_energy=-22.880128860473633 stress="8.073049684753641e-05 3.922581814919113e-09 1.5411597553693923e-09 3.922581814919113e-09 8.073748904280365e-05 -4.631366845586626e-09 1.5411597553693923e-09 -4.631366845586626e-09 8.072455966612324e-05" pbc="T T T"
Sn       2.09306807       1.48002313       3.62529990       0.00000134       0.00000406      -0.00000035
Sn       6.27920409       4.44006712      10.87590057       0.00000076      -0.00000178       0.00000318
Se       0.00000022      -0.00000047      -0.00000013      -0.00000024       0.00000128      -0.00000006
Br       2.12238437       1.50075276       7.25060002      -0.00143966      -0.00101785       0.00000000
Br       6.24988692       4.41933732       7.25059938       0.00143944       0.00101733      -0.00000151
Br       5.21801179       1.50075298       5.46333880       0.00072027      -0.00101735      -0.00124753
Br       3.15425988       4.41933663       9.03786099      -0.00072138       0.00101680       0.00124688
Br       3.15425995       4.41933683       5.46333860      -0.00072043       0.00101596      -0.00124751
Br       5.21801140       1.50075249       9.03786083       0.00071982      -0.00101838       0.00124693
