9
Lattice="5.616071948255363 9.57856468946975e-08 3.2424407122120265 1.872024036006564 5.294883530354756 3.2424407763893353 3.4460469801727243e-09 8.103757386324683e-08 6.484881418455384" Properties=species:S:1:pos:R:3:forces:R:3 energy=-34.28875732421875 free_energy=-34.28875732421875 stress="0.0001098576613003388 7.920652578263798e-09 -5.442015171830406e-10 7.920652578263798e-09 0.00010982622916344553 4.8629871685079706e-08 -5.442015171830406e-10 4.8629871685079706e-08 0.0001098147695302032" pbc="T T T"
Sn       1.87202436       1.32372126       3.24244134       0.00000207       0.00000071       0.00000148
Sn       5.61607185       3.97116301       9.72732193       0.00000020      -0.00000048      -0.00000053
Se       0.00000016      -0.00000027      -0.00000032      -0.00000078       0.00000490       0.00000584
S        1.85359531       1.31069029       6.48488104       0.00174403       0.00123268       0.00000062
S        5.63450106       3.98419350       6.48488145      -0.00174719      -0.00123316       0.00000056
S        4.68927424       1.31068971       4.84770147      -0.00087205       0.00123140       0.00150892
S        2.79882141       3.98419364       8.12206205       0.00087544      -0.00123698      -0.00151622
S        2.79882138       3.98419369       4.84770091       0.00087345      -0.00123495       0.00151378
S        4.68927426       1.31068996       8.12206176      -0.00087520       0.00123590      -0.00151470
