9
Lattice="6.125291944069815 -6.032146517663343e-08 3.536438962515107 2.0417639757420187 5.774980504486369 3.5364388737352903 6.846389818809981e-08 -6.032128186768932e-08 7.072877806447242" Properties=species:S:1:pos:R:3:forces:R:3 energy=-23.162635803222656 free_energy=-23.162635803222656 stress="4.332259049988352e-05 2.820308653284087e-09 2.403037324683055e-09 2.820308653284087e-09 4.333244578447193e-05 -8.492425096484624e-10 2.403037324683055e-09 -8.492425096484624e-10 4.3321218981873244e-05" pbc="T T T"
Sn       2.04176333       1.44374498       3.53643853      -0.00000321       0.00000035      -0.00000241
Sn       6.12529199       4.33123624      10.60931652      -0.00000054       0.00000420      -0.00000024
S        0.00000028       0.00000005      -0.00000002      -0.00000124      -0.00000085       0.00000030
Br       2.10231811       1.48656282       7.07287783      -0.00553325      -0.00391418       0.00000098
Br       6.06473792       4.28841705       7.07287796       0.00553676       0.00391401      -0.00000026
Br       5.07413330       1.48656278       5.35710010       0.00276846      -0.00391474      -0.00479148
Br       3.09292304       4.28841726       8.78865609      -0.00276738       0.00391275       0.00479260
Br       3.09292301       4.28841745       5.35709975      -0.00276671       0.00391318      -0.00479241
Br       5.07413298       1.48656292       8.78865586       0.00276707      -0.00391470       0.00479294
