9
Lattice="7.036212373117686 1.9390652219375736e-07 4.062359102191396 2.3454042940743194 6.633804629845607 4.062359124907348 1.1857523985731497e-07 1.1166653629406937e-07 8.12471799900452" Properties=species:S:1:pos:R:3:forces:R:3 energy=-22.308086395263672 free_energy=-22.308086395263672 stress="0.0001120193483075127 -5.479103282191033e-10 -1.3776385365815713e-08 -5.479103282191033e-10 0.0001120061642723158 -1.1477752970279198e-08 -1.3776385365815713e-08 -1.1477752970279198e-08 0.00011200899461982772" pbc="T T T"
Sn       2.34540381       1.65845135       4.06235946      -0.00000137       0.00000030       0.00000126
Sn       7.03621228       4.97535369      12.18707800      -0.00000213       0.00000041       0.00000567
Sr       0.00000010       0.00000022      -0.00000112      -0.00000082      -0.00000181       0.00000684
I        2.55841346       1.80907109       8.12471784      -0.00595927      -0.00421481       0.00000051
I        6.82320313       4.82473329       8.12471750       0.00596209       0.00421546      -0.00000291
I        5.75700556       1.80907191       6.27801005       0.00298204      -0.00421462      -0.00516358
I        3.62461092       4.82473364       9.97142649      -0.00297859       0.00421172       0.00515823
I        3.62461167       4.82473334       6.27801026      -0.00298063       0.00421754      -0.00516364
I        5.75700619       1.80907116       9.97142646       0.00297863      -0.00421413       0.00515773
