9
Lattice="5.522038702472356 -1.9339695388692565e-08 3.188150690198498 1.840679542447913 5.206228176287724 3.188150701992394 -2.3826534957994676e-08 -2.4033343859784345e-09 6.376301421665743" Properties=species:S:1:pos:R:3:forces:R:3 energy=-38.248966217041016 free_energy=-38.248966217041016 stress="0.00045694148866459727 3.3094063045524535e-09 1.6417540660285113e-09 3.3094063045524535e-09 0.00045697568566538393 6.019399978463014e-10 1.6417540660285113e-09 6.019399978463014e-10 0.00045706387027166784" pbc="T T T"
Sn       1.84067993       1.30155725       3.18815092       0.00000094      -0.00000032       0.00000055
Sn       5.52203887       3.90467095       9.56445190       0.00000197      -0.00000009       0.00000071
Si      -0.00000016       0.00000020       0.00000043       0.00000005      -0.00000036      -0.00000203
S        1.84068397       1.30156020       6.37630121      -0.00093293      -0.00066057      -0.00000036
S        5.52203404       3.90466780       6.37630115       0.00093317       0.00065953      -0.00000131
S        4.60169661       1.30156019       4.78223001       0.00046477      -0.00065896      -0.00080752
S        2.76102144       3.90466777       7.97037274      -0.00046849       0.00066110       0.00080934
S        2.76102144       3.90466778       4.78223020      -0.00046703       0.00066021      -0.00080949
S        4.60169660       1.30156061       7.97037288       0.00046778      -0.00066069       0.00080964
