9
Lattice="5.0546416299957135 -1.0091528743534151e-07 2.9182987825424727 1.6848804275179003 4.765561796091416 2.918298818344194 -9.054463319548243e-08 -2.0176735855596054e-08 5.836597721912833" Properties=species:S:1:pos:R:3:forces:R:3 energy=-50.24329376220703 free_energy=-50.24329376220703 stress="0.00037075072759762406 -2.2487709472329698e-08 -4.066237835331776e-08 -2.2487709472329698e-08 0.0003706988354679197 -1.6540841585310773e-08 -4.066237835331776e-08 -1.6540841585310773e-08 0.0003707199066411704" pbc="T T T"
Sn       1.68488054       1.19139030       2.91829854       0.00000030       0.00000006       0.00000101
Sn       5.05464171       3.57417148       8.75489682      -0.00000049       0.00000000      -0.00000101
Ti       0.00000018      -0.00000008      -0.00000016      -0.00000393       0.00000288       0.00000436
F        1.57895449       1.11648908       5.83659760       0.00067526       0.00047804       0.00000068
F        5.16056745       3.64907230       5.83659777      -0.00067371      -0.00047702      -0.00000089
F        4.26516413       1.11648975       4.28571389      -0.00033443       0.00047442       0.00058041
F        2.47435758       3.64907211       7.38748150       0.00033706      -0.00047809      -0.00058459
F        2.47435759       3.64907251       4.28571366       0.00033748      -0.00047702       0.00058422
F        4.26516415       1.11648933       7.38748158      -0.00033761       0.00047671      -0.00058416
