9
Lattice="5.7424149680018 -1.451658623232878e-07 3.3153847127194918 1.9141381729186686 5.414000622126566 3.3153847350367878 -8.052454773743774e-08 -2.960643561089984e-08 6.630769564911576" Properties=species:S:1:pos:R:3:forces:R:3 energy=-33.76283264160156 free_energy=-33.76283264160156 stress="0.0003350069164298475 -6.946451946987509e-08 -8.281974217538846e-09 -6.946451946987509e-08 0.0003350340120960027 -7.145337654890227e-09 -8.281974217538846e-09 -7.145337654890227e-09 0.00033507903572171926" pbc="T T T"
Sn       1.91413841       1.35349992       3.31538500       0.00000183      -0.00000091       0.00000157
Sn       5.74241471       4.06050043       9.94615457      -0.00000189       0.00000117       0.00000242
Te       0.00000014      -0.00000012       0.00000008       0.00000154       0.00000614      -0.00000042
S        1.94384334       1.37450474       6.63076957       0.00179714       0.00127020      -0.00000028
S        5.71270977       4.03949621       6.63076932      -0.00180143      -0.00127295       0.00000012
S        4.77049281       1.37450505       4.99880203      -0.00089744       0.00126949       0.00155336
S        2.88605975       4.03949573       8.26273679       0.00089940      -0.00127086      -0.00155705
S        2.88606013       4.03949550       4.99880206       0.00089851      -0.00127086       0.00155503
S        4.77049326       1.37450441       8.26273664      -0.00089768       0.00126857      -0.00155479
