9
Lattice="6.201277212382182 -1.0054678165842172e-07 3.5803090282604773 2.0670923209904 5.846620255046196 3.580309008065775 -3.1836432216091466e-08 -4.724505588825869e-08 7.160618111663189" Properties=species:S:1:pos:R:3:forces:R:3 energy=-32.63585662841797 free_energy=-32.63585662841797 stress="0.00014841361553408206 8.983407795426501e-09 -7.991248218708336e-10 8.983407795426501e-09 0.0001483954838477075 5.514576351117739e-09 -7.991248218708336e-10 5.514576351117739e-09 0.00014839202049188316" pbc="T T T"
Sn       2.06709240       1.46165486       3.58030880       0.00000141      -0.00000033      -0.00000027
Sn       6.20127740       4.38496558      10.74092772      -0.00000044       0.00000107       0.00000204
Ti      -0.00000014       0.00000007       0.00000005      -0.00000051      -0.00000013       0.00000368
Br       2.04907856       1.44891741       7.16061800      -0.00657792      -0.00465199       0.00000105
Br       6.21929079       4.39770262       7.16061769       0.00657861       0.00465231      -0.00000003
Br       5.17673798       1.44891737       5.35486312       0.00329004      -0.00465248      -0.00569704
Br       3.09163144       4.39770288       8.96637299      -0.00328825       0.00464827       0.00569405
Br       3.09163193       4.39770265       5.35486321      -0.00328894       0.00465298      -0.00569732
Br       5.17673767       1.44891699       8.96637300       0.00328601      -0.00464970       0.00569384
