9
Lattice="6.323745328142127 -3.27565902411314e-08 3.651016110112168 2.1079151559980134 5.962084234360403 3.6510159758773466 4.596932462707858e-08 -1.318981589108229e-07 7.302032140603122" Properties=species:S:1:pos:R:3:forces:R:3 energy=-39.05988693237305 free_energy=-39.05988693237305 stress="5.171134034753777e-05 -4.386231378106231e-09 -8.691022346241084e-10 -4.386231378106231e-09 5.171610609977506e-05 -5.993524565539587e-10 -8.691022346241084e-10 -5.993524565539587e-10 5.1720580813707784e-05" pbc="T T T"
Sn       2.10791520       1.49052113       3.65101598       0.00000014      -0.00000022      -0.00000020
Sn       6.32374518       4.47156296      10.95304805      -0.00000077      -0.00000128      -0.00000073
Ta      -0.00000001      -0.00000019       0.00000013      -0.00000064       0.00000035       0.00000064
Te       2.22390182       1.57253570       7.30203206      -0.00122578      -0.00086646       0.00000002
Te       6.20775881       4.38954821       7.30203213       0.00122625       0.00086673       0.00000032
Te       5.21179452       1.57253584       5.57697157       0.00061310      -0.00086737      -0.00106207
Te       3.21986599       4.38954822       9.02709309      -0.00061245       0.00086655       0.00106139
Te       3.21986617       4.38954820       5.57697131      -0.00061299       0.00086786      -0.00106244
Te       5.21179440       1.57253619       9.02709259       0.00061317      -0.00086614       0.00106311
