9
Lattice="4.819079255107013 -3.091612177367943e-08 2.78229680124785 1.6063597695569565 4.543471396959077 2.7822967198368898 1.7873241962177896e-07 2.6675287787173044e-08 5.564593292922059" Properties=species:S:1:pos:R:3:forces:R:3 energy=-47.61256790161133 free_energy=-47.61256790161133 stress="0.00023140119446907192 -2.33067041222057e-08 6.220838599801937e-08 -2.33067041222057e-08 0.00023144787701312453 -5.733343044767025e-08 6.220838599801937e-08 -5.733343044767025e-08 0.00023139965196605772" pbc="T T T"
Sn       1.60635962       1.13586867       2.78229675      -0.00000011       0.00000371       0.00000051
Sn       4.81907926       3.40760341       8.34689092      -0.00000157       0.00000151       0.00000267
Te       0.00000009       0.00000002       0.00000007       0.00000188       0.00001185      -0.00000088
O        1.57524127       1.11386360       5.56459365      -0.00238347      -0.00168139       0.00000118
O        4.85019863       3.42960763       5.56459326       0.00237244       0.00167370      -0.00000059
O        4.03145848       1.11386395       4.14649510       0.00118947      -0.00168025      -0.00206089
O        2.39398062       3.42960789       6.98269153      -0.00118366       0.00167567       0.00205189
O        2.39398023       3.42960767       4.14649504      -0.00118834       0.00168043      -0.00205576
O        4.03145865       1.11386277       6.98269102       0.00119343      -0.00168526       0.00206149
