9
Lattice="6.25804041412328 -1.1978969336086933e-08 3.613081281630993 2.0860134179228336 5.900137022335728 3.613081354650304 -5.47707645446573e-08 5.070124834246123e-08 7.226162658127749" Properties=species:S:1:pos:R:3:forces:R:3 energy=-35.89434814453125 free_energy=-35.89434814453125 stress="3.6990957596572116e-05 -2.1589428911283903e-08 -9.057008476531792e-09 -2.1589428911283903e-08 3.700603701872751e-05 2.259773346224847e-08 -9.057008476531792e-09 2.259773346224847e-08 3.70302441297099e-05" pbc="T T T"
Sn       2.08601362       1.47503410       3.61308131       0.00000099      -0.00000045      -0.00000091
Sn       6.25804023       4.42510303      10.83924360      -0.00000031       0.00000085      -0.00000079
Ti      -0.00000005      -0.00000000      -0.00000018       0.00000161      -0.00000048       0.00000082
Te       2.18797364       1.54713099       7.22616267      -0.00585806      -0.00414381       0.00000045
Te       6.15608008       4.35300622       7.22616283       0.00585678       0.00414144      -0.00000016
Te       5.16405322       1.54713116       5.50792220       0.00293022      -0.00414453      -0.00507388
Te       3.18000056       4.35300583       8.94440306      -0.00293103       0.00414590       0.00507682
Te       3.18000028       4.35300599       5.50792236      -0.00292934       0.00414361      -0.00507516
Te       5.16405355       1.54713092       8.94440333       0.00292911      -0.00414256       0.00507274
