9
Lattice="4.871874486034187 4.5835239412420315e-08 2.81277777931917 1.6239582230402465 4.59324716124802 2.8127777484627257 1.894074233410683e-08 -2.4398151013543573e-08 5.625555525832019" Properties=species:S:1:pos:R:3:forces:R:3 energy=-59.37813186645508 free_energy=-59.37813186645508 stress="-9.861778380582109e-05 -7.104237198518604e-08 1.2231251567129675e-08 -7.104237198518604e-08 -9.870075155049562e-05 -4.1458985577946805e-08 1.2231251567129675e-08 -4.1458985577946805e-08 -9.844437590800226e-05" pbc="T T T"
Sn       1.62395965       1.14831136       2.81277676       0.00000832      -0.00000341      -0.00000903
Sn       4.87187505       3.44493533       8.43833182       0.00000384      -0.00000127      -0.00001190
Ta       0.00000009      -0.00000005      -0.00000056       0.00000785       0.00000118      -0.00000012
O        1.63057453       1.15299064       5.62555696       0.00415707       0.00294179       0.00000480
O        4.86525800       3.44025700       5.62555666      -0.00416732      -0.00294399       0.00000459
O        4.05658605       1.15299025       4.22489664      -0.00208426       0.00294000       0.00360322
O        2.43924562       3.44025679       7.02621415       0.00207990      -0.00293744      -0.00359845
O        2.43924525       3.44025681       4.22489695       0.00207746      -0.00293869       0.00360417
O        4.05658661       1.15299058       7.02621440      -0.00208294       0.00294214      -0.00359690
