9
Lattice="5.537990931280557 1.6650465677646094e-08 3.1973604966991998 1.8459969567598076 5.221267986292332 3.197360559108334 -4.289086276404609e-08 4.610684117832088e-08 6.394721067687543" Properties=species:S:1:pos:R:3:forces:R:3 energy=-43.139007568359375 free_energy=-43.139007568359375 stress="0.00015801064728293568 1.523506831802024e-08 2.4802568887594134e-09 1.523506831802024e-08 0.0001579775707796216 -1.2658593284697872e-08 2.4802568887594134e-09 -1.2658593284697872e-08 0.00015794082719366997" pbc="T T T"
Sn       1.84599714       1.30531715       3.19736055      -0.00000039      -0.00000000       0.00000005
Sn       5.53799107       3.91595086       9.59208158       0.00000063      -0.00000030       0.00000036
Ti       0.00000010       0.00000012       0.00000014      -0.00000091      -0.00000284       0.00000223
S        1.89849639       1.34243982       6.39472098      -0.00157952      -0.00111866       0.00000001
S        5.48549138       3.87882834       6.39472089       0.00158122       0.00111991      -0.00000050
S        4.58874259       1.34243975       4.84150671       0.00078958      -0.00111747      -0.00136775
S        2.79524504       3.87882797       7.94793550      -0.00079003       0.00111708       0.00136763
S        2.79524500       3.87882826       4.84150661      -0.00079000       0.00111899      -0.00136831
S        4.58874266       1.34243996       7.94793546       0.00078942      -0.00111660       0.00136659
