9
Lattice="5.797829392400107 -2.157147558807498e-08 3.347378337547628 1.9326097691410875 5.466246033673213 3.347378351383003 -6.580095495254707e-08 -2.9583519102003447e-08 6.694756789065872" Properties=species:S:1:pos:R:3:forces:R:3 energy=-31.895483016967773 free_energy=-31.895483016967773 stress="-4.785988494404592e-07 7.923508071883134e-09 -2.4750432814357737e-09 7.923508071883134e-09 -4.6243576434790157e-07 2.7449145179048173e-09 -2.4750432814357737e-09 2.7449145179048173e-09 -4.5797168013450573e-07" pbc="T T T"
Sn       1.93260976       1.36656194       3.34737823       0.00000064       0.00000032      -0.00000077
Sn       5.79782931       4.09968436      10.04213508      -0.00000092       0.00000018      -0.00000038
Te      -0.00000012      -0.00000002      -0.00000002       0.00000048      -0.00000071       0.00000151
Se       2.27303724       1.60728004       6.69475692       0.00047776       0.00033803       0.00000058
Se       5.45740176       3.85896586       6.69475652      -0.00047731      -0.00033762       0.00000030
Se       4.66131076       1.60728027       5.31588646      -0.00023823       0.00033669       0.00041276
Se       3.06912839       3.85896570       8.07362715       0.00023895      -0.00033835      -0.00041330
Se       3.06912873       3.85896567       5.31588639       0.00023774      -0.00033668       0.00041251
Se       4.66131058       1.60728008       8.07362714      -0.00023907       0.00033808      -0.00041327
