9
Lattice="5.8322846041882395 -4.1069843090461275e-08 3.367270958918848 1.9440948178946484 5.4987306243022305 3.3672709787457156 2.31983333816728e-08 4.0686548328254087e-08 6.734541877657025" Properties=species:S:1:pos:R:3:forces:R:3 energy=-40.00632095336914 free_energy=-40.00632095336914 stress="0.00038008278352208436 1.1417727208140604e-08 -2.1692917684390522e-08 1.1417727208140604e-08 0.000380089069949463 2.3635008616906816e-08 -2.1692917684390522e-08 2.3635008616906816e-08 0.0003801360144279897" pbc="T T T"
Sn       1.94409426       1.37468277       3.36727050      -0.00000146       0.00000088      -0.00000145
Sn       5.83228480       4.12404815      10.10181261       0.00000107       0.00000085      -0.00000233
Ti      -0.00000010      -0.00000023      -0.00000031       0.00000161       0.00000102       0.00000557
Se       2.00287952       1.41624977       6.73454184      -0.00396308      -0.00280236       0.00000137
Se       5.77350004       4.08248097       6.73454185       0.00396141       0.00280075       0.00000066
Se       4.83084478       1.41624990       5.10181593       0.00198374      -0.00280492      -0.00343395
Se       2.94553470       4.08248078       8.36726855      -0.00198096       0.00280108       0.00343273
Se       2.94553458       4.08248088       5.10181574      -0.00198239       0.00280290      -0.00343153
Se       4.83084520       1.41624951       8.36726852       0.00198008      -0.00280019       0.00342900
