9
Lattice="5.830674255932456 -1.917557602451055e-08 3.366341331307402 1.9435580777024968 5.497212385537037 3.3663413131718345 4.7409792037471135e-08 1.131230443079015e-08 6.732682580498692" Properties=species:S:1:pos:R:3:forces:R:3 energy=-43.58540344238281 free_energy=-43.58540344238281 stress="9.870959183899686e-05 4.274487874766919e-09 1.3312258850817216e-08 4.274487874766919e-09 9.870844223769382e-05 -3.517532931596179e-08 1.3312258850817216e-08 -3.517532931596179e-08 9.871127258520573e-05" pbc="T T T"
Sn       1.94355829       1.37430288       3.36634123      -0.00000115       0.00000038       0.00000054
Sn       5.83067429       4.12290941      10.09902387       0.00000074      -0.00000040      -0.00000022
Ta       0.00000015      -0.00000000      -0.00000004      -0.00000079       0.00000036      -0.00000085
Se       2.04443258       1.44563202       6.73268263      -0.00042691      -0.00030152      -0.00000028
Se       5.72979976       4.05158024       6.73268263       0.00042699       0.00030201      -0.00000017
Se       4.80845797       1.44563181       5.13687184       0.00021312      -0.00030159      -0.00036960
Se       2.96577420       4.05158050       8.32849348      -0.00021323       0.00030206       0.00036934
Se       2.96577452       4.05158040       5.13687184      -0.00021338       0.00030200      -0.00037043
Se       4.80845776       1.44563226       8.32849340       0.00021468      -0.00030318       0.00037195
