9
Lattice="4.610440466629337 4.052495074589688e-08 2.6618391394225402 1.5368135090931074 4.346765031791971 2.6618391705832423 -2.79012076734518e-08 1.8434761560854282e-08 5.323678327171382" Properties=species:S:1:pos:R:3:forces:R:3 energy=-53.84151840209961 free_energy=-53.84151840209961 stress="-0.0008152704103849828 8.787074179394949e-09 9.315248661323494e-08 8.787074179394949e-09 -0.0008154467213898897 5.398287328262086e-08 9.315248661323494e-08 5.398287328262086e-08 -0.000815408886410296" pbc="T T T"
Sn       1.53681301       1.08669273       2.66184072      -0.00000443       0.00001266       0.00001864
Sn       4.61044019       3.26007420       7.98551820      -0.00000264       0.00000574       0.00000822
Ti      -0.00000004       0.00000013       0.00000034       0.00000035      -0.00000101      -0.00000063
O        1.58230488       1.11885799       5.32367763      -0.00434208      -0.00307643      -0.00000740
O        4.56494949       3.22790593       5.32367753       0.00435042       0.00306755      -0.00000531
O        3.81928737       1.11885887       4.03215418       0.00216633      -0.00306964      -0.00377023
O        2.32796655       3.22790611       6.61520181      -0.00216931       0.00306773       0.00376821
O        2.32796535       3.22790671       4.03215554      -0.00217873       0.00307006      -0.00376213
O        3.81928903       1.11885770       6.61520053       0.00218028      -0.00307757       0.00375032
