9
Lattice="5.560838827021954 -4.928088304230092e-08 3.210551768431399 1.8536129267115287 5.242809038967881 3.210551715026473 -3.8359694567114885e-09 -6.811982400480382e-08 6.421103543506889" Properties=species:S:1:pos:R:3:forces:R:3 energy=-47.43871307373047 free_energy=-47.43871307373047 stress="0.00027252835570834577 9.207184348269948e-09 5.984056361540979e-09 9.207184348269948e-09 0.0002725172380451113 -1.5302171973985423e-08 5.984056361540979e-09 -1.5302171973985423e-08 0.00027250207494944334" pbc="T T T"
Sn       1.85361291       1.31070222       3.21055158      -0.00000021      -0.00000002      -0.00000002
Sn       5.56083893       3.93210686       9.63165524      -0.00000065       0.00000012      -0.00000054
Ta      -0.00000005       0.00000012      -0.00000010       0.00000326      -0.00000095       0.00000445
S        1.94453410       1.37499327       6.42110362      -0.00193617      -0.00136906       0.00000031
S        5.46991756       3.86781550       6.42110373       0.00193563       0.00136830      -0.00000040
S        4.58857171       1.37499302       4.89456754       0.00096707      -0.00136761      -0.00167456
S        2.82587997       3.86781583       7.94763941      -0.00096677       0.00136673       0.00167474
S        2.82588002       3.86781566       4.89456774      -0.00096823       0.00137003      -0.00167781
S        4.58857182       1.37499319       7.94763932       0.00096609      -0.00136761       0.00167406
