9
Lattice="6.149571979111559 1.1887327780641078e-07 3.5504571171702155 2.0498574481709406 5.797872131543243 3.5504571003249867 6.308997637005538e-08 2.3980231796572043e-08 7.100914125065404" Properties=species:S:1:pos:R:3:forces:R:3 energy=-32.42671203613281 free_energy=-32.42671203613281 stress="4.760014417115599e-05 5.992510487828895e-09 -4.978278900225064e-10 5.992510487828895e-09 4.7593155613867566e-05 1.4269903036989717e-09 -4.978278900225064e-10 1.4269903036989717e-09 4.7584551793988794e-05" pbc="T T T"
Sn       2.04985727       1.44946755       3.55045775      -0.00000034      -0.00000100       0.00000140
Sn       6.14957193       4.34840462      10.65137019      -0.00000175       0.00000065      -0.00000473
V        0.00000039       0.00000069      -0.00000028      -0.00000471      -0.00000524       0.00000607
Br       2.04252862       1.44428561       7.10091378      -0.00446130      -0.00315568      -0.00000018
Br       6.15690040       4.35358621       7.10091479       0.00446817       0.00315987       0.00000220
Br       5.12830768       1.44428575       5.31933876       0.00223235      -0.00315804      -0.00386591
Br       3.07112196       4.35358661       8.88248973      -0.00223028       0.00315555       0.00386424
Br       3.07112170       4.35358629       5.31933892      -0.00223348       0.00315854      -0.00386708
Br       5.12830802       1.44428575       8.88248975       0.00223137      -0.00315468       0.00386392
