9
Lattice="5.802483910313557 8.640613225343054e-08 3.3500657430995417 1.9341613619290985 5.470634464984802 3.3500657828903746 1.5405354342882608e-08 5.962686854185441e-08 6.700131459516248" Properties=species:S:1:pos:R:3:forces:R:3 energy=-40.083648681640625 free_energy=-40.083648681640625 stress="7.800002640578896e-05 2.3629864731589123e-09 -9.9706500833463e-09 2.3629864731589123e-09 7.808565715095028e-05 -1.6993110918406273e-08 -9.9706500833463e-09 -1.6993110918406273e-08 7.801344327162951e-05" pbc="T T T"
Sn       1.93416146       1.36765873       3.35006568      -0.00000027       0.00000013      -0.00000033
Sn       5.80248427       4.10297572      10.05019678       0.00000025      -0.00000061      -0.00000158
V       -0.00000016       0.00000017       0.00000011       0.00000031      -0.00000074      -0.00000068
Se       1.95656447       1.38350025       6.70013161       0.00018793       0.00013247       0.00000010
Se       5.78008057       4.08713431       6.70013153      -0.00018683      -0.00013240      -0.00000008
Se       4.82420155       1.38350030       5.04450058      -0.00009434       0.00013252       0.00016293
Se       2.91244382       4.08713413       8.35576227       0.00009309      -0.00013109      -0.00016084
Se       2.91244377       4.08713445       5.04450084       0.00009306      -0.00013140       0.00016135
Se       4.82420136       1.38350043       8.35576252      -0.00009313       0.00013117      -0.00016102
