9
Lattice="4.948071871431814 1.0600083858739237e-07 2.856770652753283 1.6493573713642273 4.665087054561599 2.856770685751594 -5.7950897330720855e-08 -5.629599166212846e-10 5.713541405880494" Properties=species:S:1:pos:R:3:forces:R:3 energy=-47.41773223876953 free_energy=-47.41773223876953 stress="0.0004616171936504543 3.144030813473364e-08 2.0864487026983625e-08 3.144030813473364e-08 0.00046161323552951217 -4.235089434700967e-08 2.0864487026983625e-08 -4.235089434700967e-08 0.00046156777534633875" pbc="T T T"
Sn       1.64935723       1.16627170       2.85677077       0.00000013       0.00000005       0.00000046
Sn       4.94807189       3.49881561       8.57031230      -0.00000007      -0.00000078      -0.00000017
V       -0.00000013       0.00000022      -0.00000048      -0.00000008      -0.00000707       0.00000222
F        1.61591226       1.14262272       5.71354125      -0.00254716      -0.00180157       0.00000005
F        4.98151654       3.52246424       5.71354134       0.00255129       0.00180397      -0.00000023
F        4.14011603       1.14262224       4.25619148       0.00127103      -0.00179767      -0.00220113
F        2.45731332       3.52246494       7.17089126      -0.00127285       0.00179945       0.00220352
F        2.45731360       3.52246438       4.25619185      -0.00127481       0.00180347      -0.00220827
F        4.14011595       1.14262258       7.17089123       0.00127248      -0.00179986       0.00220354
