9
Lattice="5.4904837914122755 -4.041718886977585e-08 3.1699322913365315 1.8301612286262412 5.17647775607717 3.169932286265346 -3.756258465127663e-08 -3.277168681346919e-08 6.339864647733414" Properties=species:S:1:pos:R:3:forces:R:3 energy=-43.54045486450195 free_energy=-43.54045486450195 stress="0.00032782211201265454 -1.5170458667057574e-08 1.0812680528715646e-08 -1.5170458667057574e-08 0.00032783436472527683 6.516482020657577e-09 1.0812680528715646e-08 6.516482020657577e-09 0.00032784175709821284" pbc="T T T"
Sn       1.83016095       1.29411920       3.16993202      -0.00000037      -0.00000005      -0.00000042
Sn       5.49048353       3.88235823       9.50979653      -0.00000059      -0.00000057       0.00000019
V        0.00000006       0.00000005       0.00000021       0.00000146      -0.00000106      -0.00000017
S        1.83431927       1.29705963       6.33986464      -0.00292718      -0.00207090      -0.00000023
S        5.48632577       3.87941829       6.33986467       0.00292787       0.00207016      -0.00000002
S        4.57332434       1.29705961       4.75849974       0.00146455      -0.00207120      -0.00253624
S        2.74732088       3.87941817       7.92122992      -0.00146542       0.00207254       0.00253889
S        2.74732088       3.87941808       4.75849964      -0.00146532       0.00207242      -0.00253829
S        4.57332425       1.29705956       7.92122966       0.00146477      -0.00207153       0.00253636
