9
Lattice="6.179230035474107 -1.874257389298137e-08 3.5675801697035836 2.0597433434099375 5.825833964290263 3.5675801421248585 4.2291608924271254e-08 -3.872203297051526e-09 7.135160266155886" Properties=species:S:1:pos:R:3:forces:R:3 energy=-35.93699264526367 free_energy=-35.93699264526367 stress="-0.0001281874574488029 -6.892753035003807e-09 -5.181601370196631e-09 -6.892753035003807e-09 -0.00012818763207178563 -7.34409644209677e-09 -5.181601370196631e-09 -7.34409644209677e-09 -0.0001281773002119735" pbc="T T T"
Sn       2.05974306       1.45645891       3.56757997      -0.00000064       0.00000096      -0.00000020
Sn       6.17922986       4.36937534      10.70274033      -0.00000092      -0.00000025       0.00000022
V        0.00000006      -0.00000006       0.00000023      -0.00000141      -0.00000027      -0.00000144
Te       2.15010638       1.52035471       7.13516022      -0.00367429      -0.00259835       0.00000037
Te       6.08886706       4.30547891       7.13516022       0.00367614       0.00259885      -0.00000056
Te       5.10417710       1.52035470       5.42962707       0.00183788      -0.00259844      -0.00318354
Te       3.13479681       4.30547903       8.84069387      -0.00183834       0.00259969       0.00318399
Te       3.13479653       4.30547917       5.42962685      -0.00183733       0.00259815      -0.00318351
Te       5.10417682       1.52035506       8.84069358       0.00183892      -0.00260034       0.00318457
