9
Lattice="6.600800173937677 -4.075195949058847e-08 3.810973716188183 2.2002666975458363 6.223293958934063 3.8109736965792407 -5.175192549587492e-09 -2.767542482665177e-08 7.621947441340044" Properties=species:S:1:pos:R:3:forces:R:3 energy=-28.363697052001953 free_energy=-28.363697052001953 stress="6.58517747069709e-05 3.864621067606322e-09 -4.067089331982743e-09 3.864621067606322e-09 6.585597293451428e-05 3.5141045628961365e-09 -4.067089331982743e-09 3.5141045628961365e-09 6.584225775441155e-05" pbc="T T T"
Sn       2.20026622       1.55582363       3.81097356      -0.00000268       0.00000101      -0.00000021
Sn       6.60080047       4.66747169      11.43292151       0.00000114       0.00000481       0.00000086
V       -0.00000003      -0.00000045       0.00000017      -0.00000026       0.00000413       0.00000239
I        2.18417521       1.54444444       7.62194734      -0.00328916      -0.00232673       0.00000054
I        6.61689220       4.67884879       7.62194724       0.00328788       0.00232406      -0.00000033
I        5.50871257       1.54444473       5.70252494       0.00164580      -0.00232812      -0.00284854
I        3.29235413       4.67884919       9.54137047      -0.00164358       0.00232309       0.00284473
I        3.29235410       4.67884909       5.70252427      -0.00164340       0.00232404      -0.00284615
I        5.50871264       1.54444442       9.54136995       0.00164426      -0.00232629       0.00284678
