9
Lattice="4.874065135740248 3.3031123178907926e-08 2.81404290718009 1.6246884541711335 4.5953123944492384 2.8140428301921263 1.2488368197401224e-07 -5.984503116479676e-09 5.628085598055309" Properties=species:S:1:pos:R:3:forces:R:3 energy=-54.43706512451172 free_energy=-54.43706512451172 stress="0.00023181154392659664 1.0731386623774597e-07 -2.411493404963494e-08 1.0731386623774597e-07 0.0002318685146747157 -1.7626339499088317e-08 -2.411493404963494e-08 -1.7626339499088317e-08 0.00023191436775960028" pbc="T T T"
Sn       1.62468714       1.14882770       2.81404206      -0.00000750       0.00000032      -0.00000409
Sn       4.87406526       3.44648439       8.44212858      -0.00000086      -0.00000099      -0.00000251
W        0.00000012       0.00000007      -0.00000002       0.00000240      -0.00000171       0.00000280
O        1.59026033       1.12448397       5.62808568      -0.00115108      -0.00081450       0.00000069
O        4.90849391       3.47082811       5.62808570       0.00115085       0.00081235       0.00000133
O        4.07893544       1.12448364       4.19124895       0.00057620      -0.00081289      -0.00099242
O        2.41981880       3.47082881       7.06492297      -0.00057232       0.00081313       0.00099468
O        2.41981858       3.47082915       4.19124892      -0.00057185       0.00081491      -0.00099254
O        4.07893504       1.12448365       7.06492288       0.00057405      -0.00081009       0.00099218
