9
Lattice="5.87368118433088 1.027961231915235e-08 3.391171388454591 1.9578936978625159 5.53775982093683 3.3911714576318284 -5.722454856231648e-08 4.426057078911158e-08 6.782342876025042" Properties=species:S:1:pos:R:3:forces:R:3 energy=-43.61273956298828 free_energy=-43.61273956298828 stress="8.938807877711952e-05 1.4064444719963376e-08 3.553978000780944e-09 1.4064444719963376e-08 8.939162944443524e-05 -7.353417874611523e-09 3.553978000780944e-09 -7.353417874611523e-09 8.938233804656193e-05" pbc="T T T"
Sn       1.95789381       1.38443983       3.39117132       0.00000012      -0.00000009       0.00000044
Sn       5.87368114       4.15331989      10.17351419      -0.00000022       0.00000012       0.00000023
W        0.00000006      -0.00000004       0.00000004      -0.00000109      -0.00000009       0.00000290
Se       1.98652054       1.40468221       6.78234295       0.00049283       0.00034831       0.00000047
Se       5.84505418       4.13307775       6.78234288      -0.00049179      -0.00034725       0.00000038
Se       4.88042081       1.40468233       5.11154867      -0.00024581       0.00034736       0.00042597
Se       2.95115386       4.13307775       8.45313703       0.00024745      -0.00034996      -0.00042872
Se       2.95115405       4.13307765       5.11154874       0.00024565      -0.00034731       0.00042581
Se       4.88042084       1.40468212       8.45313709      -0.00024711       0.00034886      -0.00042733
