9
Lattice="6.266657370184464 4.662856704551479e-08 3.6180562899717477 2.0888858348230785 5.908261292433802 3.6180562885864913 3.047962783875127e-09 4.5864768960547146e-10 7.236112574664237" Properties=species:S:1:pos:R:3:forces:R:3 energy=-38.769676208496094 free_energy=-38.769676208496094 stress="4.3150594137841836e-05 8.371227266934511e-09 3.610981957891113e-09 8.371227266934511e-09 4.314751276979223e-05 -1.984701736290617e-09 3.610981957891113e-09 -1.984701736290617e-09 4.312059536459856e-05" pbc="T T T"
Sn       2.08888554       1.47706526       3.61805620      -0.00000066      -0.00000079       0.00000052
Sn       6.26665745       4.43119596      10.85416894      -0.00000032      -0.00000060       0.00000026
W       -0.00000033      -0.00000010      -0.00000020       0.00000224      -0.00000005      -0.00000209
Te       2.18309347       1.54368017       7.23611266      -0.00476786      -0.00337146      -0.00000040
Te       6.17244975       4.36458112       7.23611266       0.00476616       0.00337052      -0.00000002
Te       5.17511094       1.54368021       5.50867046       0.00238226      -0.00336882      -0.00412593
Te       3.18043260       4.36458112       8.96355476      -0.00238322       0.00337158       0.00412745
Te       3.18043256       4.36458128       5.50867053      -0.00238259       0.00336993      -0.00412683
Te       5.17511085       1.54368035       8.96355459       0.00238401      -0.00337037       0.00412707
