9
Lattice="5.618072641386789 6.529144928604892e-09 3.2435957670936526 1.8726908955126733 5.296769601442894 3.2435957516876477 7.571998297693481e-08 3.467368553221535e-08 6.487191403036489" Properties=species:S:1:pos:R:3:forces:R:3 energy=-47.36111831665039 free_energy=-47.36111831665039 stress="9.00041195563972e-05 -3.497958589449013e-09 -1.148220518665255e-09 -3.497958589449013e-09 9.001957369036973e-05 1.3578420166027172e-08 -1.148220518665255e-09 1.3578420166027172e-08 9.002038859762251e-05" pbc="T T T"
Sn       1.87269109       1.32419227       3.24359575      -0.00000011       0.00000021       0.00000015
Sn       5.61807250       3.97257727       9.73078726       0.00000081       0.00000026       0.00000026
W        0.00000007       0.00000023      -0.00000024      -0.00000095      -0.00000417       0.00000085
S        1.88084749       1.32995985       6.48719156       0.00097291       0.00068734      -0.00000048
S        5.60991614       3.96680966       6.48719155      -0.00097077      -0.00068592       0.00000044
S        4.67764894       1.32996004       4.87245736      -0.00048598       0.00068708       0.00084113
S        2.81311468       3.96680962       8.10192552       0.00048463      -0.00068540      -0.00084026
S        2.81311465       3.96680964       4.87245740       0.00048514      -0.00068687       0.00084077
S        4.67764892       1.32995997       8.10192553      -0.00048560       0.00068755      -0.00084294
