9
Lattice="6.394060806035213 -5.2419540374991314e-08 3.691612707759515 2.1313535416742733 6.028378340953694 3.691612726666287 -3.2258283919208e-08 3.459765767599056e-10 7.383225471392002" Properties=species:S:1:pos:R:3:forces:R:3 energy=-32.88383483886719 free_energy=-32.88383483886719 stress="9.073988621821627e-05 -1.5377333184574127e-08 1.6761224352901394e-10 -1.5377333184574127e-08 9.072793181985617e-05 1.601269694617713e-08 1.6761224352901394e-10 1.601269694617713e-08 9.075305570149794e-05" pbc="T T T"
Sn       2.13135346       1.50709468       3.69161285      -0.00000128       0.00000110       0.00000102
Sn       6.39406070       4.52128330      11.07483809      -0.00000022      -0.00000282      -0.00000144
Y        0.00000015      -0.00000030      -0.00000034       0.00000025       0.00000374       0.00000464
Br       2.22229102       1.57139706       7.38322551      -0.00067411      -0.00047498      -0.00000043
Br       6.30312344       4.45698159       7.38322526       0.00067087       0.00047399       0.00000174
Br       5.28291514       1.57139718       5.61617352       0.00034034      -0.00047859      -0.00058651
Br       3.24249894       4.45698135       9.15027767      -0.00033539       0.00047503       0.00058258
Br       3.24249903       4.45698122       5.61617320      -0.00033846       0.00047631      -0.00058414
Br       5.28291540       1.57139700       9.15027784       0.00033798      -0.00047386       0.00058262
