9
Lattice="5.110357544047983 4.0120371761944657e-08 2.9504663202369823 1.7034525681476835 4.818091074024249 2.9504662931491334 5.4704855401540316e-09 -2.9307478100461402e-08 5.900932630998802" Properties=species:S:1:pos:R:3:forces:R:3 energy=-49.81599044799805 free_energy=-49.81599044799805 stress="0.000502611743286252 -3.637847711956965e-08 4.727413482896736e-08 -3.637847711956965e-08 0.0005026326980441809 -2.3884821231945352e-08 4.727413482896736e-08 -2.3884821231945352e-08 0.0005026453291065991" pbc="T T T"
Sn       1.70345250       1.20452251       2.95046638       0.00000125      -0.00000269      -0.00000010
Sn       5.11035770       3.61356847       8.85139886       0.00000003       0.00000120       0.00000058
Y       -0.00000007      -0.00000012      -0.00000004      -0.00000343       0.00000148      -0.00000382
F        1.74416448       1.23331051       5.90093258       0.00059174       0.00041859      -0.00000029
F        5.06964559       3.58478062       5.90093248      -0.00059009      -0.00041699       0.00000127
F        4.23827518       1.23331064       4.46095728      -0.00029553       0.00041579       0.00051067
F        2.57553472       3.58478073       7.34090787       0.00029562      -0.00041675      -0.00051071
F        2.57553498       3.58478061       4.46095745       0.00029334      -0.00041562       0.00051009
F        4.23827527       1.23331038       7.34090802      -0.00029306       0.00041489      -0.00050761
