9
Lattice="6.562702047420871 -3.6774211414303727e-09 3.7889777771720334 2.187567330127814 6.187374799721826 3.7889778040972297 -9.11638545223746e-09 2.6530398291438736e-08 7.577955570133948" Properties=species:S:1:pos:R:3:forces:R:3 energy=-19.865720748901367 free_energy=-19.865720748901367 stress="-0.0001319886214332655 -1.7486780024000836e-08 1.5991210577936954e-09 -1.7486780024000836e-08 -0.00013199001841712743 -1.2086869283223223e-09 1.5991210577936954e-09 -1.2086869283223223e-09 -0.00013198632223065943" pbc="T T T"
Sn       2.18756783       1.54684285       3.78897712       0.00000106      -0.00000464      -0.00000214
Sn       6.56270246       4.64053149      11.36693322       0.00000216       0.00000315      -0.00000069
Zn      -0.00000003       0.00000003       0.00000010       0.00000005       0.00000131      -0.00000071
I        2.23571424       1.58088887       7.57795575      -0.00295205      -0.00208768       0.00000125
I        6.51455482       4.60648645       7.57795543       0.00295071       0.00208776       0.00000066
I        5.44484473       1.58088853       5.72516338       0.00147559      -0.00208912      -0.00255670
I        3.30542444       4.60648613       9.43074804      -0.00147591       0.00208841       0.00255693
I        3.30542443       4.60648639       5.72516344      -0.00147688       0.00208881      -0.00255603
I        5.44484458       1.58088856       9.43074814       0.00147518      -0.00208807       0.00255735
