9
Lattice="5.652262648201995 -8.965986375964047e-08 3.2633353733825126 1.8840874642318197 5.329004121118693 3.263335374485383 -2.1452112279738647e-09 -1.6618965059940075e-10 6.5266707504806645" Properties=species:S:1:pos:R:3:forces:R:3 energy=-43.068363189697266 free_energy=-43.068363189697266 stress="0.00011865516717080027 -5.2195421318401714e-08 -1.7991524936533665e-09 -5.2195421318401714e-08 0.00011871075548697263 2.352893879731255e-09 -1.7991524936533665e-09 2.352893879731255e-09 0.0001187549569294788" pbc="T T T"
Sn       1.88408799       1.33225137       3.26333505       0.00000085       0.00000110      -0.00000005
Sn       5.65226290       3.99675309       9.79000608       0.00000189       0.00000013      -0.00000130
Zr      -0.00000046      -0.00000015       0.00000044       0.00000527       0.00000244      -0.00000770
S        2.01664460       1.42598310       6.52667085      -0.00432038      -0.00305505       0.00000114
S        5.51970585       3.90302124       6.52667068       0.00431305       0.00305049      -0.00000143
S        4.64394013       1.42598284       5.00980119       0.00215852      -0.00305413      -0.00374004
S        2.89241015       3.90302059       8.04354029      -0.00216112       0.00305700       0.00374484
S        2.89240944       3.90302068       5.00980135      -0.00216024       0.00305437      -0.00374019
S        4.64393987       1.42598326       8.04354006       0.00216185      -0.00305635       0.00374454
