9
Lattice="4.840142242329353 2.5828249716168463e-08 2.7944575454059075 1.613380777158589 4.5633298850684465 2.7944575361145443 4.694689556049507e-08 2.181693719774154e-08 5.588915009497375" Properties=species:S:1:pos:R:3:forces:R:3 energy=-54.23847961425781 free_energy=-54.23847961425781 stress="-0.0005466401926241815 1.0462019872647943e-07 3.414623606090572e-08 1.0462019872647943e-07 -0.0005464310524985194 4.798841501951756e-08 3.414623606090572e-08 4.798841501951756e-08 -0.000546485127415508" pbc="T T T"
Sn       1.61338136       1.14083215       2.79445765       0.00000270      -0.00000403       0.00000015
Sn       4.84014242       3.42249746       8.38337278       0.00000022       0.00000003       0.00000013
Zr       0.00000006       0.00000003       0.00000015      -0.00000216       0.00000143       0.00000080
O        1.71381340       1.21184909       5.58891447       0.00360346       0.00254649      -0.00000387
O        4.73970953       3.35148066       5.58891493      -0.00360155      -0.00254595       0.00000149
O        3.98323551       1.21184928       4.27866296      -0.00180382       0.00254911       0.00311941
O        2.47028755       3.35148047       6.89916676       0.00180221      -0.00254816      -0.00311905
O        2.47028757       3.35148171       4.27866403       0.00180143      -0.00254536       0.00312150
O        3.98323506       1.21184893       6.89916672      -0.00180262       0.00254601      -0.00312030
