9
Lattice="4.7958890143781545 2.215642936197573e-08 2.7689078809145697 1.5986296955473167 4.52160771823337 2.768907875374345 2.3235075936314683e-08 9.64432709142931e-09 5.537815721584752" Properties=species:S:1:pos:R:3:forces:R:3 energy=-39.19108200073242 free_energy=-39.19108200073242 stress="0.0007342969183810055 1.1610812755691313e-08 2.37203536812558e-08 1.1610812755691313e-08 0.0007341650198213756 -1.0845642606227557e-08 2.37203536812558e-08 -1.0845642606227557e-08 0.0007342417375184596" pbc="T T T"
Sn       1.59862982       1.13040230       2.76890838       0.00000139       0.00000105       0.00000041
Sn       4.79588926       3.39120549       8.30672354       0.00000048      -0.00000239       0.00000200
Zn      -0.00000003      -0.00000026      -0.00000012       0.00000025       0.00000010       0.00000467
F        1.61675543       1.14321921       5.53781563      -0.00737804      -0.00521699      -0.00000051
F        4.77776312       3.37838878       5.53781527       0.00737906       0.00521713       0.00000067
F        3.98751128       1.14321905       4.16905902       0.00368746      -0.00521612      -0.00638855
F        2.40700723       3.37838879       6.90657262      -0.00368740       0.00521407       0.00638628
F        2.40700737       3.37838885       4.16905905      -0.00369054       0.00521645      -0.00639030
F        3.98751144       1.14321875       6.90657259       0.00368735      -0.00521350       0.00638521
