9
Lattice="5.905028966113388 1.0253009075282123e-08 3.4092702388629306 1.9683429831765191 5.567314703221587 3.4092702651806777 4.707839784679547e-08 6.552200884062399e-08 6.818540396183722" Properties=species:S:1:pos:R:3:forces:R:3 energy=-39.948280334472656 free_energy=-39.948280334472656 stress="0.00022888576495461166 1.1061735527562178e-08 -2.1959112306291217e-10 1.1061735527562178e-08 0.00022888723469804972 1.2440028562821226e-08 -2.1959112306291217e-10 1.2440028562821226e-08 0.00022884883219376206" pbc="T T T"
Sn       1.96834315       1.39182868       3.40927049       0.00000022      -0.00000032       0.00000142
Sn       5.90502929       4.17548630      10.22781009       0.00000221      -0.00000020      -0.00000213
Zr       0.00000002       0.00000002       0.00000034      -0.00000200      -0.00000169      -0.00000472
Se       2.11050193       1.49235042       6.81854075      -0.00281488      -0.00198944       0.00000078
Se       5.76286979       4.07496404       6.81854091       0.00281610       0.00199140       0.00000266
Se       4.84977769       1.49235043       5.23701854       0.00140554      -0.00198976      -0.00243717
Se       3.02359398       4.07496454       8.40006197      -0.00140808       0.00199212       0.00243752
Se       3.02359393       4.07496424       5.23701875      -0.00140724       0.00198872      -0.00243678
Se       4.84977822       1.49235043       8.40006182       0.00140825      -0.00199087       0.00243856
