9
Lattice="6.411110141245687 4.8779956813280574e-08 3.7014561641695134 2.1370367420304435 6.044452691849696 3.7014561948411733 8.263297158453365e-09 4.340801828662457e-08 7.40291231402656" Properties=species:S:1:pos:R:3:forces:R:3 energy=-36.38502883911133 free_energy=-36.38502883911133 stress="2.9735321732005104e-05 1.9123042704904947e-08 -1.8931358702900525e-09 1.9123042704904947e-08 2.9716891731368378e-05 3.892443256603428e-09 -1.8931358702900525e-09 3.892443256603428e-09 2.9712688046856783e-05" pbc="T T T"
Sn       2.13703671       1.51111338       3.70145618      -0.00000003       0.00000201       0.00000001
Sn       6.41111017       4.53333946      11.10436859       0.00000094      -0.00000130      -0.00000009
Zr       0.00000014      -0.00000006       0.00000023      -0.00000202      -0.00000033      -0.00000061
Te       2.29744873       1.62454181       7.40291234       0.00001258       0.00000987      -0.00000030
Te       6.25069804       4.41991099       7.40291229      -0.00001165      -0.00000834       0.00000015
Te       5.26238585       1.62454168       5.69110511      -0.00000718       0.00000960       0.00001194
Te       3.28576109       4.41991091       9.11471956       0.00000703      -0.00001053      -0.00001223
Te       3.28576101       4.41991113       5.69110500       0.00000728      -0.00001132       0.00001323
Te       5.26238580       1.62454180       9.11471947      -0.00000699       0.00001034      -0.00001211
