9
Lattice="6.088477769072875 -2.1426274646456975e-08 3.515184248267649 2.0294925763123093 5.740271802481752 3.515184236451178 -2.779138191686638e-08 -3.4123638279951495e-08 7.0303685446714095" Properties=species:S:1:pos:R:3:forces:R:3 energy=-23.72289276123047 free_energy=-23.72289276123047 stress="-6.950274837436154e-05 3.476979149041881e-09 -2.4065276438278715e-09 3.476979149041881e-09 -6.949762610020116e-05 1.3015342137379093e-09 -2.4065276438278715e-09 1.3015342137379093e-09 -6.949352246010676e-05" pbc="T T T"
Sn       2.02949334       1.43506848       3.51518449       0.00000300       0.00000275       0.00000156
Sn       6.08847826       4.30520387      10.54555281       0.00000202       0.00000083       0.00000149
Zn      -0.00000002       0.00000006      -0.00000002       0.00000009       0.00000032       0.00000013
Br       2.06146542       1.45767625       7.03036842      -0.00217393      -0.00153703       0.00000019
Br       6.05650485       4.28259555       7.03036838       0.00217184       0.00153518      -0.00000169
Br       5.05774461       1.45767606       5.30046568       0.00108549      -0.00153574      -0.00188202
Br       3.06022514       4.28259540       8.76027134      -0.00108718       0.00153522       0.00188187
Br       3.06022492       4.28259527       5.30046569      -0.00108657       0.00153513      -0.00188241
Br       5.05774474       1.45767603       8.76027133       0.00108520      -0.00153670       0.00188088
