9
Lattice="5.929010374802975 1.0591982432216204e-07 3.4231159283811734 1.9763368521588554 5.589924807036154 3.423115996458179 2.2939542549199158e-08 9.959771585548745e-08 6.846231817029898" Properties=species:S:1:pos:R:3:forces:R:3 energy=-31.3762149810791 free_energy=-31.3762149810791 stress="-3.7328503822209314e-05 9.050442173474949e-09 2.66850652685946e-10 9.050442173474949e-09 -3.7386795156635344e-05 -6.278386699420935e-09 2.66850652685946e-10 -6.278386699420935e-09 -3.739624662557617e-05" pbc="T T T"
Sr       1.97633689       1.39748106       3.42311536       0.00000046      -0.00000193      -0.00000042
Sr       5.92901086       4.19244341      10.26934801       0.00000052       0.00000106      -0.00000056
Ag      -0.00000053       0.00000054      -0.00000017       0.00000225      -0.00000502       0.00000125
Cl       2.03704487       1.44040868       6.84623165      -0.00048077      -0.00033838       0.00000005
Cl       5.86830195       4.14951671       6.84623166       0.00048003       0.00034122      -0.00000040
Cl       4.91048811       1.44040863       5.18724892       0.00024080      -0.00034076      -0.00041550
Cl       2.99485921       4.14951623       8.50521531      -0.00024091       0.00033808       0.00041991
Cl       2.99485934       4.14951645       5.18724944      -0.00024250       0.00034407      -0.00041750
Cl       4.91048834       1.44040830       8.50521480       0.00024015      -0.00033846       0.00041321
