9
Lattice="6.243317160231142 3.117354329230404e-08 3.604580835445564 2.0811057331511393 5.886255919039809 3.604580863706836 -1.5469869376353345e-08 2.3673999388967532e-08 7.209161697685745" Properties=species:S:1:pos:R:3:forces:R:3 energy=-27.864259719848633 free_energy=-27.864259719848633 stress="-4.455522866919637e-05 -4.709805434544023e-09 1.824602413602605e-10 -4.709805434544023e-09 -4.455157250049524e-05 5.439509287441524e-09 1.824602413602605e-10 5.439509287441524e-09 -4.455005910131149e-05" pbc="T T T"
Sr       2.08110546       1.47156394       3.60458088      -0.00000056      -0.00000015      -0.00000014
Sr       6.24331729       4.41469229      10.81374251      -0.00000044       0.00000052      -0.00000018
Au       0.00000024       0.00000004       0.00000034      -0.00000352       0.00000034      -0.00000254
Br       2.15208816       1.52175599       7.20916159      -0.00065020      -0.00045973      -0.00000021
Br       6.17233471       4.36449979       7.20916162       0.00065279       0.00046129       0.00000011
Br       5.16727312       1.52175599       5.46834393       0.00032557      -0.00046095      -0.00056388
Br       3.15714977       4.36449975       8.94997949      -0.00032557       0.00046080       0.00056480
Br       3.15714968       4.36449986       5.46834378      -0.00032479       0.00045987      -0.00056336
Br       5.16727308       1.52175623       8.94997945       0.00032665      -0.00046204       0.00056539
