9
Lattice="6.25889520830722 3.067890902965019e-08 3.6135749187471693 2.0862984218724185 5.900943023810354 3.613574935757686 -8.70777767372582e-09 1.4676166089212599e-08 7.227149852576711" Properties=species:S:1:pos:R:3:forces:R:3 energy=-27.87592124938965 free_energy=-27.87592124938965 stress="-4.2332867451477796e-05 1.5201711001111562e-09 -7.99108834659279e-10 1.5201711001111562e-09 -4.231667480780743e-05 7.696706383342189e-09 -7.99108834659279e-10 7.696706383342189e-09 -4.231909406371415e-05" pbc="T T T"
Sr       2.08629833       1.47523563       3.61357471       0.00000075      -0.00000114       0.00000042
Sr       6.25889536       4.42570742      10.84072505       0.00000012      -0.00000037      -0.00000030
Ag      -0.00000018       0.00000019      -0.00000007       0.00000100      -0.00000024       0.00000097
Br       2.16214126       1.52886476       7.22714986      -0.00058265      -0.00041255       0.00000034
Br       6.18305234       4.37207829       7.22714977       0.00058106       0.00041121       0.00000026
Br       5.17782459       1.52886475       5.48604422       0.00029149      -0.00041234      -0.00050379
Br       3.16736899       4.37207832       8.96825546      -0.00029104       0.00041275       0.00050414
Br       3.16736910       4.37207817       5.48604421      -0.00029130       0.00041297      -0.00050575
Br       5.17782470       1.52886474       8.96825565       0.00029057      -0.00041036       0.00050358
