9
Lattice="5.091210075755634 -1.126874494382557e-07 2.939411579401739 1.6970699399857287 4.800038885971263 2.93941154306923 3.035232480901735e-08 -2.303572831145207e-08 5.878823106231736" Properties=species:S:1:pos:R:3:forces:R:3 energy=-41.273101806640625 free_energy=-41.273101806640625 stress="0.00019535653700586408 1.0805281114301124e-08 2.5160793448719687e-09 1.0805281114301124e-08 0.00019534891180228442 9.829895120105903e-09 2.5160793448719687e-09 9.829895120105903e-09 0.00019533395243342966" pbc="T T T"
Sr       1.69707010       1.20000968       2.93941144       0.00000035       0.00000028      -0.00000097
Sr       5.09121008       3.60002907       8.81823457       0.00000066       0.00000105       0.00000069
Au       0.00000017      -0.00000040       0.00000028       0.00001053       0.00001418      -0.00001886
F        1.78663993       1.26334532       5.87882313      -0.00147280      -0.00104144      -0.00000006
F        5.00164043       3.53669412       5.87882320       0.00145702       0.00102943      -0.00000001
F        4.19789001       1.26334490       4.48668708       0.00073057      -0.00103278      -0.00126591
F        2.59038993       3.53669355       7.27095869      -0.00073448       0.00103945       0.00127287
F        2.59038975       3.53669364       4.48668762      -0.00072850       0.00103125      -0.00126271
F        4.19788989       1.26334494       7.27095904       0.00073668      -0.00104149       0.00127491
