9
Lattice="6.813765962982208 -2.1493362593971676e-08 3.933929617574273 2.2712552869337235 6.42408016807923 3.933929641470054 -3.9846756717515595e-08 1.0902972685477253e-09 7.867859304165074" Properties=species:S:1:pos:R:3:forces:R:3 energy=-24.183788299560547 free_energy=-24.183788299560547 stress="-5.447742296382785e-05 1.7912013206000665e-08 -1.0292256630295427e-10 1.7912013206000665e-08 -5.449459786177613e-05 -7.417367609008352e-09 -1.0292256630295427e-10 -7.417367609008352e-09 -5.4505020671058446e-05" pbc="T T T"
Sr       2.27125595       1.60602024       3.93392944       0.00000096       0.00000014      -0.00000044
Sr       6.81376534       4.81805978      11.80178927      -0.00000068      -0.00000034       0.00000031
Au      -0.00000001      -0.00000002      -0.00000028      -0.00000053      -0.00000074       0.00000061
I        2.34206544       1.65609054       7.86785928      -0.00146670      -0.00103654       0.00000031
I        6.74295564       4.76798970       7.86785927       0.00146700       0.00103761      -0.00000048
I        5.64273310       1.65609050       5.96221807       0.00073309      -0.00103721      -0.00126997
I        3.44228808       4.76798980       9.77350060      -0.00073254       0.00103668       0.00126996
I        3.44228822       4.76798977       5.96221796      -0.00073310       0.00103723      -0.00127002
I        5.64273308       1.65609027       9.77350066       0.00073258      -0.00103683       0.00126971
