9
Lattice="5.951062146673728 -1.5185786032750865e-08 3.4358472983681847 1.9836873773678063 5.610715383310099 3.43584728198213 4.682883806520264e-09 -1.6757471662793852e-08 6.871694588625387" Properties=species:S:1:pos:R:3:forces:R:3 energy=-31.307708740234375 free_energy=-31.307708740234375 stress="4.159543891546491e-07 -3.4603293563861826e-09 -2.664598985901989e-09 -3.4603293563861826e-09 4.207684014545521e-07 1.0736865840854648e-09 -2.664598985901989e-09 1.0736865840854648e-09 3.9003333540676977e-07" pbc="T T T"
Sr       1.98368751       1.40267890       3.43584709      -0.00000048      -0.00000054      -0.00000013
Sr       5.95106225       4.20803650      10.30754187       0.00000016       0.00000056       0.00000039
Au      -0.00000025       0.00000012       0.00000003       0.00000415      -0.00000190      -0.00000076
Cl       2.03666348       1.44013862       6.87169462      -0.00405566      -0.00286795      -0.00000005
Cl       5.89808590       4.17057672       6.87169450       0.00405414       0.00286633      -0.00000037
Cl       4.93273053       1.44013849       5.19964980       0.00202636      -0.00286501      -0.00351059
Cl       3.00201922       4.17057668       8.54373933      -0.00202843       0.00286833       0.00351302
Cl       3.00201905       4.17057665       5.19964992      -0.00202758       0.00286740      -0.00351300
Cl       4.93273043       1.44013869       8.54373949       0.00202716      -0.00286735       0.00351150
