9
Lattice="6.67701917476819 3.72597458624549e-08 3.854978773391253 2.225673095282002 6.295154018470044 3.8549787701053964 1.7163491806124373e-08 8.112059302429874e-09 7.709957517054526" Properties=species:S:1:pos:R:3:forces:R:3 energy=-25.858713150024414 free_energy=-25.858713150024414 stress="3.253358954680152e-05 -5.586852647176954e-10 6.703132715557558e-09 -5.586852647176954e-10 3.25349101331085e-05 -1.7559683707091267e-09 6.703132715557558e-09 -1.7559683707091267e-09 3.2540028769290075e-05" pbc="T T T"
Sr       2.22567341       1.57378836       3.85497880       0.00000132      -0.00000034       0.00000041
Sr       6.67701908       4.72136574      11.56493642      -0.00000068       0.00000083      -0.00000001
Be       0.00000005       0.00000009       0.00000016      -0.00000032      -0.00000058      -0.00000078
I        2.16278757       1.52932167       7.70995786      -0.00704040      -0.00497812      -0.00000159
I        6.73990450       4.76583228       7.70995749       0.00704149       0.00497828      -0.00000084
I        5.59562551       1.52932170       5.72800764       0.00351888      -0.00497702      -0.00609687
I        3.30706713       4.76583209       9.69190708      -0.00352141       0.00497966       0.00609840
I        3.30706686       4.76583246       5.72800773      -0.00352025       0.00497663      -0.00609710
I        5.59562509       1.52932191       9.69190705       0.00352139      -0.00497933       0.00609832
