9
Lattice="5.70838040213508 -9.408680925398082e-09 3.295734865070854 1.9027934520194951 5.381912645152172 3.2957348763089596 -3.7676603496309125e-08 -1.2877572138913705e-08 6.591469795399403" Properties=species:S:1:pos:R:3:forces:R:3 energy=-35.29439926147461 free_energy=-35.29439926147461 stress="2.0249102817615494e-05 -1.4019760463668263e-08 -4.25268575909854e-09 -1.4019760463668263e-08 2.0232155293342657e-05 -9.702803005495753e-09 -4.25268575909854e-09 -9.702803005495753e-09 2.0199939172016457e-05" pbc="T T T"
Sr       1.90279315       1.34547845       3.29573501      -0.00000037       0.00000012      -0.00000025
Sr       5.70838034       4.03643429       9.88720413      -0.00000034       0.00000031       0.00000063
Be       0.00000026       0.00000008      -0.00000017      -0.00000039      -0.00000020      -0.00000043
Cl       1.85280740       1.31013237       6.59146996       0.00009766       0.00007080      -0.00000038
Cl       5.75836672       4.07178001       6.59147011      -0.00010040      -0.00007088      -0.00000057
Cl       4.78197646       1.31013273       4.90031289      -0.00004692       0.00006945       0.00008601
Cl       2.82919727       4.07177992       8.28262683       0.00004949      -0.00006875      -0.00008883
Cl       2.82919737       4.07177991       4.90031278       0.00004842      -0.00006899       0.00008863
Cl       4.78197633       1.31013269       8.28262659      -0.00004706       0.00006840      -0.00008462
