9
Lattice="6.055224023734527 1.2026687861326446e-07 3.495985205380541 2.0184080929590302 5.708919854106554 3.4959852544688674 1.0677527666712234e-08 6.767088056590227e-08 6.991970392267122" Properties=species:S:1:pos:R:3:forces:R:3 energy=-30.75076675415039 free_energy=-30.75076675415039 stress="9.012916416395456e-05 1.6248884904257466e-08 -9.201278849957362e-09 1.6248884904257466e-08 9.01088715181686e-05 4.1303045428264795e-09 -9.201278849957362e-09 4.1303045428264795e-09 9.012898954097182e-05" pbc="T T T"
Sr       2.01840810       1.42722911       3.49598549      -0.00000026      -0.00000048       0.00000023
Sr       6.05522397       4.28169081      10.48795556       0.00000042       0.00000013      -0.00000039
Be      -0.00000022       0.00000009       0.00000017       0.00000079      -0.00000024      -0.00000165
Br       1.97468466       1.39631307       6.99197065       0.00295195       0.00208629      -0.00000283
Br       6.09894801       4.31260747       6.99197091      -0.00295551      -0.00208984      -0.00000231
Br       5.06788194       1.39631216       5.20611185      -0.00147927       0.00209352       0.00255941
Br       3.00575048       4.31260698       8.77782812       0.00147605      -0.00208484      -0.00255521
Br       3.00575005       4.31260770       5.20611213       0.00148075      -0.00209136       0.00255913
Br       5.06788145       1.39631283       8.77782849      -0.00147488       0.00208675      -0.00255633
