9
Lattice="6.7691833091069045 -6.331363336194548e-08 3.908189822433925 2.2563944217418253 6.382047181314523 3.908189744378121 3.474089702470796e-08 -7.103297307453401e-08 7.816379584694865" Properties=species:S:1:pos:R:3:forces:R:3 energy=-30.078418731689453 free_energy=-30.078418731689453 stress="0.00011418844223953784 1.2546103711486012e-08 -8.07214295406311e-09 1.2546103711486012e-08 0.00011417726636864245 -1.911584002201039e-09 -8.07214295406311e-09 -1.911584002201039e-09 0.00011418657231843099" pbc="T T T"
Sr       2.25639457       1.59551208       3.90818943      -0.00000058      -0.00000032       0.00000024
Sr       6.76918307       4.78653493      11.72456931       0.00000009      -0.00000084      -0.00000048
Ba       0.00000021      -0.00000026       0.00000045       0.00000128       0.00000719      -0.00000346
Br       2.46405171       1.74234731       7.81637973      -0.00090662      -0.00064105       0.00000011
Br       6.56152655       4.63969984       7.81637952       0.00090187       0.00063856      -0.00000061
Br       5.53715780       1.74234719       6.04212103       0.00045249      -0.00063810      -0.00078305
Br       3.48841991       4.63969970       9.59063835      -0.00045190       0.00063896       0.00078204
Br       3.48841986       4.63969970       6.04212064      -0.00045017       0.00063580      -0.00078103
Br       5.53715737       1.74234771       9.59063814       0.00045357      -0.00064024       0.00078618
