9
Lattice="5.375722132403017 1.457747776138203e-07 3.103674774114983 1.791907489791819 5.068279764638992 3.1036748176130233 2.0612874729948556e-08 6.784953913140445e-08 6.2073495125273785" Properties=species:S:1:pos:R:3:forces:R:3 energy=-44.22954177856445 free_energy=-44.22954177856445 stress="0.00015379553951788694 -2.974093327168248e-08 -7.4066970334740745e-09 -2.974093327168248e-08 0.00015364363207481802 2.307917768007428e-08 -7.4066970334740745e-09 2.307917768007428e-08 0.00015368229651357979" pbc="T T T"
Sr       1.79190610       1.26707048       3.10367409      -0.00000575       0.00000188      -0.00000362
Sr       5.37572234       3.80120952       9.31102409       0.00000107      -0.00000083      -0.00000153
Ba      -0.00000000      -0.00000002      -0.00000013       0.00000198       0.00000097      -0.00000434
F        1.94320284       1.37405161       6.20734955       0.00129240       0.00091294       0.00000060
F        5.22442700       3.69422815       6.20734993      -0.00129481      -0.00091682       0.00000162
F        4.40412230       1.37405207       4.78653790      -0.00064223       0.00091559       0.00112256
F        2.76350848       3.69422747       7.62816163       0.00064476      -0.00091431      -0.00111733
F        2.76350857       3.69422830       4.78653780       0.00064750      -0.00091734       0.00112315
F        4.40412119       1.37405236       7.62816157      -0.00064488       0.00091789      -0.00112101
