9
Lattice="6.438144052126502 -2.9828719111336714e-07 3.7170644536404613 2.14604780219011 6.069940352144561 3.7170643392514813 2.132711369250253e-08 -1.2501677133459655e-07 7.43412887034125" Properties=species:S:1:pos:R:3:forces:R:3 energy=-33.640419006347656 free_energy=-33.640419006347656 stress="0.00015607633395120502 -7.032393511963164e-08 1.5025420907477383e-08 -7.032393511963164e-08 0.00015616083692293614 -7.31625604544206e-09 1.5025420907477383e-08 -7.31625604544206e-09 0.00015619919577147812" pbc="T T T"
Sr       2.14604777       1.51748435       3.71706476      -0.00000068      -0.00000278       0.00000138
Sr       6.43814380       4.55245536      11.15119264      -0.00000076       0.00000151      -0.00000117
Ba      -0.00000003      -0.00000005      -0.00000046       0.00000261      -0.00000211       0.00000439
Cl       2.34075337       1.65516232       7.43412862      -0.00122996      -0.00087086      -0.00000114
Cl       6.24343848       4.41477806       7.43412894       0.00122826       0.00086898       0.00000044
Cl       5.26776696       1.65516269       5.74421700       0.00061841      -0.00087508      -0.00107121
Cl       3.31642496       4.41477746       9.12404092      -0.00061725       0.00087584       0.00107147
Cl       3.31642491       4.41477705       5.74421730      -0.00061938       0.00087701      -0.00107334
Cl       5.26776728       1.65516244       9.12404092       0.00061875      -0.00087254       0.00106900
