9
Lattice="6.700085438305961 1.5966122329924796e-07 3.868296003505765 2.2333618515165727 6.316901179750402 3.8682961971180707 9.62527722630813e-09 2.439317802478311e-07 7.736591990339929" Properties=species:S:1:pos:R:3:forces:R:3 energy=-25.637481689453125 free_energy=-25.637481689453125 stress="0.00016401091124862432 -7.703436999406676e-09 -1.974448160524389e-09 -7.703436999406676e-09 0.00016400954336859286 3.7268677033353015e-09 -1.974448160524389e-09 3.7268677033353015e-09 0.00016401054745074362" pbc="T T T"
Sr       2.23336196       1.57922576       3.86829575       0.00000075       0.00000074      -0.00000092
Sr       6.70008549       4.73767567      11.60488870      -0.00000077      -0.00000141       0.00000142
C        0.00000026      -0.00000048       0.00000004      -0.00000061       0.00000072      -0.00000001
I        2.23280578       1.57883233       7.73659199      -0.00602196      -0.00425797      -0.00000023
I        6.70064127       4.73806918       7.73659214       0.00602275       0.00425819      -0.00000054
I        5.58368241       1.57883256       5.80196260       0.00301153      -0.00425792      -0.00521556
I        3.34976479       4.73806925       9.67122141      -0.00301149       0.00425788       0.00521529
I        3.34976472       4.73806930       5.80196284      -0.00301057       0.00425820      -0.00521383
I        5.58368250       1.57883279       9.67122132       0.00301041      -0.00425845       0.00521445
