9
Lattice="5.8253451166120715 -1.0104048466801677e-07 3.363264535922776 1.941781648302138 5.4921879141413115 3.3632644700585863 1.0714347459625603e-08 -7.309062662140961e-08 6.7265290532877815" Properties=species:S:1:pos:R:3:forces:R:3 energy=-31.787826538085938 free_energy=-31.787826538085938 stress="8.371232252102345e-05 2.3278194927200957e-09 5.933260993629119e-09 2.3278194927200957e-09 8.371379954041913e-05 5.52760681671316e-09 5.933260993629119e-09 5.52760681671316e-09 8.371653530048206e-05" pbc="T T T"
Sr       1.94178162       1.37304691       3.36326456      -0.00000094       0.00000001      -0.00000028
Sr       5.82534511       4.11914082      10.08979330       0.00000006      -0.00000040      -0.00000031
C        0.00000032      -0.00000006       0.00000025      -0.00000139       0.00000031      -0.00000184
Cl       1.95736562       1.38406666       6.72652908      -0.00087544      -0.00061996       0.00000075
Cl       5.80976074       4.10812123       6.72652903       0.00087732       0.00062008       0.00000037
Cl       4.84666219       1.38406682       5.05839329       0.00043957      -0.00062242      -0.00076093
Cl       2.92046476       4.10812098       8.39466467      -0.00043902       0.00062206       0.00076175
Cl       2.92046478       4.10812080       5.05839340      -0.00043958       0.00062221      -0.00076114
Cl       4.84666193       1.38406677       8.39466466       0.00043973      -0.00062208       0.00076161
