9
Lattice="6.200963724203489 -7.981005400461905e-08 3.5801281256463926 2.0669878478487944 5.84632438200596 3.580128099619564 4.076174107467437e-08 -3.0533750961117095e-09 7.1602561806913725" Properties=species:S:1:pos:R:3:forces:R:3 energy=-36.471168518066406 free_energy=-36.471168518066406 stress="-0.0001531169400550425 -2.8473406743501073e-08 -1.6105955680245643e-08 -2.8473406743501073e-08 -0.0001531120069557801 1.6961172022433857e-08 -1.6105955680245643e-08 1.6961172022433857e-08 -0.00015306728892028332" pbc="T T T"
Sr       2.06698828       1.46158180       3.58012797       0.00000021       0.00000140      -0.00000048
Sr       6.20096350       4.38474292      10.74038458      -0.00000015      -0.00000070       0.00000127
Cr       0.00000051      -0.00000019       0.00000052      -0.00000481       0.00000079      -0.00001408
Br       2.03737101       1.44063859       7.16025614      -0.00152801      -0.00108157       0.00000120
Br       6.23058056       4.40568544       7.16025607       0.00153138       0.00108391      -0.00000019
Br       5.18227794       1.44063892       5.34454380       0.00076657      -0.00108436      -0.00132939
Br       3.08567347       4.40568532       8.97596873      -0.00076836       0.00108561       0.00133163
Br       3.08567321       4.40568544       5.34454305      -0.00076380       0.00108109      -0.00132369
Br       5.18227795       1.44063891       8.97596877       0.00076710      -0.00108618       0.00133377
