9
Lattice="6.708333873010363 3.254406666931237e-08 3.8730582922915877 2.2361112990778893 6.32467791156052 3.8730583314505185 -6.564851142591468e-08 1.5391810862436903e-09 7.746116698289769" Properties=species:S:1:pos:R:3:forces:R:3 energy=-28.2590274810791 free_energy=-28.2590274810791 stress="3.011638909811154e-05 -4.927319885439374e-09 -4.0614955842954714e-09 -4.927319885439374e-09 3.012322122231126e-05 -3.429890260697732e-10 -4.0614955842954714e-09 -3.429890260697732e-10 3.0122588213998824e-05" pbc="T T T"
Sr       2.23611117       1.58116915       3.87305891      -0.00000045      -0.00000063       0.00000139
Sr       6.70833407       4.74350846      11.61917444       0.00000004       0.00000030      -0.00000187
Co      -0.00000002      -0.00000010      -0.00000012      -0.00000058       0.00000059      -0.00000002
I        2.20199050       1.55704254       7.74611643       0.00116741       0.00082532      -0.00000086
I        6.74245451       4.76763572       7.74611673      -0.00116751      -0.00082532       0.00000037
I        5.60733871       1.55704263       5.78003854      -0.00058425       0.00082599       0.00101058
I        3.33710630       4.76763549       9.71219498       0.00058468      -0.00082597      -0.00101158
I        3.33710669       4.76763536       5.78003848       0.00058356      -0.00082584       0.00101096
I        5.60733844       1.55704251       9.71219486      -0.00058290       0.00082559      -0.00100895
