9
Lattice="6.91008795749986 4.053079767243492e-08 3.9895411607737388 2.303362707751474 6.514893520149425 3.989541131261796 -5.300355807557978e-09 -3.989248231257583e-08 7.9790823307279295" Properties=species:S:1:pos:R:3:forces:R:3 energy=-23.277151107788086 free_energy=-23.277151107788086 stress="-3.6538145650411025e-05 8.338486345849105e-09 -1.4032174311395806e-09 8.338486345849105e-09 -3.654145621112548e-05 -6.354950343734345e-09 -1.4032174311395806e-09 -6.354950343734345e-09 -3.654726970125921e-05" pbc="T T T"
Sr       2.30336291       1.62872372       3.98954107       0.00000031      -0.00000153      -0.00000033
Sr       6.91008784       4.88616964      11.96862350      -0.00000011       0.00000156      -0.00000071
Cd       0.00000001       0.00000003       0.00000029      -0.00000043       0.00000087       0.00000066
I        2.38103655       1.68364716       7.97908235      -0.00301120      -0.00212714       0.00000046
I        6.83241412       4.83124635       7.97908228       0.00300978       0.00212796       0.00000019
I        5.71956970       1.68364712       6.05157935       0.00150479      -0.00212880      -0.00260725
I        3.49388107       4.83124630       9.90658526      -0.00150406       0.00212767       0.00260530
I        3.49388066       4.83124656       6.05157890      -0.00150452       0.00212687      -0.00260475
I        5.71956981       1.68364719       9.90658550       0.00150546      -0.00212737       0.00260646
