9
Lattice="6.698981109439559 -1.3352774165803506e-07 3.8676586416539247 2.2329937134128963 6.315859842329176 3.8676584058221697 9.44589824529344e-08 -2.220410971457392e-07 7.7353171197" Properties=species:S:1:pos:R:3:forces:R:3 energy=-25.548023223876953 free_energy=-25.548023223876953 stress="-2.935816337412689e-05 1.0613680073712217e-10 -1.5180379620005624e-08 1.0613680073712217e-10 -2.9354760044952855e-05 1.8728913975252226e-09 -1.5180379620005624e-08 1.8728913975252226e-09 -2.935728662123438e-05" pbc="T T T"
Sr       2.23299425       1.57896555       3.86765851       0.00000046      -0.00000064      -0.00000004
Sr       6.69898064       4.73689458      11.60297577      -0.00000037       0.00000209       0.00000030
Cu      -0.00000004      -0.00000011       0.00000003       0.00000056       0.00000033      -0.00000003
I        2.24796361       1.58954956       7.73531729       0.00374842       0.00265083      -0.00000001
I        6.68401148       4.72630969       7.73531712      -0.00374987      -0.00265256      -0.00000019
I        5.57499918       1.58955017       5.81445183      -0.00187439       0.00265151       0.00324665
I        3.35697560       4.72630941       9.65618218       0.00187455      -0.00265235      -0.00324653
I        3.35697565       4.72630937       5.81445179       0.00187515      -0.00265136       0.00324684
I        5.57499933       1.58954971       9.65618216      -0.00187448       0.00265214      -0.00324700
