9
Lattice="5.98681135905458 4.2196041588079596e-08 3.4564872160085756 1.9956037679534906 5.644419879381284 3.456487316780798 -8.051120070006138e-08 6.649024096377976e-08 6.91297457146665" Properties=species:S:1:pos:R:3:forces:R:3 energy=-31.509910583496094 free_energy=-31.509910583496094 stress="-6.211391337274108e-06 2.2421371426162295e-09 8.786521732417896e-09 2.2421371426162295e-09 -6.228239271877101e-06 1.9425561603725328e-08 8.786521732417896e-09 1.9425561603725328e-08 -6.2014482864469755e-06" pbc="T T T"
Sr       1.99560377       1.41110473       3.45648740      -0.00000094      -0.00000179       0.00000056
Sr       5.98681211       4.23331504      10.36946183       0.00000156      -0.00000013      -0.00000044
Cd      -0.00000010       0.00000043      -0.00000026       0.00000116      -0.00000632       0.00000264
Cl       2.06085974       1.45724823       6.91297459      -0.00494868      -0.00349902       0.00000032
Cl       5.92155483       4.18717181       6.91297466       0.00495197       0.00350037      -0.00000106
Cl       4.95638102       1.45724804       5.24124442       0.00247634      -0.00350080      -0.00428717
Cl       3.02603378       4.18717194       8.58470438      -0.00247756       0.00350244       0.00429109
Cl       3.02603352       4.18717208       5.24124476      -0.00247701       0.00350419      -0.00429073
Cl       4.95638150       1.45724771       8.58470464       0.00247326      -0.00349884       0.00428465
