9
Lattice="4.7490380247712585 8.551294971210798e-08 2.7418583093531956 1.5830127616726881 4.477435636780387 2.741858298741705 5.507581521311574e-08 2.5948119654801566e-08 5.48371652331231" Properties=species:S:1:pos:R:3:forces:R:3 energy=-45.551395416259766 free_energy=-45.551395416259766 stress="-2.6771953343995847e-05 2.109502759140014e-07 -6.907535521349928e-08 2.109502759140014e-07 -2.6970756152877584e-05 1.3026388501202746e-07 -6.907535521349928e-08 1.3026388501202746e-07 -2.7059730200562626e-05" pbc="T T T"
Sr       1.58301281       1.11935870       2.74185851      -0.00000059       0.00000167      -0.00000004
Sr       4.74903814       3.35807699       8.22557469       0.00000022      -0.00000113       0.00000055
C       -0.00000008       0.00000046       0.00000027      -0.00000071      -0.00001155      -0.00000859
F        1.53850612       1.08788785       5.48371647       0.00005829       0.00004411       0.00000089
F        4.79354437       3.38954781       5.48371641      -0.00005406      -0.00004029       0.00000108
F        3.97978512       1.08788791       4.07424350      -0.00003314       0.00005001       0.00005978
F        2.35226588       3.38954790       6.89318966       0.00003082      -0.00004542      -0.00005549
F        2.35226578       3.38954774       4.07424325       0.00003633      -0.00005311       0.00006646
F        3.97978527       1.08788777       6.89319000      -0.00003728       0.00005570      -0.00006515
