9
Lattice="6.335204571383313 -1.568211076905853e-08 3.6576321095354882 2.111734843220998 5.972888174021936 3.6576321080139342 -1.9798126621613412e-08 -1.5862962547790513e-08 7.315264253362351" Properties=species:S:1:pos:R:3:forces:R:3 energy=-27.567537307739258 free_energy=-27.567537307739258 stress="-2.4252820367109962e-05 2.3911115309971365e-09 1.8225038145303074e-09 2.3911115309971365e-09 -2.426291939627845e-05 7.294371773269859e-10 1.8225038145303074e-09 7.294371773269859e-10 -2.4253586161648855e-05" pbc="T T T"
Sr       2.11173521       1.49322216       3.65763202       0.00000039      -0.00000025       0.00000007
Sr       6.33520435       4.47966601      10.97289632      -0.00000026       0.00000074      -0.00000084
Cd       0.00000014       0.00000002       0.00000029      -0.00000183       0.00000104      -0.00000492
Br       2.19482809       1.55197785       7.31526463      -0.00070401      -0.00049733      -0.00000031
Br       6.25211128       4.42091035       7.31526436       0.00070406       0.00049834      -0.00000112
Br       5.23779067       1.55197748       5.55840881       0.00035034      -0.00049583      -0.00060881
Br       3.20914903       4.42091017       9.07211934      -0.00035189       0.00049848       0.00061064
Br       3.20914868       4.42091056       5.55840898      -0.00035072       0.00049609      -0.00060805
Br       5.23779016       1.55197798       9.07211913       0.00035391      -0.00050129       0.00061337
