9
Lattice="4.831831490549988 -5.764317951427477e-08 2.7896591482642883 1.6106104347537757 4.555494325226024 2.789659161687244 -3.118083308239217e-08 -5.6085329590982125e-09 5.579318350535401" Properties=species:S:1:pos:R:3:forces:R:3 energy=-45.48875045776367 free_energy=-45.48875045776367 stress="0.00017763643700163811 8.998319422914847e-09 -3.733027664765132e-09 8.998319422914847e-09 0.00017764991207513958 2.983043367876803e-09 -3.733027664765132e-09 2.983043367876803e-09 0.00017762044444680214" pbc="T T T"
Sr       1.61061047       1.13887358       2.78965917      -0.00000053       0.00000000      -0.00000026
Sr       4.83183143       3.41662062       8.36897744       0.00000011      -0.00000033       0.00000065
Cu      -0.00000004       0.00000006      -0.00000002      -0.00000031       0.00000054       0.00000242
F        1.60822359       1.13718564       5.57931818      -0.00076492      -0.00054062       0.00000019
F        4.83421832       3.41830857       5.57931832       0.00076455       0.00054052       0.00000067
F        4.02771958       1.13718569       4.18242147       0.00038330      -0.00054161      -0.00066285
F        2.41472206       3.41830868       6.97621523      -0.00038163       0.00053951       0.00066112
F        2.41472241       3.41830856       4.18242161      -0.00038324       0.00054209      -0.00066343
F        4.02771969       1.13718559       6.97621528       0.00038254      -0.00054009       0.00066195
