9
Lattice="6.0908403515519565 3.6968851598217774e-08 3.516548233535784 2.0302801628573435 5.742499247040741 3.516548214797163 2.3948973200252233e-08 -6.015580711628808e-09 7.033096425590742" Properties=species:S:1:pos:R:3:forces:R:3 energy=-35.80665969848633 free_energy=-35.80665969848633 stress="5.4347732657333836e-05 7.898126597183364e-09 -5.0306092624907706e-09 7.898126597183364e-09 5.4329571867128834e-05 7.265416601676122e-10 -5.0306092624907706e-09 7.265416601676122e-10 5.432820398709737e-05" pbc="T T T"
Sr       2.03028011       1.43562480       3.51654833       0.00000089       0.00000027      -0.00000044
Sr       6.09083990       4.30687401      10.54964433      -0.00000203      -0.00000136      -0.00000003
Ca      -0.00000009       0.00000015      -0.00000037       0.00000091      -0.00000049       0.00000425
Cl       2.11395523       1.49479209       7.03309658      -0.00060257      -0.00042636       0.00000025
Cl       6.00716543       4.24770732       7.03309646       0.00060194       0.00042586      -0.00000004
Cl       5.03386323       1.49479194       5.34728678       0.00030122      -0.00042502      -0.00052155
Cl       3.08725761       4.24770751       8.71890627      -0.00029944       0.00042433       0.00051993
Cl       3.08725771       4.24770745       5.34728678      -0.00030096       0.00042580      -0.00052130
Cl       5.03386302       1.49479181       8.71890638       0.00030013      -0.00042300       0.00051873
