9
Lattice="5.021756503364247 1.2941758107267505e-07 2.8993125140581886 1.6739189559454017 4.734557377540101 2.899312514968168 1.0125397296513931e-07 7.271193834355929e-08 5.7986248527393025" Properties=species:S:1:pos:R:3:forces:R:3 energy=-48.15034866333008 free_energy=-48.15034866333008 stress="0.0002265178773086518 6.165009835967794e-08 -2.9656774813702214e-09 6.165009835967794e-08 0.00022654651547782123 3.6389664614944195e-08 -2.9656774813702214e-09 3.6389664614944195e-08 0.00022643458214588463" pbc="T T T"
Sr       1.67391897       1.18363951       2.89931245      -0.00000153      -0.00000149       0.00000101
Sr       5.02175662       3.55091804       8.69793741       0.00000101       0.00000226       0.00000015
Ca      -0.00000019      -0.00000005      -0.00000032      -0.00000114       0.00000482       0.00001531
F        1.73570429       1.22732813       5.79862451      -0.00079364      -0.00055998      -0.00000012
F        4.95997145       3.50722923       5.79862469       0.00079168       0.00055882       0.00000095
F        4.15390441       1.22732834       4.40247675       0.00039862      -0.00056355      -0.00069039
F        2.54177083       3.50722977       7.19477377      -0.00039016       0.00055278       0.00067860
F        2.54177105       3.50722950       4.40247649      -0.00039592       0.00055841      -0.00068434
F        4.15390480       1.22732787       7.19477385       0.00039093      -0.00055194       0.00067886
