9
Lattice="5.813588117813905 -8.516743701161766e-09 3.356476730329351 1.9378626903002207 5.4811035677543956 3.3564767435068252 -3.1799611534968935e-08 -6.34662155570337e-09 6.712953515737192" Properties=species:S:1:pos:R:3:forces:R:3 energy=-36.77699279785156 free_energy=-36.77699279785156 stress="-8.752982466830872e-06 1.087300027791116e-08 3.150275151853066e-09 1.087300027791116e-08 -8.777365110290702e-06 8.017046582153853e-09 3.150275151853066e-09 8.017046582153853e-09 -8.752136636758223e-06" pbc="T T T"
Sr       1.93786269       1.37027598       3.35647676       0.00000023      -0.00000007       0.00000026
Sr       5.81358812       4.11082789      10.06943040      -0.00000009       0.00000055       0.00000007
Co      -0.00000018      -0.00000039       0.00000000       0.00000176       0.00000552       0.00000158
Cl       1.90126379       1.34439661       6.71295334      -0.00079508      -0.00056065       0.00000020
Cl       5.85018719       4.13670699       6.71295346       0.00079075       0.00055823      -0.00000030
Cl       4.86295591       1.34439633       5.00301972       0.00039693      -0.00056122      -0.00068779
Cl       2.88849474       4.13670720       8.42288770      -0.00039562       0.00055823       0.00068401
Cl       2.88849457       4.13670725       5.00301914      -0.00039488       0.00055860      -0.00068415
Cl       4.86295624       1.34439636       8.42288740       0.00039609      -0.00055946       0.00068595
