9
Lattice="4.915875492250679 3.6821959115879197e-08 2.8381820238176863 1.638625135174778 4.634732472857626 2.838182134019244 -1.2830573229523507e-07 4.4242887346935386e-08 5.67636426986751" Properties=species:S:1:pos:R:3:forces:R:3 energy=-52.03770065307617 free_energy=-52.03770065307617 stress="0.0003201018844265491 1.3280599731047005e-08 -3.051228247841209e-08 1.3280599731047005e-08 0.0003200941428076476 7.832991144596235e-08 -3.051228247841209e-08 7.832991144596235e-08 0.0003201105282641947" pbc="T T T"
Sr       1.63862499       1.15868302       2.83818211       0.00000005       0.00000065       0.00000022
Sr       4.91587554       3.47604937       8.51454664      -0.00000025      -0.00000058      -0.00000014
Cr       0.00000012       0.00000032       0.00000050      -0.00000581      -0.00000456      -0.00001111
F        1.59085723       1.12490647       5.67636414       0.00048923       0.00034517       0.00000055
F        4.96364254       3.50982591       5.67636419      -0.00048143      -0.00034046      -0.00000011
F        4.12044670       1.12490645       4.21590541      -0.00024378       0.00034481       0.00042266
F        2.43405410       3.50982590       7.13682304       0.00023994      -0.00034085      -0.00041711
F        2.43405390       3.50982626       4.21590504       0.00024503      -0.00034642       0.00042468
F        4.12044666       1.12490646       7.13682307      -0.00024304       0.00034231      -0.00041986
