9
Lattice="4.829674491040623 2.1065735553007545e-08 2.788413829102381 1.6098915099994304 4.553460741111293 2.7884138410103554 -6.535845234995564e-09 9.962667403889533e-09 5.576827669525136" Properties=species:S:1:pos:R:3:forces:R:3 energy=-48.50636291503906 free_energy=-48.50636291503906 stress="0.0005458875675685704 5.0413014207606466e-08 -3.84169709377602e-08 5.0413014207606466e-08 0.0005459276144392788 5.889663423630509e-09 -3.84169709377602e-08 5.889663423630509e-09 0.0005458717350848019" pbc="T T T"
Sr       1.60989149       1.13836489       2.78841372       0.00000090      -0.00000041       0.00000072
Sr       4.82967436       3.41509566       8.36524175      -0.00000068       0.00000087      -0.00000150
Co      -0.00000003       0.00000038       0.00000044       0.00000216      -0.00000777      -0.00000783
F        1.58563596       1.12121378       5.57682761      -0.00763534      -0.00539781       0.00000042
F        4.85393031       3.43224701       5.57682775       0.00763501       0.00539782      -0.00000035
F        4.03685687       1.12121319       4.16161432       0.00381470      -0.00539281      -0.00660587
F        2.40270953       3.43224701       6.99204061      -0.00381875       0.00540081       0.00661381
F        2.40270890       3.43224738       4.16161428      -0.00381387       0.00539475      -0.00660706
F        4.03685654       1.12121373       6.99204087       0.00381579      -0.00539543       0.00660757
