9
Lattice="6.458013146933644 -2.6250466802137203e-08 3.728535695223732 2.1526710208082576 6.088673229372551 3.7285357011480986 -5.66401788720303e-10 6.85528130134216e-09 7.457071391428461" Properties=species:S:1:pos:R:3:forces:R:3 energy=-31.55169105529785 free_energy=-31.55169105529785 stress="4.7369958338094875e-05 1.1158375556874489e-08 -2.449632274803548e-09 1.1158375556874489e-08 4.736657501780428e-05 4.618253335308964e-09 -2.449632274803548e-09 4.618253335308964e-09 4.7372610424645245e-05" pbc="T T T"
Sr       2.15267121       1.52216826       3.72853555      -0.00000101       0.00000019       0.00000007
Sr       6.45801292       4.56650476      11.18560710       0.00000113      -0.00000028       0.00000001
Ca       0.00000016      -0.00000001      -0.00000001      -0.00000301      -0.00000072       0.00000025
Br       2.24413547       1.58684366       7.45707141      -0.00067156      -0.00047532       0.00000031
Br       6.36654875       4.50182965       7.45707140       0.00067414       0.00047676      -0.00000023
Br       5.33594533       1.58684340       5.67201419       0.00033649      -0.00047620      -0.00058347
Br       3.27473878       4.50182966       9.24212870      -0.00033650       0.00047605       0.00058311
Br       3.27473870       4.50182985       5.67201412      -0.00033631       0.00047572      -0.00058285
Br       5.33594537       1.58684359       9.24212872       0.00033661      -0.00047615       0.00058280
