9
Lattice="6.819373261276259 1.3413057215941838e-07 3.9371669437095393 2.2731246066650854 6.429366779224395 3.93716684016728 7.531818186884806e-08 -7.355482783058262e-08 7.874333756964147" Properties=species:S:1:pos:R:3:forces:R:3 energy=-31.647361755371094 free_energy=-31.647361755371094 stress="0.00018702780653256923 2.9075921670340676e-09 6.496165827485356e-10 2.9075921670340676e-09 0.00018704017566051334 -7.699092918755923e-09 6.496165827485356e-10 -7.699092918755923e-09 0.00018704740796238184" pbc="T T T"
Sr       2.27312486       1.60734155       3.93716675       0.00000180      -0.00000040      -0.00000121
Sr       6.81937373       4.82202487      11.81150068      -0.00000115      -0.00000003       0.00000096
Cr      -0.00000015      -0.00000002       0.00000021       0.00000090       0.00000124      -0.00000069
I        2.24809984       1.58964672       7.87433383       0.00255027       0.00180266       0.00000004
I        6.84439800       4.83972032       7.87433389      -0.00255103      -0.00180319      -0.00000006
I        5.69532362       1.58964671       5.88407824      -0.00127609       0.00180402       0.00220858
I        3.39717445       4.83972019       9.86458914       0.00127534      -0.00180364      -0.00220816
I        3.39717409       4.83972022       5.88407827       0.00127568      -0.00180390       0.00220841
I        5.69532330       1.58964674       9.86458910      -0.00127564       0.00180326      -0.00220794
