9
Lattice="6.2282573738314495 -3.135967657404597e-08 3.595886071457893 2.076085749159876 5.872057170418363 3.5958860931969356 2.0351723619036498e-09 2.8063930105561127e-08 7.191772139390703" Properties=species:S:1:pos:R:3:forces:R:3 energy=-28.828140258789062 free_energy=-28.828140258789062 stress="0.00012073182733729482 -1.1993230408791078e-08 -1.633781110399468e-08 -1.1993230408791078e-08 0.00012076226266799495 -1.0615877954478492e-08 -1.633781110399468e-08 -1.0615877954478492e-08 0.00012076320126652718" pbc="T T T"
Sr       2.07608583       1.46801422       3.59588633      -0.00000053      -0.00000063       0.00000113
Sr       6.22825730       4.40404272      10.78765833      -0.00000001       0.00000028      -0.00000070
C       -0.00000024      -0.00000064      -0.00000002       0.00000058       0.00000109      -0.00000136
Br       2.07241529       1.46541897       7.19177207      -0.00148138      -0.00104703       0.00000002
Br       6.23192817       4.40663834       7.19177222       0.00148031       0.00104631      -0.00000001
Br       5.19204954       1.46541896       5.39065045       0.00074124      -0.00104709      -0.00128329
Br       3.11229336       4.40663856       8.99289367      -0.00074100       0.00104819       0.00128308
Br       3.11229345       4.40663862       5.39064993      -0.00073907       0.00104599      -0.00128177
Br       5.19204973       1.46541892       8.99289431       0.00074002      -0.00104707       0.00128284
