9
Lattice="6.132470007925067 2.0150331917890077e-08 3.5405832992170163 2.0441567076981935 5.781748259515048 3.540583265629301 5.454977946667015e-08 -2.5639377039297033e-09 7.081166503951152" Properties=species:S:1:pos:R:3:forces:R:3 energy=-29.53098487854004 free_energy=-29.53098487854004 stress="-0.00016661896370351315 4.974619050024387e-10 1.851380049266993e-09 4.974619050024387e-10 -0.00016661676636431366 -6.016866692382106e-12 1.851380049266993e-09 -6.016866692382106e-12 -0.00016662721463944763" pbc="T T T"
Sr       2.04415692       1.44543716       3.54058341      -0.00000023      -0.00000027      -0.00000032
Sr       6.13246970       4.33631102      10.62174955      -0.00000033      -0.00000024       0.00000061
Cu      -0.00000006      -0.00000008      -0.00000054      -0.00000122       0.00000135       0.00000344
Br       2.06104519       1.45737920       7.08116652      -0.00430188      -0.00304176       0.00000051
Br       6.11558174       4.32436923       7.08116673       0.00430173       0.00304291       0.00000038
Br       5.10194748       1.45737917       5.32550090       0.00215197      -0.00304343      -0.00372797
Br       3.07467923       4.32436927       8.83683255      -0.00214912       0.00304022       0.00372330
Br       3.07467931       4.32436896       5.32550079      -0.00215174       0.00304265      -0.00372561
Br       5.10194757       1.45737920       8.83683239       0.00215077      -0.00304142       0.00372575
