9
Lattice="5.896159143502425 3.6208304334496115e-07 3.404148801527669 1.965386512049371 5.558952593392315 3.404149166112795 -2.982160752213707e-07 2.3565318812850312e-07 6.808298119580641" Properties=species:S:1:pos:R:3:forces:R:3 energy=-40.67734909057617 free_energy=-40.67734909057617 stress="-6.215040775714442e-05 3.454911734479538e-08 -7.232667798007242e-08 3.454911734479538e-08 -6.209978164406493e-05 6.425412379940099e-08 -7.232667798007242e-08 6.425412379940099e-08 -6.211784784682095e-05" pbc="T T T"
Sr       1.96538640       1.38973769       3.40414865      -0.00000038       0.00000041      -0.00000184
Sr       5.89615902       4.16921475      10.21244645       0.00000141      -0.00000194      -0.00000190
Cr       0.00000031       0.00000139       0.00000216      -0.00000361      -0.00001702      -0.00002060
Cl       1.92236151       1.35931609       6.80829822      -0.00187984      -0.00133072       0.00000240
Cl       5.93918298       4.19963714       6.80829789       0.00189078       0.00133823       0.00000023
Cl       4.93497812       1.35931579       5.06896336       0.00093786      -0.00132845      -0.00162566
Cl       2.92656781       4.19963678       8.54763144      -0.00094684       0.00133973       0.00164314
Cl       2.92656700       4.19963746       5.06896372      -0.00094016       0.00133266      -0.00162946
Cl       4.93497835       1.35931563       8.54763245       0.00094092      -0.00133282       0.00163369
