9
Lattice="5.788714477379841 -9.599238994354346e-08 3.342115675243099 1.929571371787227 5.457651974770421 3.342115727499383 4.652894828540647e-08 9.690162787359594e-08 6.684231269895709" Properties=species:S:1:pos:R:3:forces:R:3 energy=-33.36595153808594 free_energy=-33.36595153808594 stress="-5.354104723664932e-05 1.2264970150610566e-09 1.0323732979600209e-08 1.2264970150610566e-09 -5.3514770115725696e-05 3.439576801156363e-08 1.0323732979600209e-08 3.439576801156363e-08 -5.352497100830078e-05" pbc="T T T"
Sr       1.92957099       1.36441316       3.34211561       0.00000014      -0.00000025       0.00000022
Sr       5.78871417       4.09323895      10.02634845       0.00000002       0.00000006      -0.00000057
Cu      -0.00000003      -0.00000011      -0.00000036       0.00000134       0.00000135      -0.00000283
Cl       1.92783063       1.36318234       6.68423126       0.00207037       0.00146587      -0.00000023
Cl       5.79045570       4.09446958       6.68423103      -0.00207305      -0.00146623      -0.00000065
Cl       4.82479919       1.36318191       5.01166594      -0.00103761       0.00146534       0.00179398
Cl       2.89348712       4.09446988       8.35679642       0.00103600      -0.00146319      -0.00179325
Cl       2.89348705       4.09446980       5.01166574       0.00103782      -0.00146616       0.00179486
Cl       4.82479861       1.36318229       8.35679644      -0.00103512       0.00146315      -0.00179164
