9
Lattice="5.790576158729199 -2.746084347021304e-08 3.3431907861163688 1.9301920357539564 5.459407696755826 3.3431907709876945 -8.995059021291638e-09 -2.4889262521432982e-08 6.68638158781266" Properties=species:S:1:pos:R:3:forces:R:3 energy=-38.48460006713867 free_energy=-38.48460006713867 stress="-0.0004074661119375378 -6.092838678029011e-09 -1.4572749229557758e-08 -6.092838678029011e-09 -0.00040744166471995413 -8.512815341532587e-09 -1.4572749229557758e-08 -8.512815341532587e-09 -0.00040740027907304466" pbc="T T T"
Sr       1.93019202       1.36485216       3.34319094      -0.00000021       0.00000015       0.00000002
Sr       5.79057621       4.09455612      10.02957268      -0.00000007      -0.00000079       0.00000003
Fe       0.00000058       0.00000057       0.00000017      -0.00000789      -0.00001698      -0.00000365
Cl       1.86881508       1.32145187       6.68638151       0.00677653       0.00478920       0.00000085
Cl       5.85195217       4.13795496       6.68638157      -0.00675880      -0.00477997      -0.00000033
Cl       4.85616841       1.32145214       4.96163228      -0.00338548       0.00478610       0.00586447
Cl       2.86460013       4.13795495       8.41113024       0.00337933      -0.00477984      -0.00585440
Cl       2.86459990       4.13795542       4.96163259       0.00338166      -0.00478181       0.00585605
Cl       4.85616824       1.32145235       8.41113061      -0.00338497       0.00478383      -0.00586325
