9
Lattice="4.888042386104569 1.3441975599582963e-08 2.822112605595522 1.6293474898164964 4.608490385399767 2.8221125794269417 1.1771922938274652e-07 5.1190252756192023e-08 5.644225007295377" Properties=species:S:1:pos:R:3:forces:R:3 energy=-49.30458068847656 free_energy=-49.30458068847656 stress="0.0005714799626730382 2.168543566938297e-08 2.590402381486001e-08 2.168543566938297e-08 0.0005714036524295807 -1.1156971346792943e-08 2.590402381486001e-08 -1.1156971346792943e-08 0.000571433745790273" pbc="T T T"
Sr       1.62934735       1.15212243       2.82211221       0.00000133       0.00000102      -0.00000021
Sr       4.88804272       3.45636798       8.46633765      -0.00000078       0.00000009      -0.00000135
Fe      -0.00000003       0.00000026      -0.00000085       0.00000145      -0.00000458       0.00002371
F        1.63029401       1.15279179       5.64422502      -0.00783825      -0.00554105       0.00000065
F        4.88709585       3.45569868       5.64422519       0.00783905       0.00554348       0.00000054
F        4.07289541       1.15279159       4.23398858       0.00392130      -0.00554584      -0.00679189
F        2.44449442       3.45569906       7.05446227      -0.00391520       0.00553555       0.00678072
F        2.44449444       3.45569831       4.23398880      -0.00392359       0.00554775      -0.00679381
F        4.07289569       1.15279160       7.05446198       0.00391470      -0.00553653       0.00678179
