9
Lattice="6.040086413695175 -2.2457679403238374e-07 3.4872454490266978 2.01336182427309 5.694648081141461 3.48724562550928 -2.6013732869046753e-07 3.220157466539632e-08 6.974491348624486" Properties=species:S:1:pos:R:3:forces:R:3 energy=-34.27283477783203 free_energy=-34.27283477783203 stress="-0.0001072428422048688 -5.814376535795418e-09 -1.3711141555461381e-08 -5.814376535795418e-09 -0.00010716941324062645 8.951678509561134e-09 -1.3711141555461381e-08 8.951678509561134e-09 -0.00010723428567871451" pbc="T T T"
Sr       2.01336115       1.42366239       3.48724526      -0.00000080       0.00000038      -0.00000010
Sr       6.04008737       4.27098492      10.46173695       0.00000044      -0.00000092       0.00000016
Fe      -0.00000020       0.00000089      -0.00000107       0.00000244      -0.00001982       0.00002695
Br       1.90178807       1.34476750       6.97449099      -0.00120229      -0.00084995       0.00000069
Br       6.15165913       4.34987998       6.97449126       0.00121243       0.00085886       0.00000074
Br       5.08919171       1.34476831       5.13424308       0.00060625      -0.00085978      -0.00104821
Br       2.96425608       4.34988036       8.81473971      -0.00060371       0.00085200       0.00104073
Br       2.96425645       4.34987977       5.13424324      -0.00061227       0.00086504      -0.00105457
Br       5.08919202       1.34476749       8.81474011       0.00059743      -0.00084590       0.00103348
