9
Lattice="6.736897738854761 7.866042095438558e-08 3.8895497156895793 2.2456325868342324 6.351608130903755 3.8895498316431345 -6.948883581960456e-08 9.28774634235538e-08 7.779099551737525" Properties=species:S:1:pos:R:3:forces:R:3 energy=-29.461807250976562 free_energy=-29.461807250976562 stress="-3.815650779870339e-05 -4.1339245915317235e-10 2.214641359188363e-09 -4.1339245915317235e-10 -3.815957097685896e-05 -7.533200729881173e-09 2.214641359188363e-09 -7.533200729881173e-09 -3.814797673840076e-05" pbc="T T T"
Sr       2.24563263       1.58790189       3.88955012      -0.00000091      -0.00000155      -0.00000021
Sr       6.73689706       4.76370590      11.66864878      -0.00000033       0.00000048       0.00000023
Fe      -0.00000013      -0.00000013       0.00000005       0.00000134       0.00000161      -0.00000134
I        2.22153014       1.57085913       7.77909957      -0.00202298      -0.00143056      -0.00000080
I        6.76100087       4.78074965       7.77909968       0.00202042       0.00142772       0.00000047
I        5.62613278       1.57085863       5.81345099       0.00101058      -0.00142748      -0.00175002
I        3.35639766       4.78074960       9.74474798      -0.00101001       0.00143015       0.00175111
I        3.35639745       4.78074957       5.81345106      -0.00101006       0.00142881      -0.00175118
I        5.62613261       1.57085904       9.74474820       0.00101189      -0.00142922       0.00175175
