9
Lattice="6.36689197134839 1.8859403650880308e-07 3.6759268303561456 2.122297424359489 6.002763374438384 3.675926964125052 -6.329785147138819e-08 1.1907441992093461e-07 7.351853770347368" Properties=species:S:1:pos:R:3:forces:R:3 energy=-30.29166603088379 free_energy=-30.29166603088379 stress="0.00011545486631803215 -3.465342457431575e-09 -9.987612958894942e-10 -3.465342457431575e-09 0.0001154544806922786 6.336875024715027e-09 -9.987612958894942e-10 6.336875024715027e-09 0.00011544733570190147" pbc="T T T"
Sr       2.12229723       1.50069150       3.67592666       0.00000041       0.00000330       0.00000048
Sr       6.36689193       4.50207262      11.02778098      -0.00000010      -0.00000179      -0.00000029
Ge       0.00000036      -0.00000063       0.00000022      -0.00000219       0.00000261      -0.00000100
Br       2.17871334       1.54058349       7.35185359      -0.00597703      -0.00422695       0.00000025
Br       6.31047652       4.46218036       7.35185390       0.00597613       0.00422625      -0.00000011
Br       5.27753518       1.54058328       5.56274801       0.00298879      -0.00422760      -0.00517642
Br       3.21165385       4.46218037       9.14095979      -0.00298797       0.00422617       0.00517523
Br       3.21165380       4.46218036       5.56274762      -0.00298601       0.00422525      -0.00517429
Br       5.27753510       1.54058341       9.14095945       0.00298791      -0.00422725       0.00517610
