9
Lattice="6.055873063128624 -4.216623845665284e-08 3.4963600091861835 2.018624289228742 5.709532429949373 3.4963600531677677 -1.0811110967506966e-07 -2.257989424419686e-08 6.992720205626371" Properties=species:S:1:pos:R:3:forces:R:3 energy=-34.177608489990234 free_energy=-34.177608489990234 stress="7.403331255773082e-05 4.573429190912748e-09 -2.4220239147609846e-09 4.573429190912748e-09 7.402821211144328e-05 7.490593922909738e-09 -2.4220239147609846e-09 7.490593922909738e-09 7.402230403386056e-05" pbc="T T T"
Sr       2.01862420       1.42738344       3.49636018       0.00000001       0.00000062       0.00000086
Sr       6.05587260       4.28214883      10.48907991      -0.00000089      -0.00000045      -0.00000117
Ge      -0.00000022       0.00000018      -0.00000018       0.00000053      -0.00000017      -0.00000002
Cl       2.04053670       1.44287738       6.99272011      -0.00024709      -0.00017504      -0.00000003
Cl       6.03396104       4.26665471       6.99272016       0.00024736       0.00017470       0.00000126
Cl       5.03560464       1.44287765       5.26351681       0.00012322      -0.00017543      -0.00021471
Cl       3.03889246       4.26665506       8.72192353      -0.00012247       0.00017440       0.00021432
Cl       3.03889276       4.26665489       5.26351689      -0.00012370       0.00017510      -0.00021425
Cl       5.03560472       1.44287730       8.72192357       0.00012305      -0.00017370       0.00021373
