9
Lattice="6.41806295694901 -1.868284317440428e-08 3.7054703948761993 2.139354316322176 6.051007752665776 3.7054703689759205 1.6025704318031443e-08 -2.03893578973573e-08 7.410940761995057" Properties=species:S:1:pos:R:3:forces:R:3 energy=-25.3262996673584 free_energy=-25.3262996673584 stress="-0.0002505821466911584 8.096112225075558e-09 -5.2074922152201e-09 8.096112225075558e-09 -0.0002505802549421787 1.3130645015735354e-08 -5.2074922152201e-09 1.3130645015735354e-08 -0.0002505884040147066" pbc="T T T"
Sr       2.13935431       1.51275193       3.70547049       0.00000120       0.00000053       0.00000004
Sr       6.41806289       4.53825578      11.11641110      -0.00000145      -0.00000035       0.00000010
Hg      -0.00000009      -0.00000005      -0.00000029       0.00000068       0.00000125       0.00000158
Br       2.25035797       1.59124333       7.41094071      -0.00041892      -0.00029654       0.00000029
Br       6.30705940       4.45976444       7.41094071       0.00041804       0.00029565       0.00000063
Br       5.29288395       1.59124345       5.65433754       0.00020974      -0.00029668      -0.00036322
Br       3.26453324       4.45976450       9.16754417      -0.00020824       0.00029559       0.00036129
Br       3.26453337       4.45976428       5.65433751      -0.00020968       0.00029643      -0.00036229
Br       5.29288410       1.59124320       9.16754417       0.00020860      -0.00029593       0.00036158
