9
Lattice="6.9424878100968375 3.369375535724179e-08 4.008247147155371 2.3141625727771378 6.545440204934085 4.008247255157899 1.4531887238681824e-08 1.4255113483029605e-07 8.016494269140761" Properties=species:S:1:pos:R:3:forces:R:3 energy=-21.445924758911133 free_energy=-21.445924758911133 stress="-2.467921149218455e-05 -4.421617738614714e-09 -4.95087926211113e-09 -4.421617738614714e-09 -2.4680233764229342e-05 3.2958802353988403e-09 -4.95087926211113e-09 3.2958802353988403e-09 -2.466947989887558e-05" pbc="T T T"
Sr       2.31416258       1.63636039       4.00824758      -0.00000027       0.00000136       0.00000067
Sr       6.94248777       4.90908027      12.02474120      -0.00000023       0.00000002      -0.00000046
Hg      -0.00000024      -0.00000012      -0.00000045       0.00000093       0.00000118       0.00000343
I        2.42058904       1.71161515       8.01649409      -0.00578494      -0.00409007       0.00000012
I        6.83606194       4.83382535       8.01649398       0.00578282       0.00408857       0.00000117
I        5.73219292       1.71161518       6.10453884       0.00289382      -0.00409196      -0.00501043
I        3.52445689       4.83382566       9.92845048      -0.00289057       0.00408834       0.00500701
I        3.52445715       4.83382514       6.10453860      -0.00289257       0.00409098      -0.00500821
I        5.73219356       1.71161452       9.92845036       0.00289104      -0.00408840       0.00500675
