9
Lattice="6.0885257144517295 -1.8532155141433118e-08 3.5152120027484877 2.0295085822221677 5.740317319334231 3.515211953886421 -1.046524131552312e-09 -6.058360999975711e-08 7.030424007309582" Properties=species:S:1:pos:R:3:forces:R:3 energy=-28.894567489624023 free_energy=-28.894567489624023 stress="4.569214797811583e-05 3.752495536524236e-11 -2.3458219811089975e-09 3.752495536524236e-11 4.571762474370189e-05 -2.5239621503914123e-09 -2.3458219811089975e-09 -2.5239621503914123e-09 4.571494719129987e-05" pbc="T T T"
Sr       2.02950848       1.43507950       3.51521238       0.00000015       0.00000155       0.00000022
Sr       6.08852553       4.30523756      10.54563578      -0.00000043      -0.00000145       0.00000080
Hg      -0.00000002       0.00000019       0.00000046       0.00000127      -0.00000128      -0.00000322
Cl       2.11915974       1.49847241       7.03042399      -0.00056645      -0.00040188      -0.00000114
Cl       5.99887449       4.24184529       7.03042386       0.00056665       0.00040023      -0.00000135
Cl       5.02894597       1.49847219       5.35045795       0.00028191      -0.00039867      -0.00048859
Cl       3.08908879       4.24184441       8.71038934      -0.00028512       0.00040355       0.00049477
Cl       3.08908828       4.24184514       5.35045820      -0.00028234       0.00039876      -0.00049152
Cl       5.02894589       1.49847226       8.71038987       0.00028436      -0.00040080       0.00049002
