9
Lattice="5.134802260756993 -6.398514577985922e-08 2.964579385322513 1.7116006817017029 4.841138042877719 2.964579405341977 -8.031836885606398e-08 -3.227499737403766e-08 5.929158909760536" Properties=species:S:1:pos:R:3:forces:R:3 energy=-39.29622268676758 free_energy=-39.29622268676758 stress="0.00015719333896413445 2.551540534412311e-09 -2.0258024591157664e-08 2.551540534412311e-09 0.00015722487296443433 9.73785052593712e-09 -2.0258024591157664e-08 9.73785052593712e-09 0.00015718680515419692" pbc="T T T"
Sr       1.71160105       1.21028418       2.96457912       0.00000071      -0.00000083       0.00000003
Sr       5.13480202       3.63085377       8.89373844       0.00000116       0.00000098      -0.00000087
Hg       0.00000014       0.00000025       0.00000016      -0.00000274      -0.00000138      -0.00000052
F        1.80509151       1.27639220       5.92915894      -0.00028951      -0.00020531       0.00000066
F        5.04131147       3.56474582       5.92915911       0.00029148       0.00020732      -0.00000064
F        4.23225663       1.27639207       4.52783425       0.00014458      -0.00020397      -0.00025146
F        2.61414615       3.56474549       7.33048295      -0.00014631       0.00020548       0.00025270
F        2.61414624       3.56474592       4.52783452      -0.00014332       0.00020331      -0.00025006
F        4.23225620       1.27639213       7.33048318       0.00014387      -0.00020550       0.00025012
