9
Lattice="6.072929115317078 7.38019474096597e-08 3.506207215394596 2.0243097339415907 5.725612613917155 3.506207285967371 -6.077667290407853e-08 4.34580854966485e-08 7.0124145360575145" Properties=species:S:1:pos:R:3:forces:R:3 energy=-33.53313446044922 free_energy=-33.53313446044922 stress="5.832930401084013e-05 1.4085903110583331e-08 1.9623272451418927e-10 1.4085903110583331e-08 5.831845919601619e-05 5.0658197636721525e-09 1.9623272451418927e-10 5.0658197636721525e-09 5.8297842770116404e-05" pbc="T T T"
Sr       2.02430958       1.43140309       3.50620731      -0.00000075       0.00000026       0.00000009
Sr       6.07292890       4.29420930      10.51862193       0.00000008      -0.00000017       0.00000133
In       0.00000013      -0.00000005       0.00000022       0.00000065       0.00000215      -0.00000004
Cl       2.05336192       1.45194619       7.01241458      -0.00058483      -0.00041357      -0.00000015
Cl       6.04387704       4.27366672       7.01241434       0.00058268       0.00041249      -0.00000052
Cl       5.04624845       1.45194581       5.28447035       0.00029168      -0.00041177      -0.00050502
Cl       3.05099042       4.27366689       8.74035857      -0.00029108       0.00041184       0.00050323
Cl       3.05099051       4.27366684       5.28447032      -0.00029032       0.00041110      -0.00050363
Cl       5.04624820       1.45194611       8.74035853       0.00029180      -0.00041238       0.00050474
