9
Lattice="6.971340195405341 3.9468557004080345e-08 4.02490513552893 2.3237801427950173 6.572642537981815 4.024905065469918 2.6271280020720554e-08 -6.722780002132093e-08 8.049810225554669" Properties=species:S:1:pos:R:3:forces:R:3 energy=-24.916051864624023 free_energy=-24.916051864624023 stress="0.0002281837078044191 -1.3648085994688586e-09 -9.042966375716333e-10 -1.3648085994688586e-09 0.00022818219440523535 -1.0218916823845348e-09 -9.042966375716333e-10 -1.0218916823845348e-09 0.00022820025333203375" pbc="T T T"
Sr       2.32377974       1.64316081       4.02490528      -0.00000385       0.00000187       0.00000023
Sr       6.97134066       4.92948176      12.07471525       0.00000403      -0.00000198       0.00000078
In      -0.00000009       0.00000010      -0.00000000       0.00000034      -0.00000078      -0.00000102
I        2.38141954       1.68391777       8.04981021      -0.00658569      -0.00465739      -0.00000023
I        6.91370084       4.88872470       8.04981020       0.00658637       0.00465693      -0.00000027
I        5.78063042       1.68391791       6.08727468       0.00329316      -0.00465704      -0.00570323
I        3.51448984       4.88872461      10.01234558      -0.00329426       0.00465841       0.00570468
I        3.51449004       4.88872456       6.08727484      -0.00329414       0.00465816      -0.00570493
I        5.78063048       1.68391784      10.01234567       0.00329399      -0.00465816       0.00570400
