9
Lattice="5.150682171917983 2.0662123693131025e-07 2.973747782607462 1.7168941214519595 4.856110555875078 2.973748008914466 -1.6149624240383808e-07 1.6297324124772766e-07 5.947495844934641" Properties=species:S:1:pos:R:3:forces:R:3 energy=-44.878761291503906 free_energy=-44.878761291503906 stress="0.000448503385996446 5.653238943637007e-08 1.4589019770028244e-08 5.653238943637007e-08 0.0004485882818698883 -2.3514605373975428e-08 1.4589019770028244e-08 -2.3514605373975428e-08 0.00044840184273198247" pbc="T T T"
Sr       1.71689376       1.21402781       2.97374779       0.00000048      -0.00000006       0.00000034
Sr       5.15068202       3.64208298       8.92124386      -0.00000061      -0.00000073      -0.00000107
In       0.00000006       0.00000010       0.00000001       0.00000334      -0.00000384       0.00000960
F        1.72385310       1.21894856       5.94749584       0.00118858       0.00084013       0.00000075
F        5.14372307       3.63716244       5.94749600      -0.00118870      -0.00084063       0.00000009
F        4.28875602       1.21894823       4.46664820      -0.00059572       0.00084433       0.00103456
F        2.57882026       3.63716255       7.42834355       0.00059748      -0.00084594      -0.00103533
F        2.57882052       3.63716250       4.46664849       0.00059450      -0.00084043       0.00102937
F        4.28875572       1.21894835       7.42834357      -0.00059924       0.00084719      -0.00103778
