9
Lattice="6.254757535935836 -4.301726291865338e-08 3.6111859880913717 2.084919128934986 5.897042057899207 3.6111860039453174 -4.6759015833632803e-08 -1.3646619440770893e-08 7.2223720571717696" Properties=species:S:1:pos:R:3:forces:R:3 energy=-30.31757164001465 free_energy=-30.31757164001465 stress="-4.278888809494674e-05 -2.0469088646279943e-09 1.4872105769114796e-09 -2.0469088646279943e-09 -4.2771698645083234e-05 8.259481432126847e-10 1.4872105769114796e-09 8.259481432126847e-10 -4.276124309399165e-05" pbc="T T T"
Sr       2.08491950       1.47426034       3.61118623       0.00000069       0.00000028       0.00000106
Sr       6.25475749       4.42278190      10.83355758       0.00000007       0.00000074      -0.00000142
Mg      -0.00000031      -0.00000004       0.00000054       0.00000222      -0.00000064      -0.00000628
Br       2.11775337       1.49747769       7.22237196      -0.00215004      -0.00152100      -0.00000028
Br       6.22192370       4.39956446       7.22237224       0.00214734       0.00151982       0.00000010
Br       5.19588085       1.49747735       5.44521424       0.00107302      -0.00151874      -0.00186032
Br       3.14379575       4.39956421       8.99952974      -0.00107513       0.00152186       0.00186353
Br       3.14379526       4.39956448       5.44521394      -0.00107305       0.00151820      -0.00185968
Br       5.19588082       1.49747763       8.99952972       0.00107493      -0.00152056       0.00186325
