9
Lattice="6.800073414282645 8.638232120826597e-08 3.9260242625417763 2.266691212852765 6.411170748349318 3.926024274117889 -3.147357590231175e-08 -8.07737888770985e-09 7.8520485795973745" Properties=species:S:1:pos:R:3:forces:R:3 energy=-31.487871170043945 free_energy=-31.487871170043945 stress="-4.997284850105643e-05 4.0266878720274235e-09 -2.049314495877752e-09 4.0266878720274235e-09 -4.9960148317040876e-05 4.116320617697511e-09 -2.049314495877752e-09 4.116320617697511e-09 -4.997586438548751e-05" pbc="T T T"
Sr       2.26669099       1.60279263       3.92602444      -0.00000064       0.00000043       0.00000013
Sr       6.80007353       4.80837815      11.77807292       0.00000050      -0.00000059       0.00000121
Mn      -0.00000069       0.00000060       0.00000002       0.00000484      -0.00000443       0.00000018
I        2.27498946       1.60866072       7.85204860       0.00217077       0.00153352       0.00000008
I        6.79177563       4.80251045       7.85204847      -0.00217152      -0.00153617      -0.00000034
I        5.66257889       1.60866008       5.89622255      -0.00108647       0.00153638       0.00188304
I        3.40418577       4.80251028       9.80787382       0.00108515      -0.00153343      -0.00187813
I        3.40418590       4.80251018       5.89622319       0.00108489      -0.00153291       0.00187753
I        5.66257888       1.60866022       9.80787448      -0.00108761       0.00153717      -0.00188377
