9
Lattice="5.882049373549222 -8.511247013144253e-08 3.396002723808626 1.9606830477499 5.54564912106532 3.396002717784022 -3.395771841913839e-08 -3.1390309252831534e-08 6.792005506433716" Properties=species:S:1:pos:R:3:forces:R:3 energy=-40.38945770263672 free_energy=-40.38945770263672 stress="3.6555909900926054e-05 -4.392922914320252e-09 1.482772749028527e-08 -4.392922914320252e-09 3.653417297755368e-05 9.33173871509041e-10 1.482772749028527e-08 9.33173871509041e-10 3.654497777461074e-05" pbc="T T T"
Sr       1.96068351       1.38641266       3.39600247       0.00000045       0.00000095      -0.00000032
Sr       5.88204901       4.15923614      10.18800831      -0.00000100      -0.00000120       0.00000061
Mn       0.00000063      -0.00000054      -0.00000122      -0.00000742       0.00000641       0.00001470
Cl       1.94108630       1.37255535       6.79200548       0.00166910       0.00118194       0.00000115
Cl       5.90164583       4.17309361       6.79200532      -0.00166798      -0.00117866       0.00000103
Cl       4.91150547       1.37255627       5.07703363      -0.00082946       0.00117356       0.00143767
Cl       2.93122594       4.17309409       8.50697853       0.00083906      -0.00118731      -0.00145402
Cl       2.93122650       4.17309314       5.07703293       0.00083240      -0.00117755       0.00144440
Cl       4.91150634       1.37255527       8.50697825      -0.00083510       0.00118182      -0.00144526
