9
Lattice="6.212684757314279 1.8639349879494413e-07 3.5868952215269343 2.070895008755806 5.85737557744197 3.586895370626025 -8.196765410955622e-08 1.2464854349082974e-07 7.173790585025989" Properties=species:S:1:pos:R:3:forces:R:3 energy=-36.152584075927734 free_energy=-36.152584075927734 stress="-2.516985114198178e-05 -7.674444968408523e-10 -5.3406390421173455e-09 -7.674444968408523e-10 -2.5151719455607235e-05 8.19500112214655e-09 -5.3406390421173455e-09 8.19500112214655e-09 -2.516102176741697e-05" pbc="T T T"
Sr       2.07089455       1.46434424       3.58689515       0.00000038      -0.00000013       0.00000065
Sr       6.21268508       4.39303136      10.76068573      -0.00000018      -0.00000053      -0.00000027
Mn       0.00000005       0.00000042      -0.00000019      -0.00000032      -0.00000488       0.00000139
Br       2.06118445       1.45747801       7.17379050       0.00169042       0.00119528       0.00000082
Br       6.22239477       4.39989784       7.17379055      -0.00168723      -0.00119415       0.00000080
Br       5.18209239       1.45747814       5.37193372      -0.00084379       0.00119376       0.00146298
Br       3.10148742       4.39989803       8.97564743       0.00084407      -0.00119403      -0.00146120
Br       3.10148759       4.39989776       5.37193408       0.00084326      -0.00119196       0.00146049
Br       5.18209246       1.45747777       8.97564776      -0.00084662       0.00119661      -0.00146578
