9
Lattice="4.928833284339152 -2.413531441656285e-08 2.8456631797264174 1.64294440930484 4.646948566228999 2.845663172890439 -3.184152700666844e-08 -3.088772976924261e-08 5.691326414604031" Properties=species:S:1:pos:R:3:forces:R:3 energy=-51.5833740234375 free_energy=-51.5833740234375 stress="9.374590445077047e-05 -2.4548880261932027e-08 -5.360175947544121e-08 -2.4548880261932027e-08 9.373127250000834e-05 -1.7251615247459995e-08 -5.360175947544121e-08 -1.7251615247459995e-08 9.369907638756558e-05" pbc="T T T"
Sr       1.64294418       1.16173698       2.84566312       0.00000244       0.00000021       0.00000209
Sr       4.92883337       3.48521158       8.53698984      -0.00000152       0.00000010      -0.00000253
Mn      -0.00000001       0.00000005      -0.00000003       0.00000180       0.00000347       0.00000334
F        1.66252533       1.17558270       5.69132625       0.00013181       0.00009298       0.00000054
F        4.90925283       3.47136593       5.69132649      -0.00013596      -0.00009597      -0.00000128
F        4.09757045       1.17558277       4.28545183      -0.00006560       0.00009432       0.00011547
F        2.47420705       3.47136553       7.09720070       0.00006622      -0.00009491      -0.00011737
F        2.47420680       3.47136562       4.28545198       0.00006826      -0.00009430       0.00011761
F        4.09757063       1.17558290       7.09720075      -0.00006745       0.00009406      -0.00011779
