9
Lattice="4.794759943943903 -4.184511545359149e-08 2.7682559553345256 1.5982533084456572 4.520542951291754 2.7682558977445124 3.50733097378495e-09 -6.805298513229833e-08 5.536511904594171" Properties=species:S:1:pos:R:3:forces:R:3 energy=-48.92980194091797 free_energy=-48.92980194091797 stress="0.00013040189514867961 -2.9701605619436577e-09 -2.1516303405633153e-08 -2.9701605619436577e-09 0.0001304626202909276 1.9677228735304197e-08 -2.1516303405633153e-08 1.9677228735304197e-08 0.00013046925596427172" pbc="T T T"
Sr       1.59825314       1.13013556       2.76825630       0.00000043       0.00000022      -0.00000044
Sr       4.79476016       3.39040727       8.30476799      -0.00000069      -0.00000024      -0.00000002
Mg       0.00000015      -0.00000008       0.00000016       0.00000009      -0.00000049      -0.00000105
F        1.57221569       1.11172416       5.53651193      -0.00084628      -0.00059796      -0.00000010
F        4.82079746       3.40881872       5.53651198       0.00084722       0.00059806       0.00000015
F        4.00865193       1.11172420       4.12983463       0.00042380      -0.00059937      -0.00073456
F        2.38436119       3.40881871       6.94318868      -0.00042360       0.00059886       0.00073547
F        2.38436116       3.40881877       4.12983452      -0.00042402       0.00059876      -0.00073399
F        4.00865209       1.11172406       6.94318882       0.00042316      -0.00059782       0.00073441
