9
Lattice="5.878763892591735 3.1204658648411924e-08 3.394105929026654 1.9595879080789596 5.542552249176208 3.394106077183406 -6.060935057285187e-08 1.3859687494404138e-07 6.78821196303186" Properties=species:S:1:pos:R:3:forces:R:3 energy=-34.94794464111328 free_energy=-34.94794464111328 stress="-4.0666105633135885e-05 1.1457630400002472e-08 1.4347176779949677e-09 1.1457630400002472e-08 -4.065227403771132e-05 8.050748512289374e-09 1.4347176779949677e-09 8.050748512289374e-09 -4.071548391948454e-05" pbc="T T T"
Sr       1.95958757       1.38563809       3.39410599      -0.00000010       0.00000113       0.00000043
Sr       5.87876364       4.15691429      10.18231741      -0.00000106       0.00000011      -0.00000034
Mg      -0.00000003      -0.00000020      -0.00000000       0.00000023       0.00000280       0.00000248
Cl       1.96934104       1.39253429       6.78821182      -0.00070290      -0.00049721       0.00000024
Cl       5.86901089       4.15001850       6.78821188       0.00069937       0.00049616       0.00000001
Cl       4.89409394       1.39253436       5.09960510       0.00035278      -0.00049625      -0.00060686
Cl       2.94425820       4.15001833       8.47681957      -0.00034862       0.00049268       0.00060237
Cl       2.94425796       4.15001786       5.09960484      -0.00035173       0.00049693      -0.00060590
Cl       4.89409372       1.39253420       8.47681928       0.00035197      -0.00049622       0.00060768
