9
Lattice="4.80846996113616 3.838415700050122e-08 2.7761714090176492 1.602823348681367 4.53346903725309 2.776171422677103 -5.465005716623854e-08 -2.1914075784178528e-08 5.552342912691923" Properties=species:S:1:pos:R:3:forces:R:3 energy=-46.24221420288086 free_energy=-46.24221420288086 stress="0.00027321241213940084 1.1277893063876832e-09 -1.3566143763910077e-08 1.1277893063876832e-09 0.0002732850844040513 -1.2580152031205216e-08 -1.3566143763910077e-08 -1.2580152031205216e-08 0.00027327449060976505" pbc="T T T"
Sr       1.60282340       1.13336726       2.77617134       0.00000003       0.00000039       0.00000081
Sr       4.80846998       3.40010181       8.32851471       0.00000082      -0.00000053      -0.00000052
Ni      -0.00000018       0.00000014       0.00000053       0.00000689      -0.00000821      -0.00001345
F        1.59019911       1.12444118       5.55234283      -0.00268300      -0.00190006       0.00000010
F        4.82109411       3.40902825       5.55234302       0.00268295       0.00189836      -0.00000145
F        4.01337060       1.12444036       4.15332417       0.00133714      -0.00189229      -0.00231782
F        2.39792293       3.40902796       6.95136079      -0.00134493       0.00190384       0.00233239
F        2.39792270       3.40902835       4.15332453      -0.00134046       0.00189818      -0.00232509
F        4.01337049       1.12444093       6.95136100       0.00134053      -0.00189960       0.00232509
