9
Lattice="6.119872531046461 3.538195593224885e-08 3.5333101905394546 2.0399574884810785 5.769871326211473 3.533310286194039 -2.3565689167742544e-08 1.004889211742582e-07 7.066620421895932" Properties=species:S:1:pos:R:3:forces:R:3 energy=-31.55769157409668 free_energy=-31.55769157409668 stress="3.135756924166344e-05 3.0856963650904845e-09 -5.984647222234685e-10 3.0856963650904845e-09 3.1355601095128804e-05 2.1923969306669733e-09 -5.984647222234685e-10 2.1923969306669733e-09 3.136890154564753e-05" pbc="T T T"
Sr       2.03995741       1.44246829       3.53331014      -0.00000018       0.00000013       0.00000077
Sr       6.11987229       4.32740319      10.59993049      -0.00000014      -0.00000025      -0.00000081
Ni       0.00000003       0.00000010      -0.00000004       0.00000170      -0.00000034       0.00000077
Br       2.03167200       1.43660910       7.06662068       0.00202118       0.00142893      -0.00000018
Br       6.12815835       4.33326229       7.06662053      -0.00202405      -0.00143018      -0.00000078
Br       5.10403669       1.43660872       5.29278997      -0.00101154       0.00143093       0.00175087
Br       3.05579344       4.33326247       8.84045082       0.00101155      -0.00142884      -0.00175071
Br       3.05579308       4.33326255       5.29279003       0.00101252      -0.00143081       0.00175095
Br       5.10403667       1.43660911       8.84045085      -0.00101086       0.00143038      -0.00175105
