9
Lattice="5.13762874392654 2.0227214959514914e-08 2.9662109570607753 1.712542966091429 4.8438021872122095 2.9662109009789837 1.6439790442935926e-07 4.7560964115931375e-08 5.932421629376045" Properties=species:S:1:pos:R:3:forces:R:3 energy=-50.91710662841797 free_energy=-50.91710662841797 stress="0.0003283751429989934 -1.5099582029165504e-08 -2.1200055044801047e-08 -1.5099582029165504e-08 0.00032837153412401676 3.332441655956586e-09 -2.1200055044801047e-08 3.332441655956586e-09 0.0003284121339675039" pbc="T T T"
Sr       1.71254283       1.21095068       2.96621085      -0.00000127      -0.00000035      -0.00000021
Sr       5.13762924       3.63285159       8.89863258       0.00000004      -0.00000101       0.00000006
Nb       0.00000011      -0.00000049       0.00000030       0.00000128       0.00000911      -0.00000644
F        1.73099374       1.22399779       5.93242176       0.00528651       0.00373864      -0.00000027
F        5.11917796       3.61980458       5.93242205      -0.00529009      -0.00374162      -0.00000034
F        4.27213159       1.22399757       4.46529574      -0.00264320       0.00373828       0.00457799
F        2.57804049       3.61980440       7.39954744       0.00264257      -0.00373757      -0.00457716
F        2.57804024       3.61980479       4.46529582       0.00264624      -0.00374103       0.00458223
F        4.27213150       1.22399809       7.39954748      -0.00264236       0.00373554      -0.00457537
