9
Lattice="6.381786162920663 -8.834272058636021e-08 3.684526243172993 2.1272619931939674 6.016805846208938 3.6845262047607052 3.756709316570561e-08 -2.0481391116578715e-08 7.3690524212779165" Properties=species:S:1:pos:R:3:forces:R:3 energy=-35.75855255126953 free_energy=-35.75855255126953 stress="6.775490328436717e-05 -3.2984893039156304e-08 -7.734721307883774e-09 -3.2984893039156304e-08 6.778437091270462e-05 3.244140955871444e-09 -7.734721307883774e-09 3.244140955871444e-09 6.78406358929351e-05" pbc="T T T"
Sr       2.12726221       1.50420128       3.68452619      -0.00000056       0.00000068      -0.00000047
Sr       6.38178621       4.51260432      11.05357841       0.00000082      -0.00000073      -0.00000182
Nb      -0.00000031      -0.00000059       0.00000249       0.00000287       0.00000604      -0.00002685
Br       2.16007143       1.52740120       7.36905289      -0.00749385      -0.00529793      -0.00000229
Br       6.34897745       4.48940517       7.36905273       0.00748587       0.00529364      -0.00000222
Br       5.30175071       1.52740048       5.55520281       0.00374284      -0.00529200      -0.00648451
Br       3.20729835       4.48940367       9.18290064      -0.00375262       0.00530836       0.00649855
Br       3.20729716       4.48940524       5.55520258      -0.00374018       0.00529015      -0.00648144
Br       5.30174961       1.52740226       9.18290076       0.00375463      -0.00530821       0.00650102
