9
Lattice="6.9963126311935575 1.652127351477578e-07 4.03932280774267 2.3321044018947523 6.596186656881161 4.039322745851619 2.50733106620423e-08 -5.807122998868677e-08 8.078645572057082" Properties=species:S:1:pos:R:3:forces:R:3 energy=-31.449506759643555 free_energy=-31.449506759643555 stress="0.00011594694660743698 -2.1587205356610184e-09 6.096324334237124e-09 -2.1587205356610184e-09 0.00011595315299928188 -1.0502688496671908e-08 6.096324334237124e-09 -1.0502688496671908e-08 0.0001159531093435362" pbc="T T T"
Sr       2.33210512       1.64904705       4.03932289       0.00000103       0.00000001      -0.00000013
Sr       6.99631202       4.94713967      12.11796806      -0.00000068       0.00000008      -0.00000026
Nb      -0.00000019       0.00000002       0.00000061       0.00000104      -0.00000011      -0.00000804
I        2.33818059       1.65334343       8.07864562      -0.00343230      -0.00242710      -0.00000068
I        6.99023648       4.94284349       8.07864555       0.00343190       0.00242652      -0.00000018
I        5.82722252       1.65334300       6.06424635       0.00171342      -0.00242393      -0.00297043
I        3.50119477       4.94284327      10.09304437      -0.00171712       0.00242878       0.00297539
I        3.50119454       4.94284372       6.06424646      -0.00171496       0.00242484      -0.00297160
I        5.82722238       1.65334339      10.09304457       0.00171758      -0.00242908       0.00297593
