9
Lattice="6.671731937172565 1.0889196000828022e-07 3.851926088571316 2.2239107453562696 6.2901691376470374 3.851926093823194 -8.828264101264247e-08 -5.599302136055728e-08 7.703852330052604" Properties=species:S:1:pos:R:3:forces:R:3 energy=-27.34909439086914 free_energy=-27.34909439086914 stress="-1.566593346069567e-05 -9.399186984282437e-10 -8.29891100284641e-10 -9.399186984282437e-10 -1.5672261724830605e-05 1.9769441639283514e-10 -8.29891100284641e-10 1.9769441639283514e-10 -1.5674910173402168e-05" pbc="T T T"
Sr       2.22390961       1.57254305       3.85192624      -0.00000039      -0.00000033       0.00000088
Sr       6.67173308       4.71762646      11.55577834       0.00000039       0.00000064      -0.00000023
Ni      -0.00000003      -0.00000016       0.00000001      -0.00000072      -0.00000033      -0.00000051
I        2.21030311       1.56292050       7.70385227      -0.00042550      -0.00030115      -0.00000016
I        6.68533947       4.72724861       7.70385220       0.00042624       0.00030166      -0.00000021
I        5.56658035       1.56292047       5.76610453       0.00021298      -0.00030178      -0.00036840
I        3.32906219       4.72724862       9.64159988      -0.00021349       0.00030208       0.00036844
I        3.32906219       4.72724869       5.76610469      -0.00021307       0.00030145      -0.00036838
I        5.56658037       1.56292050       9.64159990       0.00021357      -0.00030228       0.00036858
