9
Lattice="6.0265045736026845 -1.7824734580259776e-07 3.479403743998638 2.008834642563829 5.681842649965847 3.4794038258389617 -8.388934403744262e-08 4.091474751229964e-08 6.958807633297799" Properties=species:S:1:pos:R:3:forces:R:3 energy=-39.783267974853516 free_energy=-39.783267974853516 stress="5.346236139303073e-05 1.1364974739080935e-08 1.0058395893963734e-08 1.1364974739080935e-08 5.3511532314587384e-05 -1.8594835893281925e-08 1.0058395893963734e-08 -1.8594835893281925e-08 5.350181891117245e-05" pbc="T T T"
Sr       2.00883479       1.42046112       3.47940377      -0.00000259      -0.00000001      -0.00000036
Sr       6.02650501       4.26138273      10.43821104      -0.00000297       0.00000140      -0.00000102
Nb      -0.00000035      -0.00000014       0.00000058       0.00000100      -0.00000053      -0.00000314
Cl       2.03999208       1.44249200       6.95880728      -0.00144804      -0.00102401       0.00000068
Cl       5.99534698       4.23935004       6.95880739       0.00145155       0.00102606       0.00000054
Cl       5.00650835       1.44249253       5.24608901       0.00072512      -0.00102603      -0.00125596
Cl       3.02883042       4.23934999       8.67152678      -0.00072464       0.00102550       0.00125468
Cl       3.02883081       4.23934992       5.24608895      -0.00072587       0.00102577      -0.00125495
Cl       5.00650823       1.44249193       8.67152604       0.00072637      -0.00102824       0.00125933
