9
Lattice="6.732565483740089 -3.347806012401859e-07 3.88704879455938 2.2441881556531187 6.347523633816374 3.887048834903494 2.621804359267219e-09 5.1265150607997375e-08 7.774097584577683" Properties=species:S:1:pos:R:3:forces:R:3 energy=-27.22776985168457 free_energy=-27.22776985168457 stress="-0.00026689027436077595 -7.720893258067463e-09 -4.9769086629680714e-09 -7.720893258067463e-09 -0.00026689257356338203 1.7035322041891732e-09 -4.9769086629680714e-09 1.7035322041891732e-09 -0.0002668939414434135" pbc="T T T"
Sr       2.24418799       1.58688048       3.88704792      -0.00000195       0.00000117      -0.00000109
Sr       6.73256567       4.76064327      11.66114688       0.00000235      -0.00000010       0.00000017
Pd      -0.00000039      -0.00000015       0.00000000       0.00000476      -0.00000058       0.00000272
I        2.23803869       1.58253245       7.77409768       0.00656457       0.00464129       0.00000111
I        6.73871525       4.76499101       7.77409770      -0.00656758      -0.00464399      -0.00000092
I        5.61354574       1.58253179       5.82524738      -0.00328270       0.00464235       0.00568675
I        3.36320794       4.76499138       9.72294795       0.00328233      -0.00464169      -0.00568588
I        3.36320764       4.76499134       5.82524769       0.00328210      -0.00464091       0.00568498
I        5.61354607       1.58253181       9.72294764      -0.00328393       0.00464251      -0.00568783
