9
Lattice="6.766098828226035 -1.1945586685437222e-07 3.9064090784004177 2.2553663232323538 6.37913900727576 3.906408801651498 1.359604804019836e-07 -2.4280826696071657e-07 7.8128179213104465" Properties=species:S:1:pos:R:3:forces:R:3 energy=-27.757143020629883 free_energy=-27.757143020629883 stress="3.0114109904388897e-05 8.348772340127653e-09 4.822504617862933e-09 8.348772340127653e-09 3.0111348678474315e-05 -7.2916268578637755e-09 4.822504617862933e-09 -7.2916268578637755e-09 3.0105429686955176e-05" pbc="T T T"
Sr       2.25536624       1.59478440       3.90640883      -0.00000017      -0.00000139      -0.00000058
Sr       6.76609904       4.78435419      11.71922708      -0.00000001       0.00000081       0.00000028
Pt       0.00000016      -0.00000052      -0.00000032      -0.00000306       0.00000695       0.00000317
I        2.23740206       1.58208165       7.81281788       0.00198407       0.00140250      -0.00000051
I        6.78406334       4.79705698       7.81281788      -0.00198528      -0.00140341      -0.00000022
I        5.64739826       1.58208178       5.84405575      -0.00099140       0.00140226       0.00171769
I        3.37406678       4.79705731       9.78158067       0.00099396      -0.00140578      -0.00172265
I        3.37406710       4.79705707       5.84405536       0.00099332      -0.00140414       0.00172062
I        5.64739815       1.58208173       9.78158001      -0.00099142       0.00140217      -0.00171773
