9
Lattice="6.192329600857611 3.0840060096965668e-09 3.5751432296548993 2.0641098893502203 5.838184275382039 3.5751431958971422 6.472424648239278e-08 4.4223059751419675e-09 7.150286347204134" Properties=species:S:1:pos:R:3:forces:R:3 energy=-31.137407302856445 free_energy=-31.137407302856445 stress="8.579924906371161e-05 -6.45806430554785e-09 9.542521439698248e-09 -6.45806430554785e-09 8.582844020565972e-05 -1.9523693772782735e-09 9.542521439698248e-09 -1.9523693772782735e-09 8.582810551160946e-05" pbc="T T T"
Sr       2.06410993       1.45954596       3.57514332      -0.00000016       0.00000009       0.00000038
Sr       6.19232970       4.37863817      10.72542973       0.00000044      -0.00000053       0.00000020
Pd      -0.00000000       0.00000020      -0.00000040       0.00000195      -0.00000181       0.00000512
Br       2.05576502       1.45364532       7.15028631       0.00282268       0.00199661       0.00000045
Br       6.20067446       4.38453898       7.15028632      -0.00282285      -0.00199596       0.00000044
Br       5.16444696       1.45364560       5.35548814      -0.00141020       0.00199438       0.00244220
Br       3.09199235       4.38453896       8.94508472       0.00141155      -0.00199666      -0.00244479
Br       3.09199259       4.38453866       5.35548814       0.00140878      -0.00199278       0.00244101
Br       5.16444722       1.45364529       8.94508481      -0.00141218       0.00199668      -0.00244498
