9
Lattice="5.089400784242682 -5.3272043753599164e-08 2.9383666722081117 1.696466725477501 4.798333260153039 2.938366936134665 -1.9669633205578958e-07 1.84157393622831e-07 5.876733685104225" Properties=species:S:1:pos:R:3:forces:R:3 energy=-44.23618698120117 free_energy=-44.23618698120117 stress="0.00017510089674033225 1.8251985478556776e-09 -2.4946297472183687e-08 1.8251985478556776e-09 0.0001751139498082921 1.3620641503564457e-08 -2.4946297472183687e-08 1.3620641503564457e-08 0.0001750573719618842" pbc="T T T"
Sr       1.69646675       1.19958367       2.93836717       0.00000041       0.00000031       0.00000097
Sr       5.08940062       3.59874983       8.81510042       0.00000079      -0.00000064       0.00000092
Pt      -0.00000031      -0.00000006       0.00000013       0.00000819       0.00000154      -0.00000419
F        1.70855148       1.20812894       5.87673369       0.00090665       0.00064206       0.00000013
F        5.07731580       3.59020432       5.87673336      -0.00091177      -0.00064379      -0.00000008
F        4.23512453       1.20812911       4.41801611      -0.00045529       0.00064331       0.00078756
F        2.55074235       3.59020432       7.33545099       0.00045267      -0.00064194      -0.00078505
F        2.55074253       3.59020448       4.41801589       0.00045347      -0.00064361       0.00078815
F        4.23512502       1.20812890       7.33545112      -0.00045556       0.00064272      -0.00078785
