9
Lattice="5.9954985517778425 4.806995468817689e-09 3.461502684842819 1.9984995255431253 5.652610234114974 3.4615026783445577 -3.741945673327844e-09 -1.0604665073017074e-08 6.923005376166877" Properties=species:S:1:pos:R:3:forces:R:3 energy=-34.88771057128906 free_energy=-34.88771057128906 stress="-3.878778898069868e-06 6.656292850237833e-09 -3.835301853882811e-09 6.656292850237833e-09 -3.849164386338089e-06 1.3883668437131291e-08 -3.835301853882811e-09 1.3883668437131291e-08 -3.859193384414539e-06" pbc="T T T"
Sr       1.99849952       1.41315257       3.46150270      -0.00000078       0.00000095       0.00000046
Sr       5.99549855       4.23945767      10.38450808       0.00000083      -0.00000153      -0.00000041
Pt       0.00000021       0.00000008      -0.00000019      -0.00000495      -0.00000388       0.00000346
Cl       1.96452838       1.38913136       6.92300535       0.00115836       0.00081988      -0.00000049
Cl       6.02946954       4.26347874       6.92300534      -0.00115427      -0.00081681      -0.00000007
Cl       5.01323427       1.38913144       5.16283428      -0.00057779       0.00081745       0.00100124
Cl       2.98076372       4.26347886       8.68317655       0.00057900      -0.00081822      -0.00100243
Cl       2.98076381       4.26347879       5.16283430       0.00057821      -0.00081712       0.00100130
Cl       5.01323429       1.38913138       8.68317655      -0.00057860       0.00081924      -0.00100315
