9
Lattice="5.017475416166147 1.5222617200129196e-08 2.896840841042772 1.672491830366954 4.730521212776345 2.8968408226376137 3.7473975597757256e-08 3.956498927094881e-09 5.793681617178729" Properties=species:S:1:pos:R:3:forces:R:3 energy=-44.62919616699219 free_energy=-44.62919616699219 stress="0.00024319582735188305 -7.24703852483799e-09 -2.126553333425818e-08 -7.24703852483799e-09 0.0002431978064123541 -2.0579080661775606e-09 -2.126553333425818e-08 -2.0579080661775606e-09 0.00024323166871909052" pbc="T T T"
Sr       1.67249171       1.18263029       2.89684098       0.00000034      -0.00000025      -0.00000034
Sr       5.01747541       3.54789087       8.69052244      -0.00000049       0.00000047       0.00000075
Pd       0.00000004       0.00000005       0.00000014       0.00000628       0.00000233       0.00000561
F        1.72068346       1.21670687       5.79368157       0.00024898       0.00017625      -0.00000002
F        4.96928390       3.51381439       5.79368147      -0.00025514      -0.00018052       0.00000037
F        4.15713356       1.21670727       4.38699637      -0.00012472       0.00017696       0.00021702
F        2.53283346       3.51381407       7.20036687       0.00012656      -0.00017853      -0.00021853
F        2.53283368       3.51381417       4.38699651       0.00012426      -0.00017602       0.00021584
F        4.15713379       1.21670697       7.20036674      -0.00012607       0.00017952      -0.00022066
