9
Lattice="6.547526759943569 5.279910842103638e-08 3.7802162939913075 2.1825089326480076 6.173067364083615 3.7802163582723316 -5.771245829068938e-08 3.791896204627672e-08 7.5604326879435835" Properties=species:S:1:pos:R:3:forces:R:3 energy=-29.40146827697754 free_energy=-29.40146827697754 stress="0.00011348890257067978 2.1522849280586343e-08 -1.600120747013989e-08 2.1522849280586343e-08 0.00011349039414199069 1.5159911104234425e-09 -1.600120747013989e-08 1.5159911104234425e-09 0.00011345864913892001" pbc="T T T"
Sr       2.18250844       1.54326670       3.78021593      -0.00000041       0.00000161       0.00000001
Sr       6.54752699       4.62980110      11.34064944       0.00000008       0.00000040       0.00000115
Pb       0.00000016       0.00000003      -0.00000025      -0.00000244      -0.00000304       0.00000370
Br       2.32423593       1.64348308       7.56043275      -0.00267097      -0.00188817      -0.00000017
Br       6.40579910       4.52958414       7.56043259       0.00267578       0.00189110       0.00000036
Br       5.38540899       1.64348314       5.79306382       0.00133579      -0.00189057      -0.00231385
Br       3.34462664       4.52958494       9.32780155      -0.00133519       0.00188736       0.00231292
Br       3.34462732       4.52958444       5.79306374      -0.00133641       0.00188958      -0.00231454
Br       5.38540899       1.64348231       9.32780182       0.00133388      -0.00188822       0.00231042
