9
Lattice="5.215261219555693 -7.898293948395238e-08 3.011032586939541 1.738420279379406 4.916995622383753 3.011032678172453 -8.006778411807947e-08 5.512052429941004e-08 6.022065312560558" Properties=species:S:1:pos:R:3:forces:R:3 energy=-44.213417053222656 free_energy=-44.213417053222656 stress="0.0003555942384991795 -8.7358500877599e-08 -1.944925287489241e-08 -8.7358500877599e-08 0.0003556673473212868 -7.68577557153094e-09 -1.944925287489241e-08 -7.68577557153094e-09 0.00035573140485212207" pbc="T T T"
Sr       1.73842020       1.22924874       3.01103231      -0.00000090      -0.00000071       0.00000032
Sr       5.21526152       3.68774694       9.03309837      -0.00000006       0.00000013      -0.00000093
Pb      -0.00000014      -0.00000004       0.00000017       0.00000306       0.00000227      -0.00000078
F        1.84223398       1.30265617       6.02206536      -0.00184819      -0.00130655       0.00000056
F        5.11144745       3.61433918       6.02206525       0.00184608       0.00130585      -0.00000048
F        4.29414403       1.30265619       4.60645464       0.00092623      -0.00131024      -0.00160351
F        2.65953737       3.61433958       7.43767576      -0.00092657       0.00131030       0.00160262
F        2.65953749       3.61433922       4.60645450      -0.00092593       0.00131003      -0.00160426
F        4.29414369       1.30265668       7.43767590       0.00092647      -0.00131106       0.00160585
