9
Lattice="6.212600184604446 -5.776804181537626e-09 3.586846413422598 2.070866752621537 5.85729559383472 3.5868463616923107 4.26028300181132e-08 -3.3231658079771915e-08 7.173692753054961" Properties=species:S:1:pos:R:3:forces:R:3 energy=-33.25765609741211 free_energy=-33.25765609741211 stress="0.0001448638940928504 1.881551092708378e-08 7.321598882725766e-11 1.881551092708378e-08 0.0001448336843168363 8.817849561637559e-09 7.321598882725766e-11 8.817849561637559e-09 0.00014484494749922305" pbc="T T T"
Sr       2.07086692       1.46432452       3.58684645       0.00000043       0.00000121      -0.00000042
Sr       6.21260036       4.39297114      10.76053882       0.00000086      -0.00000148       0.00000046
Pb       0.00000002       0.00000018      -0.00000042      -0.00000077      -0.00000313       0.00000622
Cl       2.18952239       1.54822621       7.17369247      -0.00161793      -0.00114370       0.00000066
Cl       6.09394447       4.30906934       7.17369289       0.00161957       0.00114468       0.00000016
Cl       5.11783883       1.54822639       5.48302864       0.00081025      -0.00114506      -0.00140250
Cl       3.16562785       4.30906943       8.86435733      -0.00080846       0.00114256       0.00140109
Cl       3.16562792       4.30906900       5.48302829      -0.00080974       0.00114505      -0.00140287
Cl       5.11783915       1.54822604       8.86435765       0.00080574      -0.00114019       0.00139723
