9
Lattice="6.234242363926853 -4.510346261502692e-08 3.599341511117998 2.0780807330621727 5.8777001308501475 3.5993415325773173 -3.054100850386746e-11 2.6260585594677982e-08 7.19868302228895" Properties=species:S:1:pos:R:3:forces:R:3 energy=-31.6208553314209 free_energy=-31.6208553314209 stress="-1.4538915138473385e-06 -7.833951265467931e-09 7.289365999696429e-09 -7.833951265467931e-09 -1.4505577610179898e-06 -1.603774890668319e-08 7.289365999696429e-09 -1.603774890668319e-08 -1.4368816891874303e-06" pbc="T T T"
Sr       2.07808102       1.46942508       3.59934140       0.00000027       0.00000010       0.00000001
Sr       6.23424217       4.40827517      10.79802450      -0.00000029       0.00000026      -0.00000015
Pt      -0.00000003       0.00000027      -0.00000155       0.00000004      -0.00000440       0.00003494
Br       2.05109996       1.45034673       7.19868304      -0.00028235      -0.00020002      -0.00000139
Br       6.26122288       4.42735314       7.19868327       0.00028515       0.00020258      -0.00000090
Br       5.20869210       1.45034702       5.37564654       0.00014459      -0.00020620      -0.00025263
Br       3.10363050       4.42735377       9.02172026      -0.00013778       0.00019473       0.00023729
Br       3.10363115       4.42735284       5.37564680      -0.00014670       0.00020719      -0.00025380
Br       5.20869265       1.45034647       9.02172006       0.00013717      -0.00019436       0.00023665
