9
Lattice="5.882494204668186 -2.1870340301342005e-08 3.3962596527104365 1.9608313849139554 5.546068755849164 3.3962596458214045 2.1666940487769387e-08 6.8834262037713246e-09 6.792519267892672" Properties=species:S:1:pos:R:3:forces:R:3 energy=-34.618473052978516 free_energy=-34.618473052978516 stress="-6.138595381344203e-06 -8.924871952586955e-10 -5.067583686013677e-09 -8.924871952586955e-10 -6.128008863015566e-06 1.3328453896122028e-09 -5.067583686013677e-09 1.3328453896122028e-09 -6.120936177467229e-06" pbc="T T T"
Sr       1.96083152       1.38651727       3.39625963      -0.00000002       0.00000061      -0.00000030
Sr       5.88249396       4.15955154      10.18877892       0.00000038      -0.00000014      -0.00000043
Pd      -0.00000067      -0.00000107       0.00000193       0.00001242       0.00001856      -0.00003392
Cl       1.94587908       1.37594432       6.79251917      -0.00278796      -0.00197063      -0.00000028
Cl       5.89744740       4.17012508       6.79251936       0.00277028       0.00195846      -0.00000062
Cl       4.90955507       1.37594368       5.08143986       0.00138623      -0.00195941      -0.00240076
Cl       2.93377110       4.17012439       8.50359811      -0.00139420       0.00197129       0.00241372
Cl       2.93377057       4.17012526       5.08143942      -0.00138264       0.00195613      -0.00239591
Cl       4.90955437       1.37594450       8.50359788       0.00139557      -0.00197484       0.00241855
