9
Lattice="5.150984238682663 -7.032713386566337e-08 2.973922227332482 1.7169946777885563 4.856394893612615 2.9739222310285696 -9.877856306829063e-08 -6.532019386199851e-08 5.947844625754446" Properties=species:S:1:pos:R:3:forces:R:3 energy=-44.79823303222656 free_energy=-44.79823303222656 stress="6.632534496020526e-05 -4.523859686855758e-08 1.865660337330155e-08 -4.523859686855758e-08 6.64075996610336e-05 -3.0875003886876584e-08 1.865660337330155e-08 -3.0875003886876584e-08 6.642723747063428e-05" pbc="T T T"
Sr       1.71699454       1.21409893       2.97392215      -0.00000046      -0.00000006       0.00000061
Sr       5.15098396       3.64229619       8.92176686      -0.00000079       0.00000079      -0.00000009
Sn      -0.00000041      -0.00000019       0.00000050       0.00000537       0.00000391      -0.00000584
F        1.80939348       1.27943414       5.94784467       0.00097805       0.00069053      -0.00000000
F        5.05858563       3.57696074       5.94784447      -0.00098304      -0.00069571      -0.00000108
F        4.24628745       1.27943420       4.54090311      -0.00048966       0.00069302       0.00084798
F        2.62169163       3.57695997       7.35478582       0.00048737      -0.00068932      -0.00084375
F        2.62169177       3.57696002       4.54090328       0.00048838      -0.00069037       0.00084403
F        4.24628716       1.27943501       7.35478543      -0.00048497       0.00068709      -0.00084168
