9
Lattice="5.012310022903423 -9.005185482148322e-08 2.893857714262215 1.6707699530765259 4.725650922376159 2.8938576617053777 9.272748081011119e-08 1.1995601359242288e-09 5.787715267915616" Properties=species:S:1:pos:R:3:forces:R:3 energy=-41.24543762207031 free_energy=-41.24543762207031 stress="-1.6576328562223352e-05 -5.092922350513618e-08 7.02340656744127e-08 -5.092922350513618e-08 -1.637882633076515e-05 -1.0366693459218368e-07 7.02340656744127e-08 -1.0366693459218368e-07 -1.6730889910832047e-05" pbc="T T T"
Sr       1.67077012       1.18141295       2.89385787      -0.00000024      -0.00000134       0.00000027
Sr       5.01231013       3.54423802       8.68157285      -0.00000019       0.00000140      -0.00000076
S       -0.00000020       0.00000004      -0.00000043       0.00000569       0.00000728       0.00000516
F        1.71845380       1.21513002       5.78771545      -0.00044191      -0.00031185      -0.00000080
F        4.96462624       3.51052049       5.78771510       0.00043881       0.00031030      -0.00000133
F        4.15308349       1.21512962       4.38208163       0.00021821      -0.00031269      -0.00038385
F        2.52999700       3.51052139       7.19334860      -0.00021964       0.00030994       0.00038087
F        2.52999654       3.51052221       4.38208053      -0.00022048       0.00031042      -0.00038433
F        4.15308386       1.21512919       7.19334921       0.00021946      -0.00031435       0.00038433
