9
Lattice="6.202197206492265 -5.180031461044941e-08 3.5808403128551674 2.067399042083681 5.847487807502231 3.580840274592975 4.630988295215797e-08 -1.4115431851331784e-08 7.161680545499275" Properties=species:S:1:pos:R:3:forces:R:3 energy=-33.6236572265625 free_energy=-33.6236572265625 stress="2.85318965325132e-05 -5.144055137407122e-08 -6.315457046213169e-09 -5.144055137407122e-08 2.8577458579093218e-05 -7.458952566707922e-09 -6.315457046213169e-09 -7.458952566707922e-09 2.8624725018744357e-05" pbc="T T T"
Sr       2.06739921       1.46187215       3.58084019       0.00000063       0.00000078       0.00000007
Sr       6.20219694       4.38561563      10.74252105      -0.00000099       0.00000068       0.00000043
Sn      -0.00000046       0.00000057       0.00000036       0.00000725      -0.00000606      -0.00000880
Cl       2.14285034       1.51522418       7.16168084       0.00058544       0.00041445       0.00000000
Cl       6.12674617       4.33226354       7.16168076      -0.00058806      -0.00041547      -0.00000068
Cl       5.13077185       1.51522424       5.43660375      -0.00029311       0.00041384       0.00050607
Cl       3.13882498       4.33226271       8.88675662       0.00028834      -0.00040719      -0.00049844
Cl       3.13882449       4.33226344       5.43660365       0.00029168      -0.00041181       0.00050497
Cl       5.13077169       1.51522451       8.88675733      -0.00029111       0.00041100      -0.00050345
