9
Lattice="6.443205330925268 1.1029801392736249e-07 3.7199863063516556 2.147735171446026 6.0747124640103145 3.7199863805741447 -2.5662852043275865e-08 7.275725982279897e-08 7.439972657152646" Properties=species:S:1:pos:R:3:forces:R:3 energy=-27.077421188354492 free_energy=-27.077421188354492 stress="0.00019610096933320165 -5.396290969628126e-09 -5.399340974321376e-09 -5.396290969628126e-09 0.00019610067829489708 1.6050815121460005e-09 -5.399340974321376e-09 1.6050815121460005e-09 0.00019609493028838187" pbc="T T T"
Sr       2.14773541       1.51867853       3.71998588       0.00000109      -0.00000021      -0.00000242
Sr       6.44320513       4.55603446      11.15995934      -0.00000053       0.00000113       0.00000194
Se      -0.00000002       0.00000050       0.00000053      -0.00000093      -0.00000085      -0.00000247
Br       2.19507177       1.55215024       7.43997291      -0.00608319      -0.00430194       0.00000085
Br       6.39586843       4.52256210       7.43997256       0.00608546       0.00430301      -0.00000031
Br       5.34566955       1.55215018       5.62097417       0.00304191      -0.00430194      -0.00526834
Br       3.24527121       4.52256207       9.25897080      -0.00304374       0.00430244       0.00526977
Br       3.24527113       4.52256235       5.62097428      -0.00304215       0.00430164      -0.00526884
Br       5.34566925       1.55215026       9.25897095       0.00304213      -0.00430316       0.00526974
