9
Lattice="5.149894770332156 3.6484665152434353e-07 2.9732937182224246 1.7166318468754618 4.855367786216892 2.9732938692849786 2.6102118366428083e-08 2.0347007225084193e-07 5.946587391234706" Properties=species:S:1:pos:R:3:forces:R:3 energy=-41.906005859375 free_energy=-41.906005859375 stress="0.00010461388592375442 -8.311926791293445e-08 -8.75928929389147e-09 -8.311926791293445e-08 0.00010442015627631918 -4.676918763379945e-08 -8.75928929389147e-09 -4.676918763379945e-08 0.00010434196155983955" pbc="T T T"
Sr       1.71663121       1.21384208       2.97329371      -0.00000309      -0.00000251      -0.00000067
Sr       5.14989531       3.64152670       8.91988080       0.00000198       0.00000107       0.00000138
Se      -0.00000038      -0.00000247       0.00000155       0.00001298       0.00006255      -0.00003579
F        1.78471318       1.26198323       5.94658740      -0.00401855      -0.00284249       0.00000208
F        5.08181473       3.59338563       5.94658706       0.00398904       0.00281674       0.00000175
F        4.25753852       1.26198292       4.51890171       0.00200328      -0.00283635      -0.00346375
F        2.60898797       3.59338584       7.37427332      -0.00200060       0.00282794       0.00346398
F        2.60898779       3.59338620       4.51890083      -0.00199458       0.00281811      -0.00344861
F        4.25753826       1.26198289       7.37427324       0.00201011      -0.00284481       0.00347984
