9
Lattice="6.966613438664707 -1.0655285813896097e-08 4.0221761381251 2.3222044638031614 6.568185974340706 4.022176148007896 8.289503465164168e-09 1.7965497080799898e-08 8.044352261892458" Properties=species:S:1:pos:R:3:forces:R:3 energy=-31.143360137939453 free_energy=-31.143360137939453 stress="6.753151683369651e-05 3.642948165349935e-09 -1.6743252118089913e-08 3.642948165349935e-09 6.752101035090163e-05 1.0279939566260055e-08 -1.6743252118089913e-08 1.0279939566260055e-08 6.7530432716012e-05" pbc="T T T"
Sr       2.32220421       1.64204614       4.02217616       0.00000054      -0.00000265       0.00000025
Sr       6.96661363       4.92613983      12.06652822      -0.00000082       0.00000293      -0.00000071
Sc       0.00000005      -0.00000007      -0.00000035       0.00000152       0.00000217       0.00000367
I        2.34429607       1.65766743       8.04435215      -0.00743832      -0.00525989       0.00000101
I        6.94452247       4.91051873       8.04435225       0.00743422       0.00525759       0.00000032
I        5.79446520       1.65766750       6.05239617       0.00372079      -0.00526097      -0.00644197
I        3.49435227       4.91051863      10.03630890      -0.00371700       0.00525786       0.00643823
I        3.49435236       4.91051826       6.05239594      -0.00371876       0.00526071      -0.00644007
I        5.79446535       1.65766744      10.03630878       0.00371784      -0.00525779       0.00643928
