9
Lattice="6.788057679499614 1.323718723510667e-07 3.9190867860721292 2.2626859327044597 6.3998421289743055 3.91908693375277 -8.671873825223465e-08 1.1955172243211876e-07 7.838173722345494" Properties=species:S:1:pos:R:3:forces:R:3 energy=-23.75711441040039 free_energy=-23.75711441040039 stress="-6.39180070720613e-05 -8.179672938979365e-09 -9.315023419276258e-09 -8.179672938979365e-09 -6.392292561940849e-05 5.269486180736749e-09 -9.315023419276258e-09 5.269486180736749e-09 -6.392224167939276e-05" pbc="T T T"
Sr       2.26268630       1.59996027       3.91908679       0.00000044      -0.00000022       0.00000094
Sr       6.78805707       4.79988232      11.75726055      -0.00000053       0.00000001      -0.00000131
S        0.00000015       0.00000020      -0.00000004       0.00000047      -0.00000009      -0.00000022
I        2.36770363       1.67421937       7.83817364      -0.00321852      -0.00227565       0.00000044
I        6.68303968       4.72562269       7.83817369       0.00321846       0.00227592       0.00000010
I        5.60420566       1.67421947       5.96957832       0.00160927      -0.00227616      -0.00278721
I        3.44653805       4.72562289       9.70676919      -0.00160941       0.00227599       0.00278726
I        3.44653785       4.72562271       5.96957843      -0.00160913       0.00227589      -0.00278736
I        5.60420572       1.67421960       9.70676924       0.00160895      -0.00227569       0.00278736
