9
Lattice="5.16436440515864 2.0839441360641662e-08 2.981646982750649 1.72145476464336 4.869009420346358 2.981647080999106 6.822655595742508e-08 1.6857279300119868e-07 5.963293847329419" Properties=species:S:1:pos:R:3:forces:R:3 energy=-53.01362609863281 free_energy=-53.01362609863281 stress="0.00025917612947523594 -1.3251105990264023e-08 -4.952176624328786e-08 -1.3251105990264023e-08 0.00025943058426491916 4.655847707368821e-09 -4.952176624328786e-08 4.655847707368821e-09 0.00025918270694091916" pbc="T T T"
Sr       1.72145515       1.21725222       2.98164730       0.00000010       0.00000055      -0.00000017
Sr       5.16436456       3.65175720       8.94494097       0.00000058      -0.00000149       0.00000062
Sc       0.00000013       0.00000021       0.00000027       0.00000006      -0.00000274      -0.00000051
F        1.66998876       1.18086052       5.96329369       0.00107753       0.00076121      -0.00000070
F        5.21583018       3.68814911       5.96329407      -0.00107545      -0.00075978       0.00000014
F        4.32936996       1.18086043       4.42789916      -0.00053853       0.00076115       0.00093216
F        2.55644941       3.68814904       7.49868813       0.00053647      -0.00075883      -0.00092942
F        2.55644890       3.68814922       4.42789928       0.00053865      -0.00076222       0.00093305
F        4.32937000       1.18086041       7.49868875      -0.00053945       0.00076228      -0.00093436
