9
Lattice="6.325031424458527 -3.757394051588491e-08 3.6517586499327175 2.1083438308852567 5.963296710022364 3.6517585492010256 6.077580533755839e-08 -8.039560356581519e-08 7.303517194598584" Properties=species:S:1:pos:R:3:forces:R:3 energy=-27.35195541381836 free_energy=-27.35195541381836 stress="9.881582082016394e-05 8.581525712259008e-09 -1.4029061468079362e-08 8.581525712259008e-09 9.883163875201717e-05 1.5507653827739887e-08 -1.4029061468079362e-08 1.5507653827739887e-08 9.88396059256047e-05" pbc="T T T"
Sr       2.10834379       1.49082426       3.65175854      -0.00000019      -0.00000026       0.00000035
Sr       6.32503133       4.47247252      10.95527552       0.00000049       0.00000041      -0.00000119
S        0.00000030       0.00000005       0.00000025      -0.00000188       0.00000054      -0.00000190
Br       2.14880663       1.51943563       7.30351723      -0.00255361      -0.00180638      -0.00000000
Br       6.28456883       4.44386098       7.30351738       0.00255421       0.00180602      -0.00000013
Br       5.25062814       1.51943561       5.51267918       0.00127682      -0.00180572      -0.00221050
Br       3.18274714       4.44386080       9.09435466      -0.00127673       0.00180602       0.00221285
Br       3.18274690       4.44386096       5.51267971      -0.00127633       0.00180548      -0.00221148
Br       5.25062819       1.51943550       9.09435504       0.00127737      -0.00180620       0.00221193
