9
Lattice="6.362889664157464 1.3049273771720572e-07 3.6736160075703146 2.1209633067042635 5.998989872888474 3.6736160728881924 2.39423693755943e-08 9.692754467479358e-08 7.3472319736712155" Properties=species:S:1:pos:R:3:forces:R:3 energy=-36.17721939086914 free_energy=-36.17721939086914 stress="-0.00030877842800691724 7.573482285749833e-09 -3.032462103647049e-08 7.573482285749833e-09 -0.0003087506047450006 4.455515778545305e-08 -3.032462103647049e-08 4.455515778545305e-08 -0.00030876370146870613" pbc="T T T"
Sr       2.12096322       1.49974752       3.67361609       0.00000065      -0.00000042      -0.00000075
Sr       6.36288975       4.49924254      11.02084792      -0.00000058       0.00000016       0.00000051
Sc      -0.00000012       0.00000017       0.00000008       0.00000052      -0.00000277       0.00000004
Br       2.13018902       1.50627109       7.34723184      -0.00288501      -0.00203887      -0.00000027
Br       6.35366406       4.49271894       7.34723220       0.00288519       0.00204009      -0.00000102
Br       5.29779528       1.50627109       5.51841388       0.00144301      -0.00203946      -0.00249973
Br       3.18605786       4.49271888       9.17605041      -0.00144389       0.00204235       0.00250039
Br       3.18605777       4.49271895       5.51841358      -0.00144129       0.00203776      -0.00249648
Br       5.29779514       1.50627124       9.17605023       0.00144155      -0.00203884       0.00249711
