9
Lattice="6.895426954176359 -1.0576719512021836e-07 3.9810766909580533 2.2984755434304414 6.50107085308378 3.9810767052360525 1.7934491208729453e-08 3.0168482423413815e-08 7.962153350852693" Properties=species:S:1:pos:R:3:forces:R:3 energy=-23.515817642211914 free_energy=-23.515817642211914 stress="-2.2529546185978688e-05 6.093046511779221e-09 5.21596321689799e-09 6.093046511779221e-09 -2.2538557459483854e-05 -1.8442409821517458e-09 5.21596321689799e-09 -1.8442409821517458e-09 -2.2538260964211076e-05" pbc="T T T"
Sr       2.29847608       1.62526871       3.98107570       0.00000121       0.00000044      -0.00000189
Sr       6.89542619       4.87580237      11.94323117      -0.00000195      -0.00000016       0.00000276
Se       0.00000017      -0.00000017      -0.00000017       0.00000004       0.00000003       0.00000015
I        2.41716327       1.70919262       7.96215360      -0.00032336      -0.00022878       0.00000024
I        6.77673943       4.79187808       7.96215319       0.00032268       0.00022785      -0.00000075
I        5.68684535       1.70919264       6.07440161       0.00016204      -0.00022801      -0.00028026
I        3.50705697       4.79187821       9.84990529      -0.00016135       0.00022799       0.00028007
I        3.50705755       4.79187810       6.07440127      -0.00016097       0.00022867      -0.00028060
I        5.68684505       1.70919260       9.84990537       0.00016164      -0.00022808       0.00028025
