9
Lattice="6.060383490346864 -1.447441141927183e-07 3.4989640083402542 2.0201277307294343 5.7137839568026445 3.498963944116046 -1.274161157644643e-08 -8.766793399173297e-08 6.997928038749621" Properties=species:S:1:pos:R:3:forces:R:3 energy=-30.15162467956543 free_energy=-30.15162467956543 stress="3.5352077247807756e-05 1.477725852794265e-08 -4.48003500963523e-09 1.477725852794265e-08 3.532700065989047e-05 -1.7548600350636434e-09 -4.48003500963523e-09 -1.7548600350636434e-09 3.5292887332616374e-05" pbc="T T T"
Sr       2.02012789       1.42844571       3.49896407       0.00000065      -0.00000026       0.00000032
Sr       6.06038311       4.28533805      10.49689173      -0.00000075       0.00000031      -0.00000025
S        0.00000021       0.00000005      -0.00000022       0.00000130      -0.00000143      -0.00000058
Cl       2.05073123       1.45008582       6.99792795       0.00030220       0.00021356      -0.00000038
Cl       6.02977992       4.26369777       6.99792797      -0.00030160      -0.00021356      -0.00000009
Cl       5.03501765       1.45008591       5.27494967      -0.00015244       0.00021520       0.00026274
Cl       3.04549363       4.26369776       8.72090646       0.00015128      -0.00021374      -0.00026095
Cl       3.04549364       4.26369797       5.27494981       0.00015083      -0.00021350       0.00026119
Cl       5.03501763       1.45008582       8.72090638      -0.00015131       0.00021338      -0.00026178
