9
Lattice="6.042809199185606 -1.2205749670521541e-08 3.4888170188879037 2.014269750151523 5.697214241904698 3.4888169693557347 -2.3922488757959165e-07 -2.2982172947640487e-07 6.977634452125423" Properties=species:S:1:pos:R:3:forces:R:3 energy=-40.79874038696289 free_energy=-40.79874038696289 stress="0.00012055655679432675 3.704482764987915e-08 3.244511548317064e-09 3.704482764987915e-08 0.00012050440273014829 -2.3342895616451642e-08 3.244511548317064e-09 -2.3342895616451642e-08 0.00012050614168401808" pbc="T T T"
Sr       2.01426981       1.42430230       3.48881825       0.00000001       0.00000011       0.00000163
Sr       6.04280863       4.27291107      10.46644976      -0.00000001      -0.00000060      -0.00000253
Sc      -0.00000012       0.00000036      -0.00000063      -0.00000094      -0.00000408       0.00001056
Cl       2.01731237       1.42645558       6.97763455      -0.00272030      -0.00192466      -0.00000004
Cl       6.03976640       4.27075881       6.97763434       0.00272202       0.00192639      -0.00000015
Cl       5.03415267       1.42645524       5.23586102       0.00135937      -0.00192460      -0.00235590
Cl       3.02292598       4.27075926       8.71940772      -0.00135651       0.00192100       0.00235114
Cl       3.02292592       4.27075826       5.23586117      -0.00136191       0.00192776      -0.00235784
Cl       5.03415322       1.42645511       8.71940753       0.00135812      -0.00192118       0.00235319
