9
Lattice="6.94206194448194 1.8345283197148032e-07 4.008001087863081 2.314020791677961 6.545038857102048 4.008001138861125 -4.7355145104475485e-08 2.897441678256688e-08 8.016002257747783" Properties=species:S:1:pos:R:3:forces:R:3 energy=-30.878469467163086 free_energy=-30.878469467163086 stress="9.43347331485711e-05 -1.2404943738886232e-10 -4.171342826708724e-09 -1.2404943738886232e-10 9.433905506739393e-05 1.4271207549043652e-09 -4.171342826708724e-09 1.4271207549043652e-09 9.43497070693411e-05" pbc="T T T"
Sr       2.31401886       1.63625926       4.00800087      -0.00000339      -0.00000077       0.00000043
Sr       6.94206367       4.90877963      12.02400372       0.00000303       0.00000069      -0.00000014
Ti       0.00000009       0.00000007      -0.00000034      -0.00000016       0.00000097       0.00000027
I        2.30987982       1.63333195       8.01600225      -0.00570415      -0.00403319      -0.00000023
I        6.94620276       4.91170709       8.01600229       0.00570512       0.00403356      -0.00000048
I        5.78712206       1.63333202       6.00841600       0.00285338      -0.00403517      -0.00494207
I        3.46896063       4.91170727      10.02358858      -0.00285377       0.00403484       0.00494142
I        3.46896073       4.91170717       6.00841594      -0.00285305       0.00403489      -0.00494139
I        5.78712211       1.63333180      10.02358862       0.00285309      -0.00403574       0.00494225
