9
Lattice="6.311041932138451 9.777093705960091e-08 3.643681753428871 2.103680638038664 5.9501075989808445 3.6436819234934017 -8.538475334478627e-08 1.4790955760214144e-07 7.287363654748515" Properties=species:S:1:pos:R:3:forces:R:3 energy=-35.543907165527344 free_energy=-35.543907165527344 stress="-1.535334922664333e-05 -8.561156228381606e-09 -1.988256670415467e-08 -8.561156228381606e-09 -1.536919990030583e-05 3.451371455298613e-08 -1.988256670415467e-08 3.451371455298613e-08 -1.5387126040877774e-05" pbc="T T T"
Sr       2.10368069       1.48752701       3.64368163       0.00000027      -0.00000089      -0.00000041
Sr       6.31104198       4.46258102      10.93104555      -0.00000026       0.00000121       0.00000014
Ti       0.00000021      -0.00000028       0.00000030      -0.00000011       0.00000255      -0.00000183
Br       2.10861768       1.49101848       7.28736367      -0.00099576      -0.00070545       0.00000050
Br       6.30610469       4.45908953       7.28736387       0.00099418       0.00070271      -0.00000059
Br       5.25673269       1.49101825       5.46979888       0.00049902      -0.00070518      -0.00086400
Br       3.15798982       4.45908925       9.10492818      -0.00049858       0.00070590       0.00086516
Br       3.15798945       4.45908978       5.46979867      -0.00049581       0.00070293      -0.00086087
Br       5.25673273       1.49101831       9.10492858       0.00049718      -0.00070378       0.00086188
