9
Lattice="5.9595722893462995 -1.9476433626132095e-07 3.44076066759202 1.9865238689791207 5.618739166203643 3.4407607435321053 1.017255924205491e-07 1.6493817462693936e-07 6.881521158990136" Properties=species:S:1:pos:R:3:forces:R:3 energy=-40.00150680541992 free_energy=-40.00150680541992 stress="4.730607906822115e-05 -5.935689628699947e-08 4.096191830171847e-08 -5.935689628699947e-08 4.730637010652572e-05 1.3248483199390648e-08 4.096191830171847e-08 1.3248483199390648e-08 4.7245845053112134e-05" pbc="T T T"
Sr       1.98652561       1.40468523       3.44076246       0.00000328       0.00000049       0.00000263
Sr       5.95957296       4.21405424      10.32228428       0.00000282       0.00000141       0.00000128
Ti      -0.00000104      -0.00000027      -0.00000010       0.00000841       0.00000473      -0.00000091
Cl       1.97919444       1.39950155       6.88152081      -0.00407898      -0.00288278      -0.00000031
Cl       5.96690304       4.21923814       6.88152107       0.00406206       0.00287294      -0.00000159
Cl       4.96997491       1.39950114       5.15479138       0.00203565      -0.00287601      -0.00352508
Cl       2.97611989       4.21923866       8.60824960      -0.00203472       0.00287703       0.00352323
Cl       2.97611995       4.21923739       5.15479159      -0.00203155       0.00287676      -0.00352329
Cl       4.96997524       1.39950048       8.60824924       0.00203341      -0.00287437       0.00352407
