9
Lattice="5.02108831547027 -4.7825445787287954e-08 2.8989269833105347 1.6736960710394415 4.733927726806317 2.8989269643048696 -3.175982316487481e-08 -4.573469462828996e-08 5.797854021630689" Properties=species:S:1:pos:R:3:forces:R:3 energy=-52.33116912841797 free_energy=-52.33116912841797 stress="0.0006182190263643861 -3.7361473914643284e-08 -2.1270372130288706e-08 -3.7361473914643284e-08 0.0006182265351526439 2.5975332107464055e-08 -2.1270372130288706e-08 2.5975332107464055e-08 0.0006182336364872754" pbc="T T T"
Sr       1.67369573       1.18348191       2.89892710      -0.00000060       0.00000009      -0.00000087
Sr       5.02108838       3.55044613       8.69678082      -0.00000063       0.00000216      -0.00000001
Ti      -0.00000006       0.00000008      -0.00000023      -0.00000049      -0.00000267      -0.00000058
F        1.64809938       1.16538193       5.79785391      -0.00243413      -0.00172102      -0.00000017
F        5.04668478       3.56854550       5.79785411       0.00243592       0.00172177       0.00000005
F        4.19703883       1.16538195       4.32622319       0.00121808      -0.00172240      -0.00210837
F        2.49774565       3.56854557       7.26948508      -0.00121841       0.00172240       0.00210920
F        2.49774570       3.56854558       4.32622300      -0.00121769       0.00172129      -0.00210807
F        4.19703884       1.16538179       7.26948511       0.00121775      -0.00172150       0.00210804
