9
Lattice="6.84053229134559 -3.2158352778708585e-08 3.949383195266901 2.2801773451624965 6.44931586380515 3.949383290472305 -5.975773726588488e-08 7.434715399447654e-08 7.898766494037274" Properties=species:S:1:pos:R:3:forces:R:3 energy=-31.420351028442383 free_energy=-31.420351028442383 stress="-2.252825470350217e-05 1.434595553462259e-09 1.060208187908529e-08 1.434595553462259e-09 -2.2520172933582217e-05 -3.0714861765090973e-09 1.060208187908529e-08 -3.0714861765090973e-09 -2.2527729015564546e-05" pbc="T T T"
Sr       2.28017721       1.61233015       3.94938323       0.00000080       0.00000101       0.00000033
Sr       6.84053204       4.83698556      11.84814984      -0.00000156      -0.00000163      -0.00000019
V       -0.00000025       0.00000006       0.00000017       0.00000191      -0.00000036      -0.00000059
I        2.26528404       1.60179805       7.89876650      -0.00087504      -0.00061888      -0.00000030
I        6.85542569       4.84751796       7.89876643       0.00087386       0.00061828       0.00000019
I        5.70789045       1.60179805       5.91117677       0.00043714      -0.00061791      -0.00075710
I        3.41281948       4.84751778       9.88635597      -0.00043739       0.00061942       0.00075835
I        3.41281949       4.84751786       5.91117692      -0.00043781       0.00061933      -0.00075893
I        5.70789015       1.60179816       9.88635606       0.00043812      -0.00061931       0.00075820
