9
Lattice="4.951668165888785 -4.0461672138944105e-08 2.8588470389246687 1.6505560419836391 4.66847735181306 2.858846995909179 -2.9219137115493375e-08 -7.334404868062697e-08 5.717694128458383" Properties=species:S:1:pos:R:3:forces:R:3 energy=-52.056461334228516 free_energy=-52.056461334228516 stress="0.000185934200999327 3.593375907939844e-08 1.1812684164169696e-08 3.593375907939844e-08 0.00018590754189062864 -2.5783279511415458e-08 1.1812684164169696e-08 -2.5783279511415458e-08 0.0001857837924035266" pbc="T T T"
Sr       1.65055590       1.16711924       2.85884728       0.00000029      -0.00000014      -0.00000077
Sr       4.95166815       3.50135799       8.57654096      -0.00000018       0.00000027       0.00000145
V       -0.00000014       0.00000004      -0.00000004      -0.00000282      -0.00000109      -0.00000335
F        1.63166639       1.15376216       5.71769418       0.00047076       0.00033289      -0.00000005
F        4.97055769       3.51471498       5.71769398      -0.00046834      -0.00033149       0.00000049
F        4.13583533       1.15376199       4.27191121      -0.00023748       0.00033581       0.00041115
F        2.46638890       3.51471544       7.16347709       0.00023729      -0.00033522      -0.00041065
F        2.46638914       3.51471534       4.27191136       0.00023608      -0.00033513       0.00040984
F        4.13583534       1.15376185       7.16347681      -0.00023521       0.00033402      -0.00040829
