9
Lattice="6.243956308522416 -4.110672898973981e-08 3.604949751904162 2.0813187913813676 5.88685847932573 3.6049496468904803 -2.2243717619844447e-08 -1.4434369860642313e-07 7.209899542335625" Properties=species:S:1:pos:R:3:forces:R:3 energy=-35.99607467651367 free_energy=-35.99607467651367 stress="-2.4034206944634207e-05 6.191966406277061e-08 -1.3299290557711174e-08 6.191966406277061e-08 -2.408590808045119e-05 1.6137047254005665e-08 -1.3299290557711174e-08 1.6137047254005665e-08 -2.411199784546625e-05" pbc="T T T"
Sr       2.08131831       1.47171447       3.60494942      -0.00000079      -0.00000142      -0.00000018
Sr       6.24395693       4.41514383      10.81485002       0.00000064       0.00000131       0.00000089
V        0.00000017       0.00000002       0.00000013      -0.00000150      -0.00000268      -0.00000058
Br       2.08416953       1.47373060       7.20989949      -0.00040468      -0.00028718       0.00000068
Br       6.24110456       4.41312722       7.20989900       0.00041026       0.00029081       0.00000045
Br       5.20187215       1.47373004       5.40989311       0.00019946      -0.00028522      -0.00034781
Br       3.12340307       4.41312855       9.00990578      -0.00020047       0.00028349       0.00034744
Br       3.12340339       4.41312856       5.40989310      -0.00020197       0.00028384      -0.00034790
Br       5.20187220       1.47372987       9.00990576       0.00019910      -0.00028287       0.00034701
