9
Lattice="5.919275258334692 -3.278088164171261e-07 3.417495169625777 1.9730914953071959 5.580746018534209 3.4174950802691817 1.115117882253122e-07 -3.0588273553439575e-08 6.834990146107419" Properties=species:S:1:pos:R:3:forces:R:3 energy=-40.310386657714844 free_energy=-40.310386657714844 stress="-1.9415603674133308e-05 -1.5316738100068505e-08 1.6545105285814543e-09 -1.5316738100068505e-08 -1.9416011127759703e-05 5.7880296111534335e-09 1.6545105285814543e-09 5.7880296111534335e-09 -1.9449165847618133e-05" pbc="T T T"
Sr       1.97309117       1.39518728       3.41749580      -0.00000066      -0.00000164      -0.00000061
Sr       5.91927581       4.18555992      10.25248536      -0.00000118      -0.00000018       0.00000118
V       -0.00000027       0.00000017      -0.00000051       0.00000285      -0.00000531       0.00000813
Cl       1.96544095       1.38977663       6.83499080      -0.00277089      -0.00195763      -0.00000001
Cl       5.92692537       4.19096852       6.83499037       0.00277501       0.00196117       0.00000165
Cl       4.93655446       1.38977697       5.11961727       0.00138589      -0.00196195      -0.00240333
Cl       2.95581263       4.19096927       8.55036277      -0.00138682       0.00196165       0.00240055
Cl       2.95581270       4.19096787       5.11961707      -0.00139013       0.00196328      -0.00240619
Cl       4.93655466       1.38977599       8.55036268       0.00138575      -0.00195945       0.00239871
