9
Lattice="7.086288722611252 -8.990224238942861e-08 4.091270818440397 2.362096188911475 6.681016967247673 4.091270761626142 9.875705804507631e-08 2.488421879714289e-10 8.182541465828512" Properties=species:S:1:pos:R:3:forces:R:3 energy=-31.67326545715332 free_energy=-31.67326545715332 stress="4.5198841689853e-05 -7.634719523252897e-09 1.3240113450052604e-09 -7.634719523252897e-09 4.5197106373962015e-05 -8.019381603219244e-09 1.3240113450052604e-09 -8.019381603219244e-09 4.521361188380979e-05" pbc="T T T"
Sr       2.36209611       1.67025453       4.09127139      -0.00000044      -0.00000030       0.00000023
Sr       7.08628894       5.01076224      12.27381216       0.00000013      -0.00000035      -0.00000051
Y        0.00000007      -0.00000015       0.00000037       0.00000067       0.00000147      -0.00000453
I        2.43152280       1.71934628       8.18254139      -0.00059144      -0.00041777      -0.00000047
I        7.01686221       4.96167070       8.18254151       0.00058977       0.00041679      -0.00000060
I        5.87052734       1.71934634       6.19703148       0.00029555      -0.00041711      -0.00051188
I        3.57785785       4.96167032      10.16805130      -0.00029671       0.00042017       0.00051442
I        3.57785756       4.96167077       6.19703133      -0.00029484       0.00041702      -0.00051115
I        5.87052716       1.71934648      10.16805127       0.00029740      -0.00041991       0.00051443
