9
Lattice="6.5425100434780195 -1.2932121932533071e-07 3.7773199551487444 2.1808365636361895 6.168337675461917 3.777319947524095 8.947650737548789e-08 5.3931186320246066e-08 7.554639755319679" Properties=species:S:1:pos:R:3:forces:R:3 energy=-36.510074615478516 free_energy=-36.510074615478516 stress="0.00011330277629895136 -2.771719520566762e-09 9.246336141188749e-09 -2.771719520566762e-09 0.00011331448331475258 5.11106101885872e-10 9.246336141188749e-09 5.11106101885872e-10 0.00011333892325637862" pbc="T T T"
Sr       2.18083653       1.54208411       3.77731931      -0.00000037      -0.00000105      -0.00000015
Sr       6.54251008       4.62625322      11.33196026       0.00000066       0.00000132       0.00000030
Y        0.00000024       0.00000014      -0.00000001      -0.00000287      -0.00000111       0.00000255
Br       2.24176356       1.58516635       7.55464004      -0.00163224      -0.00115415       0.00000102
Br       6.48158317       4.58317136       7.55463986       0.00163180       0.00115398      -0.00000089
Br       5.42162818       1.58516619       5.71874455       0.00081889      -0.00115603      -0.00141579
Br       3.30171845       4.58317155       9.39053507      -0.00081620       0.00115499       0.00141358
Br       3.30171858       4.58317105       5.71874451      -0.00081624       0.00115725      -0.00141546
Br       5.42162798       1.58516650       9.39053508       0.00081655      -0.00115532       0.00141490
