9
Lattice="5.3088539031755095 1.1255027273228163e-07 3.0650681119659233 1.7696181361158785 5.00523540712318 3.0650680040985527 -1.2316577770939514e-07 -2.1920141143305257e-07 6.1301364372612" Properties=species:S:1:pos:R:3:forces:R:3 energy=-53.055633544921875 free_energy=-53.055633544921875 stress="0.00010646834562066942 1.6283827619645308e-08 -2.6433912836409945e-09 1.6283827619645308e-08 0.0001064596654032357 9.776630172098066e-09 -2.6433912836409945e-09 9.776630172098066e-09 0.00010636497609084472" pbc="T T T"
Sr       1.76961797       1.25130892       3.06506838      -0.00000077      -0.00000050       0.00000167
Sr       5.30885389       3.75392672       9.19520509       0.00000063       0.00000165       0.00000148
Y        0.00000002       0.00000013       0.00000007      -0.00000083      -0.00000312      -0.00000623
F        1.74617933       1.23473486       6.13013629       0.00376588       0.00266153      -0.00000003
F        5.33229248       3.77050019       6.13013605      -0.00376278      -0.00266027      -0.00000061
F        4.43576445       1.23473508       4.57730322      -0.00188470       0.00266498       0.00326270
F        2.64270735       3.77050022       7.68296873       0.00188166      -0.00266021      -0.00325960
F        2.64270753       3.77050024       4.57730331       0.00188315      -0.00266504       0.00326097
F        4.43576458       1.23473488       7.68296872      -0.00188228       0.00266129      -0.00326055
