9
Lattice="6.206187773897646 1.4764103156619461e-08 3.583144228064257 2.068729302198708 5.85124992990764 3.5831441755604043 2.700395748382774e-08 -4.520915026860124e-08 7.166288409356284" Properties=species:S:1:pos:R:3:forces:R:3 energy=-41.00187683105469 free_energy=-41.00187683105469 stress="8.348441770067438e-05 -4.160627398164252e-09 6.964296916933677e-10 -4.160627398164252e-09 8.350114512722939e-05 8.118743899387937e-09 6.964296916933677e-10 8.118743899387937e-09 8.349578274646774e-05" pbc="T T T"
Sr       2.06872934       1.46281249       3.58314442      -0.00000020      -0.00000015       0.00000060
Sr       6.20618819       4.38843751      10.74943244       0.00000080       0.00000062       0.00000042
Y       -0.00000002      -0.00000011       0.00000049       0.00000011       0.00000407      -0.00001273
Cl       2.12493507       1.50255606       7.16628841      -0.00026840      -0.00018966      -0.00000060
Cl       6.14998234       4.34869402       7.16628832       0.00026551       0.00018781      -0.00000058
Cl       5.14372030       1.50255563       5.42339200       0.00013195      -0.00018695      -0.00022957
Cl       3.13119667       4.34869396       8.90918488      -0.00013494       0.00019148       0.00023377
Cl       3.13119660       4.34869411       5.42339165      -0.00013076       0.00018522      -0.00022671
Cl       5.14371993       1.50255591       8.90918460       0.00013587      -0.00019237       0.00023547
