9
Lattice="6.788740002883108 1.6199540528758788e-07 3.9194806497235724 2.262913387623621 6.400485416994964 3.919480821892046 -6.886561549797065e-08 1.6216711322315172e-07 7.838961418725898" Properties=species:S:1:pos:R:3:forces:R:3 energy=-23.688053131103516 free_energy=-23.688053131103516 stress="-4.1025239625014365e-05 -4.1085129742768345e-10 3.222045963369169e-09 -4.1085129742768345e-10 -4.103516403120011e-05 -1.9722938837674064e-09 3.222045963369169e-09 -1.9722938837674064e-09 -4.103947139810771e-05" pbc="T T T"
Sr       2.26291176       1.60012125       3.91948148       0.00000045      -0.00000103       0.00000019
Sr       6.78874110       4.80036440      11.75844159      -0.00000144       0.00000112       0.00000044
Zn       0.00000003       0.00000010      -0.00000010      -0.00000133      -0.00000050       0.00000145
I        2.27610899       1.60945229       7.83896138      -0.00069877      -0.00049343      -0.00000016
I        6.77554434       4.79103337       7.83896124       0.00070083       0.00049521       0.00000007
I        5.65068551       1.60945245       5.89064902       0.00035042      -0.00049576      -0.00060635
I        3.40096796       4.79103348       9.78727404      -0.00034929       0.00049375       0.00060495
I        3.40096793       4.79103310       5.89064884      -0.00035104       0.00049533      -0.00060544
I        5.65068568       1.60945253       9.78727406       0.00035026      -0.00049474       0.00060483
