9
Lattice="4.837102537850913 -5.4788144161092564e-08 2.792702567173928 1.6123674886460226 4.560463949803485 2.7927025192241146 7.113558315782775e-08 -8.425817256236208e-09 5.585405011137404" Properties=species:S:1:pos:R:3:forces:R:3 energy=-44.906349182128906 free_energy=-44.906349182128906 stress="0.00026972609339281917 1.3584358526941287e-08 4.656785534962182e-08 1.3584358526941287e-08 0.00026979847461916506 1.4741230458525933e-08 4.656785534962182e-08 1.4741230458525933e-08 0.000269792479230091" pbc="T T T"
Sr       1.61236775       1.14011574       2.79270280      -0.00000009       0.00000032      -0.00000062
Sr       4.83710263       3.42034788       8.37810723       0.00000006       0.00000060       0.00000140
Zn       0.00000002      -0.00000014      -0.00000004      -0.00000262       0.00000499       0.00000456
F        1.61589547       1.14261044       5.58540507      -0.00217655      -0.00153768       0.00000029
F        4.83357477       3.41785341       5.58540491       0.00217326       0.00153820       0.00000108
F        4.02915452       1.14261103       4.19210962       0.00109067      -0.00154282      -0.00189012
F        2.42031531       3.41785329       6.97870096      -0.00108459       0.00153589       0.00188041
F        2.42031526       3.41785336       4.19210911      -0.00108826       0.00153881      -0.00188328
F        4.02915471       1.14261053       6.97870081       0.00108800      -0.00153832       0.00188634
