9
Lattice="6.199199980476448 -5.598089583593551e-08 3.57910979826847 2.0663999633565977 5.844661594963911 3.579109759048346 1.4910691510236174e-08 -3.7491214112825096e-08 7.158219570710836" Properties=species:S:1:pos:R:3:forces:R:3 energy=-28.22762680053711 free_energy=-28.22762680053711 stress="-3.566696250345558e-05 1.3607057702813563e-08 3.931217129604647e-09 1.3607057702813563e-08 -3.566739542293362e-05 -8.157669539876622e-10 3.931217129604647e-09 -8.157669539876622e-10 -3.5681478038895875e-05" pbc="T T T"
Sr       2.06639995       1.46116514       3.57910917       0.00000007      -0.00000013      -0.00000001
Sr       6.19919997       4.38349623      10.73733035      -0.00000003       0.00000015       0.00000054
Zn       0.00000039       0.00000013      -0.00000008      -0.00000530       0.00000034       0.00000006
Br       2.08200462       1.47219926       7.15821944      -0.00027803      -0.00019644       0.00000088
Br       6.18359514       4.37246182       7.15821949       0.00028200       0.00020105      -0.00000007
Br       5.15819778       1.47219970       5.38217854       0.00014010      -0.00019873      -0.00024367
Br       3.10740212       4.37246205       8.93426094      -0.00013892       0.00019553       0.00023874
Br       3.10740207       4.37246220       5.38217817      -0.00013959       0.00019754      -0.00023966
Br       5.15819781       1.47219944       8.93426047       0.00013969      -0.00019933       0.00024318
