9
Lattice="5.834876394167584 -5.8165285447299326e-08 3.3687674711363895 1.9449587451089503 5.501174173403727 3.368767467859544 9.198827222956878e-08 6.103222000393635e-08 6.737534782944349" Properties=species:S:1:pos:R:3:forces:R:3 energy=-32.426109313964844 free_energy=-32.426109313964844 stress="-4.2296080209780484e-05 -1.2695132056705916e-08 2.55255039327551e-09 -1.2695132056705916e-08 -4.226346572977491e-05 -4.474312031987893e-09 2.55255039327551e-09 -4.474312031987893e-09 -4.2262679926352575e-05" pbc="T T T"
Sr       1.94495875       1.37529327       3.36876737      -0.00000018      -0.00000002      -0.00000007
Sr       5.83487640       4.12588004      10.10630230       0.00000022      -0.00000019      -0.00000025
Zn       0.00000022      -0.00000000       0.00000011      -0.00000252       0.00000185       0.00000057
Cl       1.94562630       1.37576612       6.73753570      -0.00030294      -0.00021270       0.00000110
Cl       5.83420906       4.12540800       6.73753492       0.00030166       0.00021443      -0.00000111
Cl       4.86206252       1.37576567       5.05372930       0.00015278      -0.00021552      -0.00026351
Cl       2.91777217       4.12540904       8.42133983      -0.00014974       0.00021340       0.00026076
Cl       2.91777225       4.12540820       5.05372926      -0.00015073       0.00021402      -0.00026147
Cl       4.86206328       1.37576634       8.42134004       0.00015122      -0.00021519       0.00026420
