9
Lattice="5.97407011823755 -3.304698730997314e-08 3.4491310595407745 1.9913567029841541 5.632407529393729 3.449131010936011 1.9638606625261485e-08 -4.564184459387588e-08 6.898262085066478" Properties=species:S:1:pos:R:3:forces:R:3 energy=-45.657135009765625 free_energy=-45.657135009765625 stress="-0.00013260867854114622 -1.1350854478564543e-08 1.2468676757748653e-08 -1.1350854478564543e-08 -0.00013258270337246358 4.530911645872493e-09 1.2468676757748653e-08 4.530911645872493e-09 -0.00013265320740174502" pbc="T T T"
Ta       1.99135680       1.40810319       3.44913097       0.00000139       0.00000788      -0.00000023
Ta       5.97406975       4.22430528      10.34739478      -0.00000274      -0.00000156       0.00001298
Cr      -0.00000009      -0.00000016       0.00000026      -0.00000028      -0.00000300      -0.00000822
Te       2.04060872       1.44292810       6.89826209      -0.00245607      -0.00173721      -0.00000389
Te       5.92481818       4.18947912       6.89826177       0.00245942       0.00173569      -0.00000506
Te       4.95376605       1.44292836       5.21634979       0.00122619      -0.00173246      -0.00212623
Te       3.01166090       4.18947864       8.58017369      -0.00123291       0.00173984       0.00213174
Te       3.01166162       4.18947895       5.21634976      -0.00122643       0.00173301      -0.00213214
Te       4.95376547       1.44292833       8.58017349       0.00123158      -0.00174204       0.00213139
