9
Lattice="5.196322737507987 1.1793366661238124e-07 3.000098296326348 1.7321076351010105 4.89914028247527 3.000098392034671 -4.0391641290684545e-08 8.865705405876167e-08 6.000196662613091" Properties=species:S:1:pos:R:3:forces:R:3 energy=-53.29631805419922 free_energy=-53.29631805419922 stress="0.00010725550964707509 6.615363190576318e-08 -2.9356685971038132e-08 6.615363190576318e-08 0.00010721317812567577 5.074408093719285e-08 -2.9356685971038132e-08 5.074408093719285e-08 0.00010735819523688406" pbc="T T T"
Ta       1.73210895       1.22478522       3.00009879       0.00002874       0.00000314       0.00000461
Ta       5.19632050       3.67435375       9.00029429      -0.00003301      -0.00002182      -0.00000743
Cr      -0.00000092      -0.00000019       0.00000074       0.00001410       0.00000142      -0.00001037
S        1.84546664       1.30494257       6.00019663       0.00445813       0.00315058      -0.00000412
S        5.08296459       3.59419969       6.00019741      -0.00448239      -0.00316584      -0.00000096
S        4.27358963       1.30494210       4.59831755      -0.00223869       0.00317800       0.00387734
S        2.65484140       3.59419804       7.40207447       0.00223431      -0.00314629      -0.00385815
S        2.65484085       3.59419839       4.59831821       0.00224873      -0.00316405       0.00386912
S        4.27358963       1.30494260       7.40207518      -0.00222987       0.00316435      -0.00387073
