9
Lattice="5.548882525936028 2.8126248913380422e-08 3.2036487353055008 1.8496275203552806 5.231536621859727 3.2036487609533366 -8.144947441826844e-09 2.5652649439207033e-08 6.407297484718506" Properties=species:S:1:pos:R:3:forces:R:3 energy=-45.75439453125 free_energy=-45.75439453125 stress="0.00014159658167045563 -4.290634958437067e-09 3.810439963558565e-09 -4.290634958437067e-09 0.00014161161379888654 -9.431599501397159e-09 3.810439963558565e-09 -9.431599501397159e-09 0.0001416110753780231" pbc="T T T"
Ta       1.84962676       1.30788418       3.20364707      -0.00000986      -0.00000015      -0.00001998
Ta       5.54888242       3.92365156       9.61094653      -0.00000107      -0.00000803       0.00000364
Co      -0.00000017       0.00000015      -0.00000003       0.00000086       0.00000216      -0.00000102
Se       1.87819000       1.32808100       6.40729838      -0.00262225      -0.00185266       0.00001135
Se       5.52032020       3.90345590       6.40729692       0.00262129       0.00185350      -0.00000484
Se       4.60978807       1.32808096       4.83020923       0.00131537      -0.00185174      -0.00226969
Se       2.78872299       3.90345580       7.98438639      -0.00130694       0.00185254       0.00227404
Se       2.78872209       3.90345600       4.83020923      -0.00131300       0.00185564      -0.00226665
Se       4.60978782       1.32808125       7.98438620       0.00131524      -0.00185120       0.00227305
