9
Lattice="4.197426724060967 5.294582068019641e-08 2.4233854836858097 1.3991422740365542 3.9573720757644244 2.4233855135375335 -8.645275477794261e-09 3.044761056367777e-08 4.846770982345668" Properties=species:S:1:pos:R:3:forces:R:3 energy=-70.59025573730469 free_energy=-70.59025573730469 stress="1.8581746189738624e-05 -5.307446926394732e-08 2.2209542649420655e-08 -5.307446926394732e-08 1.872441680461634e-05 1.211959670399665e-07 2.2209542649420655e-08 1.211959670399665e-07 1.8502536477171816e-05" pbc="T T T"
Ta       1.39914210       0.98934274       2.42338567      -0.00000106      -0.00000304       0.00000280
Ta       4.19742709       2.96802920       7.27015657       0.00000878      -0.00000244      -0.00000070
Cr       0.00000020      -0.00000000       0.00000025      -0.00000696      -0.00000763      -0.00000708
O        1.48503551       1.05007898       4.84677097      -0.00085580      -0.00060511      -0.00000084
O        4.11153332       2.90729313       4.84677113       0.00086734       0.00061229      -0.00000034
O        3.45490878       1.05007893       3.70946392       0.00042684      -0.00060666      -0.00074205
O        2.14166008       2.90729345       5.98407768      -0.00043477       0.00061408       0.00074857
O        2.14166006       2.90729338       3.70946403      -0.00042821       0.00060618      -0.00074124
O        3.45490882       1.05007879       5.98407779       0.00042328      -0.00060788       0.00074071
