9
Lattice="5.561246123693041 1.2866017156166298e-08 3.2107869594330016 1.853748703797065 5.243193238873891 3.210786987545584 -3.0621227768216534e-08 1.2778264049075527e-08 6.421573971903528" Properties=species:S:1:pos:R:3:forces:R:3 energy=-48.979637145996094 free_energy=-48.979637145996094 stress="8.954991062637419e-05 -2.539358767705835e-08 1.1918756648299222e-08 -2.539358767705835e-08 8.950707706389949e-05 7.229933984831405e-09 1.1918756648299222e-08 7.229933984831405e-09 8.957454701885581e-05" pbc="T T T"
Ta       1.85375002       1.31079724       3.21078569       0.00001136      -0.00001164      -0.00001223
Ta       5.56124619       3.93239489       9.63236274       0.00000222       0.00000140       0.00001481
Cr      -0.00000013      -0.00000001      -0.00000009       0.00000038       0.00000039      -0.00000594
Se       1.89800649       1.34209375       6.42157386      -0.00091349      -0.00064096      -0.00000313
Se       5.51698772       3.90110027       6.42157366       0.00090942       0.00064935      -0.00000193
Se       4.61224268       1.34209340       4.85450903       0.00045371      -0.00064364      -0.00078979
Se       2.80275161       3.90109933       7.98863882      -0.00046462       0.00064655       0.00078925
Se       2.80275269       3.90110062       4.85450907      -0.00045120       0.00064953      -0.00078729
Se       4.61224190       1.34209361       7.98863890       0.00045221      -0.00065090       0.00079587
