9
Lattice="5.6211404855175475 1.7253156292691867e-08 3.2453669575065613 1.873713523696482 5.299662040019813 3.245366936275906 2.9460631694932058e-08 -5.170345023129362e-09 6.490733863985838" Properties=species:S:1:pos:R:3:forces:R:3 energy=-46.639808654785156 free_energy=-46.639808654785156 stress="1.8535341951064765e-05 -2.6039126410637436e-08 -2.0817626733560246e-08 -2.6039126410637436e-08 1.857563438534271e-05 2.411436739180317e-08 -2.0817626733560246e-08 2.411436739180317e-08 1.8537086361902766e-05" pbc="T T T"
Ta       1.87371244       1.32491275       3.24536577      -0.00001314      -0.00003242      -0.00001112
Ta       5.62114072       3.97474689       9.73610191       0.00000443       0.00000575       0.00001303
Fe       0.00000014       0.00000009       0.00000027       0.00000307       0.00000166      -0.00000440
Se       1.89015000       1.33653806       6.49073404       0.00035048       0.00024924       0.00000319
Se       5.60470389       3.96312467       6.49073368      -0.00035584      -0.00024506      -0.00000479
Se       4.67606582       1.33653779       4.88228527      -0.00017098       0.00025037       0.00030929
Se       2.81878867       3.96312484       8.09918216       0.00017378      -0.00023791      -0.00030899
Se       2.81878918       3.96312533       4.88228531       0.00018370      -0.00023854       0.00030911
Se       4.67606532       1.33653780       8.09918265      -0.00017574       0.00024697      -0.00030565
