9
Lattice="5.878193848575392 -5.377811905581663e-08 3.3937766947387384 1.959397889487989 5.542014359433727 3.393776710906824 -4.4756169456280765e-10 1.948533325861353e-08 6.787553390252643" Properties=species:S:1:pos:R:3:forces:R:3 energy=-45.08456802368164 free_energy=-45.08456802368164 stress="-0.0002832864411175251 5.203638764328389e-08 1.1031231927915996e-08 5.203638764328389e-08 -0.0002832867612596601 5.355049026434244e-08 1.1031231927915996e-08 5.355049026434244e-08 -0.0002832974132616073" pbc="T T T"
Ta       1.95939817       1.38550244       3.39377613       0.00000131      -0.00000217      -0.00000354
Ta       5.87819334       4.15651080      10.18132834      -0.00000078       0.00000394      -0.00000738
Fe      -0.00000011      -0.00000002       0.00000019       0.00000282       0.00000485       0.00000031
Te       1.97256788       1.39481647       6.78755339      -0.00281797      -0.00199588      -0.00000120
Te       5.86502434       4.14719823       6.78755403       0.00281040       0.00198546       0.00000285
Te       4.89190985       1.39481588       5.10207090       0.00140741      -0.00199172      -0.00243950
Te       2.94568199       4.14719842       8.47303655      -0.00140408       0.00199148       0.00243770
Te       2.94568182       4.14719869       5.10207099      -0.00140455       0.00199553      -0.00243238
Te       4.89190965       1.39481637       8.47303668       0.00140561      -0.00199161       0.00244300
