9
Lattice="5.011634232061539 5.315783816436724e-08 2.8934680854971164 1.6705447531081978 4.725014208188034 2.893468156563154 1.1796869205368512e-07 1.7045423093613686e-07 5.786935966666494" Properties=species:S:1:pos:R:3:forces:R:3 energy=-51.485809326171875 free_energy=-51.485809326171875 stress="0.00027233469882048666 -4.1777088455319245e-09 -9.450353388729127e-08 -4.1777088455319245e-09 0.00027249776758253574 -2.2357598439270987e-08 -9.450353388729127e-08 -2.2357598439270987e-08 0.00027250812854617834" pbc="T T T"
Ta       1.67054524       1.18125596       2.89347040       0.00000296       0.00003613       0.00003809
Ta       5.01163426       3.54376038       8.68040179       0.00000066      -0.00000770      -0.00002919
Fe      -0.00000008      -0.00000173      -0.00000177      -0.00000032      -0.00003783      -0.00003429
S        1.77001644       1.25159287       5.78693501      -0.00560462      -0.00394428      -0.00000731
S        4.91216196       3.47342192       5.78693806       0.00560737       0.00395131       0.00002042
S        4.12662527       1.25159093       4.42634828       0.00279367      -0.00396287      -0.00484037
S        2.55555340       3.47342309       7.14752479      -0.00279844       0.00395668       0.00485170
S        2.55555473       3.47342329       4.42634778      -0.00278789       0.00396526      -0.00484872
S        4.12662485       1.25159121       7.14752467       0.00278556      -0.00395596       0.00485003
