9
Lattice="4.192671938065918 -4.676512857255925e-08 2.42064031065748 1.397557263749967 3.9528889711401023 2.420640319054597 -5.291108368734651e-08 -2.7129465078891054e-08 4.841280712959637" Properties=species:S:1:pos:R:3:forces:R:3 energy=-66.99069213867188 free_energy=-66.99069213867188 stress="4.2921354179270566e-05 1.875066679701831e-08 -1.6000092273316113e-07 1.875066679701831e-08 4.297778650652617e-05 -1.0738680344957174e-07 -1.6000092273316113e-07 -1.0738680344957174e-07 4.3157098843948916e-05" pbc="T T T"
Ta       1.39755756       0.98822317       2.42063912       0.00000287       0.00001027      -0.00001171
Ta       4.19267174       2.96466637       7.26192241      -0.00000194      -0.00000405       0.00001852
Fe      -0.00000016      -0.00000021       0.00000034       0.00000091       0.00000472      -0.00000837
O        1.45771428       1.03075969       4.84128158       0.00176875       0.00125037       0.00001612
O        4.13251488       2.92212872       4.84127954      -0.00176349      -0.00125454      -0.00001657
O        3.46381427       1.03075940       3.68305803      -0.00089002       0.00124560       0.00153003
O        2.12641483       2.92212944       5.99950302       0.00088443      -0.00124998      -0.00152795
O        2.12641423       2.92212910       3.68305783       0.00088278      -0.00125545       0.00153091
O        3.46381490       1.03075987       5.99950341      -0.00088343       0.00125329      -0.00153084
