9
Lattice="6.10855170289567 9.5125385165371e-09 3.5267740711050517 2.0361838851000797 5.7591979700143465 3.526774114118232 1.4838943687967712e-08 6.31728713431489e-08 7.05354811650829" Properties=species:S:1:pos:R:3:forces:R:3 energy=-38.93450927734375 free_energy=-38.93450927734375 stress="0.0001230104244314134 1.0966498820152992e-09 2.6766285188273287e-08 1.0966498820152992e-09 0.00012298999354243279 -1.0362717794976106e-08 2.6766285188273287e-08 -1.0362717794976106e-08 0.0001229945191880688" pbc="T T T"
Ta       2.03618428       1.43979989       3.52677367       0.00000373       0.00000329      -0.00000191
Ta       6.10855172       4.31939802      10.58032158      -0.00000048      -0.00000628      -0.00000909
Ge       0.00000019      -0.00000006       0.00000006       0.00000017      -0.00000263      -0.00000030
Te       2.14348986       1.51567686       7.05354809      -0.00389143      -0.00274750       0.00000013
Te       6.00124542       4.24352124       7.05354834       0.00389250       0.00274879       0.00000156
Te       5.03680645       1.51567619       5.38309114       0.00194187      -0.00274955      -0.00336652
Te       3.10792916       4.24352173       8.72400524      -0.00194338       0.00274977       0.00337136
Te       3.10792900       4.24352150       5.38309122      -0.00194543       0.00275232      -0.00336934
Te       5.03680627       1.51567682       8.72400585       0.00194255      -0.00274834       0.00337408
