9
Lattice="4.20513321923688 -2.1387398559850085e-08 2.4278348248365305 1.4017110555120385 3.9646376601120896 2.4278348203378677 -1.0101275480575676e-08 -1.2652395580998072e-08 4.855669667168963" Properties=species:S:1:pos:R:3:forces:R:3 energy=-68.69982147216797 free_energy=-68.69982147216797 stress="-3.774002107093111e-05 1.350864486937553e-08 -8.294510678297229e-08 1.350864486937553e-08 -3.7631121813319623e-05 -7.479451369363233e-08 -8.294510678297229e-08 -7.479451369363233e-08 -3.780568658839911e-05" pbc="T T T"
Ta       1.40171139       0.99115914       2.42783461       0.00000516      -0.00000233      -0.00000299
Ta       4.20513338       2.97347827       7.28350483       0.00000063       0.00000012       0.00000507
Ge      -0.00000014       0.00000009       0.00000015      -0.00000235      -0.00000052      -0.00000467
O        1.46931381       1.03896173       4.85566954      -0.00058329      -0.00041080       0.00000251
O        4.13753047       2.92567579       4.85566965       0.00057971       0.00041288      -0.00000277
O        3.47047617       1.03896203       3.70029789       0.00028968      -0.00040698      -0.00050223
O        2.13636802       2.92567576       6.01104148      -0.00028980       0.00040781       0.00050008
O        2.13636767       2.92567596       3.70029799      -0.00029063       0.00041312      -0.00049746
O        3.47047619       1.03896176       6.01104113       0.00029123      -0.00041324       0.00050300
