9
Lattice="5.666346619214173 3.2699788046942374e-08 3.271466646021546 1.888782231525122 5.342282795520949 3.271466655910254 -1.98666266079825e-08 -1.936668101447446e-09 6.542933326453116" Properties=species:S:1:pos:R:3:forces:R:3 energy=-42.04341125488281 free_energy=-42.04341125488281 stress="3.219015707145445e-05 2.7218566955866663e-08 2.519552388946522e-08 2.7218566955866663e-08 3.2190077035920694e-05 1.2435998897331046e-08 2.519552388946522e-08 1.2435998897331046e-08 3.2169413316296414e-05" pbc="T T T"
Ta       1.88878232       1.33557118       3.27146656       0.00000009       0.00000473      -0.00000294
Ta       5.66634583       4.00671258       9.81439859      -0.00000919       0.00000231      -0.00001381
Ge       0.00000002       0.00000014      -0.00000038      -0.00000391      -0.00000303      -0.00000064
Se       1.96011280       1.38600867       6.54293332       0.00078002       0.00054842      -0.00000055
Se       5.59501618       3.95627399       6.54293419      -0.00077552      -0.00054571       0.00000842
Se       4.68629059       1.38600846       4.96897419      -0.00038548       0.00055030       0.00067542
Se       2.86883873       3.95627365       8.11689344       0.00039329      -0.00055648      -0.00066742
Se       2.86883846       3.95627394       4.96897363       0.00038986      -0.00055028       0.00067444
Se       4.68629042       1.38600873       8.11689295      -0.00038907       0.00054997      -0.00067322
