9
Lattice="5.4424750847101375 -1.2244504352115058e-07 3.1422143440363968 1.8141582777291443 5.131214533123343 3.1422142893012017 6.741855333812215e-09 -6.226945686459259e-08 6.284428676395582" Properties=species:S:1:pos:R:3:forces:R:3 energy=-46.41300964355469 free_energy=-46.41300964355469 stress="-7.828705565771088e-05 5.10579916124243e-08 -1.843323604866498e-09 5.10579916124243e-08 -7.819801976438612e-05 2.5566489370021372e-08 -1.843323604866498e-09 2.5566489370021372e-08 -7.812647527316585e-05" pbc="T T T"
Ta       1.81416299       1.28280087       3.14221642       0.00006657      -0.00004238       0.00002681
Ta       5.44247352       3.84841263       9.42664412      -0.00002587       0.00003038       0.00001465
Ge       0.00000046      -0.00000001      -0.00000012      -0.00000574      -0.00000146      -0.00000184
S        1.85571238       1.31218613       6.28442857       0.00121254       0.00084761      -0.00000671
S        5.40092081       3.81902820       6.28442859      -0.00121200      -0.00083497      -0.00000590
S        4.51461554       1.31218659       4.74930630      -0.00064555       0.00085449       0.00101751
S        2.74201527       3.81902905       7.81954864       0.00061494      -0.00083691      -0.00104958
S        2.74201498       3.81902882       4.74930797       0.00061736      -0.00084978       0.00104630
S        4.51461739       1.31218495       7.81954871      -0.00062272       0.00083303      -0.00104105
