9
Lattice="5.476227027191344 8.370446410029411e-08 3.1617012994113707 1.825409202627252 5.163036743193084 3.1617011008385125 1.1621256820745359e-07 -1.6102640178730598e-07 6.323402397536729" Properties=species:S:1:pos:R:3:forces:R:3 energy=-50.292320251464844 free_energy=-50.292320251464844 stress="0.00020245851192157716 -2.4518740815437923e-08 2.070530413789129e-08 -2.4518740815437923e-08 0.00020226776541676372 2.2964599111219286e-08 2.070530413789129e-08 2.2964599111219286e-08 0.00020233077520970255" pbc="T T T"
Ta       1.82541322       1.29076863       3.16170132       0.00005060       0.00015143       0.00000516
Ta       5.47623296       3.87226745       9.48510207       0.00007971      -0.00015826      -0.00002443
Ir       0.00000052      -0.00000002      -0.00000005      -0.00000073      -0.00000001       0.00000175
S        1.90724343       1.34862690       6.32340177      -0.00263643      -0.00179589      -0.00000567
S        5.39439176       3.81441055       6.32340257       0.00261807       0.00182283       0.00001038
S        4.52260580       1.34862686       4.81342420       0.00131410      -0.00182146      -0.00227022
S        2.77902700       3.81441015       7.83338013      -0.00135666       0.00180829       0.00224876
S        2.77902810       3.81440656       4.81342157      -0.00135618       0.00177538      -0.00227910
S        4.52260249       1.34862979       7.83338578       0.00128716      -0.00178254       0.00231379
