9
Lattice="4.301436532898373 2.998801831815666e-08 2.483435568610444 1.4338121841320792 4.055433394792286 2.483435606323569 -2.878616238545723e-08 2.5834067659758803e-08 4.966871187079981" Properties=species:S:1:pos:R:3:forces:R:3 energy=-66.82772827148438 free_energy=-66.82772827148438 stress="0.0003731220494955778 -1.971359750996271e-07 1.5659603391782184e-08 -1.971359750996271e-07 0.00037295688525773585 -1.1070799388335217e-08 1.5659603391782184e-08 -1.1070799388335217e-08 0.00037318558315746486" pbc="T T T"
Ta       1.43381246       1.01385856       2.48343529       0.00000386       0.00000243      -0.00000710
Ta       4.30143676       3.04157443       7.45030664       0.00000799      -0.00001091      -0.00000714
Ir      -0.00000005       0.00000018      -0.00000020       0.00000938      -0.00000619       0.00000508
O        1.54571609       1.09298657       4.96687113       0.00249273       0.00176734       0.00000068
O        4.18953253       2.96244694       4.96687112      -0.00249898      -0.00176650       0.00000339
O        3.52857851       1.09298645       3.82206512      -0.00124687       0.00176483       0.00215888
O        2.20666997       2.96244687       6.11167734       0.00124189      -0.00176090      -0.00215560
O        2.20667003       2.96244710       3.82206529       0.00124130      -0.00175905       0.00215828
O        3.52857839       1.09298665       6.11167762      -0.00125176       0.00176990      -0.00215685
