9
Lattice="5.7131972153151604 -8.81607879187267e-08 3.2985158989635908 1.904399025603779 5.386453665660509 3.298515834962815 -3.385937943473226e-08 -1.0232679160823906e-07 6.597031856573321" Properties=species:S:1:pos:R:3:forces:R:3 energy=-48.581871032714844 free_energy=-48.581871032714844 stress="0.00033191125839948654 1.0619588763915999e-08 -5.136615399692346e-08 1.0619588763915999e-08 0.00033194312709383667 4.9379426769746715e-08 -5.136615399692346e-08 4.9379426769746715e-08 0.00033190706744790077" pbc="T T T"
Ta       1.90439900       1.34661238       3.29851629      -0.00000012      -0.00001074       0.00000361
Ta       5.71319702       4.03983998       9.89554405      -0.00000077      -0.00000569      -0.00004806
Mo      -0.00000012       0.00000031       0.00000023       0.00000074      -0.00000164       0.00000376
Se       1.99582359       1.41126070       6.59703244      -0.00426960      -0.00301477       0.00000323
Se       5.62177234       3.97519319       6.59703246       0.00426975       0.00302039       0.00001169
Se       4.71528474       1.41125976       5.02695059       0.00212763      -0.00302418      -0.00369084
Se       2.90231193       3.97519313       8.16711408      -0.00212751       0.00302683       0.00370774
Se       2.90231072       3.97519345       5.02695027      -0.00214016       0.00301935      -0.00369024
Se       4.71528573       1.41126091       8.16711381       0.00214016      -0.00300939       0.00369942
