9
Lattice="4.184220349929701 -1.1170160030537068e-08 2.4157608145323572 1.3947400960399587 3.944920848945409 2.415760831977481 3.893002136323183e-08 4.889351498053654e-08 4.831521561635933" Properties=species:S:1:pos:R:3:forces:R:3 energy=-70.7809066772461 free_energy=-70.7809066772461 stress="-0.00021130962704773992 -2.2051374060083617e-08 3.019358274514161e-08 -2.2051374060083617e-08 -0.00021113092952873558 -1.4374624868196406e-07 3.019358274514161e-08 -1.4374624868196406e-07 -0.0002112284564645961" pbc="T T T"
Ta       1.39474033       0.98623012       2.41576023       0.00000156      -0.00000123      -0.00000492
Ta       4.18422020       2.95869058       7.24728261       0.00000038       0.00000240       0.00000452
Mn      -0.00000014       0.00000009      -0.00000011       0.00000713      -0.00000680       0.00001287
O        1.47433951       1.04251530       4.83152160      -0.00563799      -0.00398941       0.00000022
O        4.10462108       2.90240572       4.83152160       0.00563382       0.00398672       0.00000516
O        3.44705061       1.04251580       3.69257632       0.00282253      -0.00398526      -0.00488724
O        2.13190947       2.90240530       5.97046719      -0.00281524       0.00397436       0.00488341
O        2.13191008       2.90240537       3.69257681      -0.00283055       0.00399920      -0.00489399
O        3.44705076       1.04251527       5.97046660       0.00281805      -0.00398037       0.00488032
