9
Lattice="5.1479931515324315 -1.2016084691705264e-07 2.972195437244633 1.7159976177094751 4.853574173462454 2.972195413306408 1.0525186921208645e-07 4.510608886420822e-08 5.944390692187684" Properties=species:S:1:pos:R:3:forces:R:3 energy=-52.42121124267578 free_energy=-52.42121124267578 stress="-3.4636286727618426e-05 1.4169198259139648e-08 -3.173211027274192e-09 1.4169198259139648e-08 -3.4552602301118895e-05 5.345857645444596e-10 -3.173211027274192e-09 5.345857645444596e-10 -3.473059769021347e-05" pbc="T T T"
Ta       1.71599652       1.21339100       2.97219448      -0.00002137      -0.00003782      -0.00000884
Ta       5.14799578       3.64018334       8.91658374       0.00003866       0.00004282      -0.00003000
Mn       0.00000001       0.00000067       0.00000033      -0.00000060       0.00000114       0.00000025
S        1.82946701       1.29362786       5.94439154       0.00044084       0.00030577       0.00000753
S        5.03452389       3.55994578       5.94439216      -0.00044155      -0.00030875       0.00000988
S        4.23325954       1.29362744       4.55656057      -0.00022304       0.00030607       0.00039160
S        2.63073075       3.55994605       7.33222127       0.00021452      -0.00030464      -0.00038218
S        2.63072997       3.55994636       4.55656106       0.00021201      -0.00030655       0.00039411
S        4.23325971       1.29362778       7.33222135      -0.00021929       0.00030249      -0.00038242
