9
Lattice="4.335177755678949 -3.870600709939998e-09 2.5029160025088304 1.4450592562659839 4.0872445363736745 2.5029159886139105 -1.0680418218411142e-09 -1.777295757495646e-08 5.005832006867566" Properties=species:S:1:pos:R:3:forces:R:3 energy=-69.64788055419922 free_energy=-69.64788055419922 stress="0.0002225464559160173 9.808550061052301e-08 -8.140911234022497e-08 9.808550061052301e-08 0.0002227810036856681 6.623027815066962e-08 -8.140911234022497e-08 6.623027815066962e-08 0.0002225096832262352" pbc="T T T"
Ta       1.44505912       1.02181054       2.50291529      -0.00000113      -0.00000870      -0.00001093
Ta       4.33517757       3.06543414       7.50874763      -0.00000656       0.00001241      -0.00000712
Mo      -0.00000013      -0.00000005      -0.00000003      -0.00000453      -0.00000546       0.00000043
O        1.54549454       1.09282940       5.00583218      -0.00073640      -0.00052534       0.00000232
O        4.23474237       2.99441501       5.00583219       0.00074841       0.00053069       0.00000573
O        3.56243044       1.09282952       3.84135355       0.00036809      -0.00052662      -0.00063784
O        2.21780662       2.99441470       6.17031078      -0.00036820       0.00051764       0.00064516
O        2.21780677       2.99441542       3.84135399      -0.00037042       0.00053054      -0.00063731
O        3.56243065       1.09282941       6.17031054       0.00037010      -0.00052525       0.00063935
