9
Lattice="5.603386884684699 -8.201354641386321e-08 3.2351168465255435 1.867795545919626 5.282923697056433 3.235116855160663 -3.281174882239584e-08 -1.26255942924248e-08 6.470233749882708" Properties=species:S:1:pos:R:3:forces:R:3 energy=-47.774078369140625 free_energy=-47.774078369140625 stress="6.390140333678573e-05 2.293260337182801e-08 -2.621070027686301e-09 2.293260337182801e-08 6.385200686054304e-05 -2.920196884304005e-08 -2.621070027686301e-09 -2.920196884304005e-08 6.388315523508936e-05" pbc="T T T"
Ta       1.86779628       1.32073283       3.23511595       0.00000998       0.00002230      -0.00001088
Ta       5.60338712       3.96219192       9.70535021       0.00000328      -0.00001031      -0.00000860
Mn      -0.00000023      -0.00000008      -0.00000041       0.00000088       0.00000097      -0.00000145
Se       1.91352837       1.35306876       6.47023346       0.00010359       0.00007743      -0.00000489
Se       5.55765412       3.92985446       6.47023419      -0.00010431      -0.00007695       0.00000593
Se       4.64662327       1.35306843       4.89228117      -0.00005114       0.00007629       0.00009590
Se       2.82455911       3.92985386       8.04818695       0.00004572      -0.00008515      -0.00008884
Se       2.82455972       3.92985508       4.89228077       0.00005126      -0.00007966       0.00009477
Se       4.64662193       1.35306915       8.04818749      -0.00005931       0.00007534      -0.00008178
