9
Lattice="5.942066121666805 4.255892058811391e-08 3.430653477592267 1.980688741644861 5.602233620859492 3.43065348746903 4.552939932781163e-09 1.5315923031966694e-08 6.861306947298602" Properties=species:S:1:pos:R:3:forces:R:3 energy=-45.53609848022461 free_energy=-45.53609848022461 stress="-0.0002969818015117198 2.9734602335906857e-08 1.7347247194265947e-08 2.9734602335906857e-08 -0.00029682324384339154 1.1790388221299963e-08 1.7347247194265947e-08 1.1790388221299963e-08 -0.0002968291810248047" pbc="T T T"
Ta       1.98068884       1.40055822       3.43065360      -0.00000406      -0.00000387       0.00000115
Ta       5.94206626       4.20167558      10.29196050       0.00000318       0.00000109       0.00000292
Mn       0.00000007      -0.00000007      -0.00000018       0.00000077       0.00000186      -0.00000121
Te       2.01493912       1.42477702       6.86130692      -0.00581665      -0.00411077       0.00000054
Te       5.90781589       4.17745671       6.86130693       0.00581329       0.00411177      -0.00000116
Te       4.93459659       1.42477668       5.17564181       0.00290792      -0.00411241      -0.00503841
Te       2.98815818       4.17745685       8.54697214      -0.00290659       0.00411303       0.00503369
Te       2.98815800       4.17745683       5.17564169      -0.00290576       0.00411168      -0.00503643
Te       4.93459653       1.42477690       8.54697226       0.00290783      -0.00411222       0.00503872
