9
Lattice="4.3048795199603545 -3.6088598677372424e-08 2.48542339178165 1.434959812493868 4.05867931614746 2.485423380468351 -4.970977885010043e-09 -1.7370920321811916e-08 4.970846792173286" Properties=species:S:1:pos:R:3:forces:R:3 energy=-74.73714447021484 free_energy=-74.73714447021484 stress="-0.00012219457130413502 2.3183856612263298e-08 -3.425752481689415e-08 2.3183856612263298e-08 -0.0001221826096298173 -8.197216061489598e-08 -3.425752481689415e-08 -8.197216061489598e-08 -0.00012218559277243912" pbc="T T T"
Ta       1.43495976       1.01466980       2.48542345       0.00000129      -0.00000229       0.00000185
Ta       4.30487953       3.04400962       7.45626999       0.00000147       0.00000255       0.00000098
Nb       0.00000004      -0.00000002       0.00000013      -0.00000138       0.00000242      -0.00000355
O        1.54786271       1.09450394       4.97084692      -0.00075823      -0.00054161       0.00000141
O        4.19197671       2.96417513       4.97084685       0.00075835       0.00053871      -0.00000178
O        3.53094819       1.09450414       3.82591162       0.00037254      -0.00053246      -0.00065026
O        2.20889094       2.96417523       6.11578181      -0.00037739       0.00053386       0.00065058
O        2.20889094       2.96417510       3.82591172      -0.00038011       0.00053300      -0.00065324
O        3.53094831       1.09450410       6.11578162       0.00038329      -0.00053370       0.00065386
