9
Lattice="4.250282124271559 6.458939497374534e-08 2.45390146673134 1.416760715249986 4.007204441860903 2.453901559804839 -1.1316222234911357e-07 3.3973511416092114e-08 4.907803129465393" Properties=species:S:1:pos:R:3:forces:R:3 energy=-63.556190490722656 free_energy=-63.556190490722656 stress="-7.216547965072095e-05 -1.1906755048585183e-07 1.047196818149132e-07 -1.1906755048585183e-07 -7.196180376922712e-05 1.2367407009605813e-07 1.047196818149132e-07 1.2367407009605813e-07 -7.189299503806978e-05" pbc="T T T"
Ta       1.41676045       1.00180081       2.45390347      -0.00000204      -0.00000485       0.00003763
Ta       4.25028214       3.00540327       7.36170359       0.00000491      -0.00000287      -0.00001728
Ni       0.00000011       0.00000023      -0.00000007       0.00000080      -0.00001486      -0.00000357
O        1.43016983       1.01128255       4.90780312       0.00784984       0.00554363      -0.00000307
O        4.23687283       2.99592212       4.90780325      -0.00784580      -0.00553677       0.00000329
O        3.53519696       1.01128288       3.69246510      -0.00392218       0.00554141       0.00679199
O        2.13184511       2.99592228       6.12314046       0.00391402      -0.00553028      -0.00679746
O        2.13184550       2.99592075       3.69246447       0.00391179      -0.00555200       0.00677697
O        3.53519792       1.01128322       6.12314118      -0.00391117       0.00555684      -0.00678799
