9
Lattice="6.190979173977032 -8.791318306510341e-09 3.5743635288812063 2.063659757493625 5.836911156750989 3.574363457653818 4.5529680884774395e-08 -5.50410331670278e-08 7.148726978902689" Properties=species:S:1:pos:R:3:forces:R:3 energy=-45.509037017822266 free_energy=-45.509037017822266 stress="8.984548185253516e-05 1.4331399178502124e-08 2.0094613972787556e-08 1.4331399178502124e-08 8.980503480415791e-05 -2.3360149370432737e-08 2.0094613972787556e-08 -2.3360149370432737e-08 8.9817593107e-05" pbc="T T T"
Ta       2.06366012       1.45922740       3.57436325       0.00000067      -0.00000091      -0.00000199
Ta       6.19097883       4.37768353      10.72309067      -0.00000116       0.00000194       0.00000506
Nb       0.00000015      -0.00000026      -0.00000013      -0.00000271       0.00000380       0.00000172
Te       2.17598976       1.53865702       7.14872687      -0.00053789      -0.00037954       0.00000022
Te       6.07864896       4.29825408       7.14872681       0.00053510       0.00038058      -0.00000138
Te       5.10298427       1.53865721       5.45882579       0.00026846      -0.00037819      -0.00046700
Te       3.15165464       4.29825405       8.83862848      -0.00026558       0.00037464       0.00046091
Te       3.15165481       4.29825436       5.45882605      -0.00026603       0.00038067      -0.00046224
Te       5.10298442       1.53865700       8.83862805       0.00026895      -0.00038290       0.00046475
