9
Lattice="5.29596271083079 -7.032665421409607e-08 3.0576255883756365 1.7653208861086216 4.993081202954757 3.057625503846398 4.757546626255976e-08 -6.988580006879887e-08 6.115251094348149" Properties=species:S:1:pos:R:3:forces:R:3 energy=-54.42710494995117 free_energy=-54.42710494995117 stress="3.4200573281850666e-05 5.3361929985840106e-08 5.2037080422451254e-08 5.3361929985840106e-08 3.4268134186277166e-05 8.148265351337614e-08 5.2037080422451254e-08 8.148265351337614e-08 3.433419260545634e-05" pbc="T T T"
Ta       1.76532265       1.24827109       3.05762823       0.00002175       0.00001032       0.00003357
Ta       5.29596215       3.74481104       9.17287286      -0.00000869       0.00000273      -0.00005060
Nb      -0.00000010       0.00000007       0.00000006      -0.00000292       0.00000043      -0.00000040
S        1.92630059       1.36209979       6.11525094      -0.00021011      -0.00015157      -0.00000428
S        5.13498282       3.63098112       6.11525193       0.00021100       0.00015074       0.00001239
S        4.33281206       1.36209972       4.72585095       0.00009760      -0.00015622      -0.00018322
S        2.72847126       3.63098064       7.50465168      -0.00010470       0.00014794       0.00018758
S        2.72847086       3.63098025       4.72585072      -0.00011158       0.00013983      -0.00018293
S        4.33281235       1.36210048       7.50465158       0.00010800      -0.00014377       0.00018835
