9
Lattice="5.754154638807607 -2.898617922596051e-07 3.322162692630807 1.918051293322431 5.4250688011119035 3.322162657405141 -2.959233041447984e-07 -2.523918863001483e-07 6.6443258978158495" Properties=species:S:1:pos:R:3:forces:R:3 energy=-48.769813537597656 free_energy=-48.769813537597656 stress="-4.4170479668537155e-05 -1.288239559471549e-07 5.968826854996223e-08 -1.288239559471549e-07 -4.4047104893252254e-05 3.5555942190512724e-08 5.968826854996223e-08 3.5555942190512724e-08 -4.405355502967723e-05" pbc="T T T"
Ta       1.91805204       1.35626713       3.32215645       0.00000613       0.00000170      -0.00006916
Ta       5.75415072       4.06879659       9.96649000      -0.00003525      -0.00005438       0.00001628
Nb      -0.00000039       0.00000071       0.00000125       0.00001252      -0.00000276      -0.00000150
Se       2.00744101       1.41947634       6.64432366       0.00181619       0.00129157      -0.00000444
Se       5.66476491       4.00559218       6.64432410      -0.00181500      -0.00128624      -0.00000262
Se       4.75043532       1.41947752       5.06065910      -0.00089455       0.00130519       0.00157305
Se       2.92177320       4.00558996       8.22799534       0.00090900      -0.00129137      -0.00153662
Se       2.92177343       4.00559558       5.06066137       0.00091799      -0.00125041       0.00158065
Se       4.75043192       1.41947679       8.22799367      -0.00091705       0.00128697      -0.00155592
