9
Lattice="5.55810607310222 -1.519718312515082e-08 3.2089740211881264 1.852702009743202 5.240232595827098 3.2089740217011062 -1.082679160697621e-08 -7.027428649061179e-09 6.417948061128819" Properties=species:S:1:pos:R:3:forces:R:3 energy=-44.33558654785156 free_energy=-44.33558654785156 stress="0.00014061322144698352 -1.517739889322911e-08 -3.4864498843489855e-08 -1.517739889322911e-08 0.00014061479305382818 1.4143902049568169e-08 -3.4864498843489855e-08 1.4143902049568169e-08 0.00014058532542549074" pbc="T T T"
Ta       1.85270134       1.31005745       3.20897413      -0.00000718      -0.00000805      -0.00000110
Ta       5.55810608       3.93017525       9.62692326      -0.00000002       0.00000935       0.00001587
Ni      -0.00000001      -0.00000004      -0.00000008       0.00000114       0.00000233      -0.00000339
Se       1.90757509       1.34885854       6.41794801      -0.00231040      -0.00163996       0.00000023
Se       5.50323343       3.89137349       6.41794792       0.00231242       0.00163358      -0.00000236
Se       4.60431882       1.34885956       4.86098190       0.00115904      -0.00163323      -0.00200701
Se       2.80648934       3.89137383       7.97491344      -0.00115687       0.00163919       0.00200060
Se       2.80648945       3.89137366       4.86098233      -0.00115493       0.00163794      -0.00200248
Se       4.60431873       1.34885853       7.97491354       0.00115737      -0.00164127       0.00199977
