9
Lattice="5.261628193573731 -2.720970450939602e-08 3.037802509295336 1.7538760575179773 4.9607104854328306 3.0378024769978786 3.6320883463421794e-08 -1.3873431076732658e-08 6.075604955681077" Properties=species:S:1:pos:R:3:forces:R:3 energy=-53.101619720458984 free_energy=-53.101619720458984 stress="-2.33177106565563e-05 -9.972056957963105e-09 -3.235548362567897e-08 -9.972056957963105e-09 -2.319671148143243e-05 -7.973952165230003e-08 -3.235548362567897e-08 -7.973952165230003e-08 -2.3232216335600242e-05" pbc="T T T"
Ta       1.75387670       1.24017580       3.03780193       0.00001304      -0.00002902      -0.00000921
Ta       5.26162657       3.72053579       9.11340834      -0.00002211       0.00004066       0.00001272
Os       0.00000009      -0.00000080      -0.00000003       0.00000200      -0.00000324       0.00000202
S        1.92106967       1.35840029       6.07560498      -0.00075495      -0.00054491       0.00000209
S        5.09443472       3.60231006       6.07560463       0.00075626       0.00054252      -0.00000325
S        4.30109331       1.35840084       4.70149725       0.00037754      -0.00054240      -0.00065970
S        2.71441128       3.60230945       7.44971294      -0.00037467       0.00053632       0.00066030
S        2.71441145       3.60231000       4.70149735      -0.00037640       0.00054526      -0.00065982
S        4.30109341       1.35840034       7.44971248       0.00037891      -0.00054479       0.00065494
