9
Lattice="5.4465717253422055 1.452808538803423e-07 3.144579672333787 1.8155239577612867 5.135077598966604 3.144579824162291 -1.8357300468465076e-07 5.6145462960433995e-08 6.289159662625358" Properties=species:S:1:pos:R:3:forces:R:3 energy=-48.83460235595703 free_energy=-48.83460235595703 stress="0.00019188605074305087 1.1029790414340823e-08 -4.853754731470872e-08 1.1029790414340823e-08 0.0001917725894600153 7.901261511733537e-08 -4.853754731470872e-08 7.901261511733537e-08 0.0001917745394166559" pbc="T T T"
Ta       1.81551914       1.28376903       3.14458359      -0.00007363       0.00000264       0.00006083
Ta       5.44657896       3.85130265       9.43373456       0.00010495      -0.00007658      -0.00006894
Pt       0.00000004       0.00000004       0.00000018      -0.00000373       0.00000431      -0.00000279
S        1.88504456       1.33293119       6.28915784      -0.00131315      -0.00087208      -0.00002580
S        5.37704954       3.80214877       6.28916215       0.00129277       0.00090408       0.00003488
S        4.50404935       1.33293050       4.77707747       0.00065830      -0.00090271      -0.00111610
S        2.75804517       3.80214925       7.80124015      -0.00066301       0.00092256       0.00109249
S        2.75804444       3.80214924       4.77707908      -0.00068310       0.00090796      -0.00108594
S        4.50405075       1.33293060       7.80124151       0.00068048      -0.00089002       0.00111091
