9
Lattice="4.294537022188976 -1.4726542633849873e-09 2.4794519923088987 1.4315123089892958 4.0489283770595375 2.479452044879984 -3.5091743286594724e-08 3.957255924263179e-08 4.958904045398481" Properties=species:S:1:pos:R:3:forces:R:3 energy=-62.901634216308594 free_energy=-62.901634216308594 stress="0.0009295960771851242 -5.0876629131835216e-08 -1.5481147386253724e-07 -5.0876629131835216e-08 0.0009295143536292017 4.8091980175968274e-08 -1.5481147386253724e-07 4.8091980175968274e-08 0.0009298922959715128" pbc="T T T"
Ta       1.43151282       1.01223260       2.47945179       0.00000844       0.00000900       0.00000098
Ta       4.29453627       3.03669587       7.43835638      -0.00001763      -0.00000576       0.00000752
Pt      -0.00000096       0.00000015       0.00000094       0.00007624       0.00000183      -0.00010137
O        1.54481211       1.09234691       4.95890364       0.00734836       0.00518551      -0.00000652
O        4.18123807       2.95658170       4.95890381      -0.00740194      -0.00523299      -0.00000742
O        3.52213168       1.09234675       3.81729782      -0.00369826       0.00524455       0.00641617
O        2.20391839       2.95658102       6.10050971       0.00366408      -0.00517610      -0.00633836
O        2.20391799       2.95658136       3.81729798       0.00369886      -0.00522816       0.00638551
O        3.52213078       1.09234736       6.10051026      -0.00367701       0.00520235      -0.00635633
