9
Lattice="4.26700671919364 8.007534380290517e-08 2.4635574966904223 1.4223356291256324 4.022972819666768 2.4635575303522446 6.042061763164222e-08 8.395098279989073e-08 4.927114888729251" Properties=species:S:1:pos:R:3:forces:R:3 energy=-62.62775421142578 free_energy=-62.62775421142578 stress="0.00032102534896694124 -7.64006173881171e-08 -1.3484540772878972e-07 -7.64006173881171e-08 0.0003208543930668384 -7.52484723420821e-08 -1.3484540772878972e-07 -7.52484723420821e-08 0.0003213016898371279" pbc="T T T"
Ta       1.42233549       1.00574410       2.46355705       0.00000024       0.00001109      -0.00000939
Ta       4.26700648       3.01722861       7.39067370      -0.00000503      -0.00002017       0.00002111
Pd       0.00000001      -0.00000012       0.00000002      -0.00000386       0.00000868       0.00000580
O        1.54080512       1.08951372       4.92711481       0.00233841       0.00165004       0.00000228
O        4.14853731       2.93345932       4.92711438      -0.00234163      -0.00165135      -0.00000770
O        3.49660475       1.08951448       3.79793352      -0.00115651       0.00165975       0.00201553
O        2.19273789       2.93345888       6.05629632       0.00116536      -0.00166202      -0.00202626
O        2.19273807       2.93345890       3.79793378       0.00116727      -0.00165218       0.00201893
O        3.49660453       1.08951406       6.05629614      -0.00116450       0.00165659      -0.00202066
