9
Lattice="5.094255996837445 -2.8447161400392275e-07 2.941170134943336 1.6980850844534157 4.802909988537103 2.9411700996498595 -3.6271292304229824e-08 -6.887317789576649e-08 5.882340332710392" Properties=species:S:1:pos:R:3:forces:R:3 energy=-48.62717819213867 free_energy=-48.62717819213867 stress="5.426680218079127e-06 7.78070230467165e-08 -4.096558114952131e-08 7.78070230467165e-08 5.713242444471689e-06 -2.2088483930815528e-08 -4.096558114952131e-08 -2.2088483930815528e-08 6.187263807078125e-06" pbc="T T T"
Ta       1.69808889       1.20072501       2.94116910       0.00005421      -0.00002698      -0.00001478
Ta       5.09425056       3.60218317       8.82351197      -0.00006453       0.00001819       0.00002113
P       -0.00000017      -0.00000018       0.00000017       0.00000612       0.00000617      -0.00000150
S        1.77609490       1.25588772       5.88234010       0.00077564       0.00054044       0.00000008
S        5.01624661       3.54702244       5.88233992      -0.00078660      -0.00054806      -0.00000247
S        4.20620846       1.25588844       4.47931220      -0.00038972       0.00055164       0.00066489
S        2.58613309       3.54702178       7.28536810       0.00039554      -0.00054723      -0.00066572
S        2.58613382       3.54702226       4.47931245       0.00040206      -0.00054288       0.00066727
S        4.20620805       1.25588767       7.28536809      -0.00039324       0.00054866      -0.00066876
