9
Lattice="5.401738316499201 -3.580798163809036e-08 3.118695146077302 1.8005794573103617 5.09280771021142 3.1186950555994892 8.283178354074974e-08 -5.2241302668924856e-08 6.237390148685762" Properties=species:S:1:pos:R:3:forces:R:3 energy=-46.62668228149414 free_energy=-46.62668228149414 stress="0.00014132389333099127 1.2667655369114073e-08 3.204518606025886e-08 1.2667655369114073e-08 0.00014128483599051833 3.867750919539503e-08 3.204518606025886e-08 3.867750919539503e-08 0.00014131217903923243" pbc="T T T"
Ta       1.80057840       1.27320204       3.11869703      -0.00001423       0.00000529       0.00002907
Ta       5.40173888       3.81960509       9.35608183       0.00000612      -0.00000922      -0.00004692
Pd       0.00000012       0.00000000       0.00000020       0.00000412      -0.00000318       0.00000714
S        1.92924855       1.36418460       6.23738971      -0.00092912      -0.00065613      -0.00000982
S        5.27306929       3.72862306       6.23739134       0.00092936       0.00065565       0.00001705
S        4.43711414       1.36418438       4.78947356       0.00046498      -0.00065982      -0.00079870
S        2.76520400       3.72862323       7.68530692      -0.00045973       0.00065821       0.00080383
S        2.76520331       3.72862278       4.78947341      -0.00047469       0.00065404      -0.00080454
S        4.43711489       1.36418525       7.68530734       0.00047326      -0.00064492       0.00080228
