9
Lattice="5.720807045828961 -5.1843901886652075e-08 3.3029094860779407 1.9069356209248383 5.393628520551363 3.3029095071037666 3.159354149091751e-08 4.809127663402709e-08 6.605818917434245" Properties=species:S:1:pos:R:3:forces:R:3 energy=-44.89866256713867 free_energy=-44.89866256713867 stress="0.00016159980441443622 -2.4508581830673393e-08 -2.2016720890860597e-08 -2.4508581830673393e-08 0.0001616105728317052 -1.2345581446027154e-08 -2.2016720890860597e-08 -1.2345581446027154e-08 0.0001615859364392236" pbc="T T T"
Ta       1.90693393       1.34840787       3.30290916      -0.00002134       0.00000734      -0.00000721
Ta       5.72080828       4.04522160       9.90873041       0.00001605       0.00000262       0.00002509
Pt       0.00000005       0.00000015       0.00000022       0.00000428      -0.00000554      -0.00000095
Se       1.96485623       1.38936293       6.60581879       0.00170684       0.00120798      -0.00000089
Se       5.66288711       4.00426469       6.60581810      -0.00170112      -0.00121433      -0.00000957
Se       4.73837925       1.38936322       5.00452463      -0.00084820       0.00121078       0.00147945
Se       2.88936315       4.00426524       8.20711256       0.00084326      -0.00120628      -0.00147867
Se       2.88936366       4.00426572       5.00452512       0.00085318      -0.00120521       0.00147843
Se       4.73837918       1.38936269       8.20711253      -0.00085291       0.00120243      -0.00148565
