9
Lattice="5.400952449049363 3.1581530090063683e-08 3.1182416738564975 1.800317449193345 5.092066775295504 3.1182417840122434 -3.257745576637184e-08 1.1187690079413603e-07 6.236483404138846" Properties=species:S:1:pos:R:3:forces:R:3 energy=-43.52165222167969 free_energy=-43.52165222167969 stress="1.0627653864503372e-05 -1.689413231531489e-08 6.245112160740973e-08 -1.689413231531489e-08 1.059645728673786e-05 3.011374616335161e-08 6.245112160740973e-08 3.011374616335161e-08 1.052793777489569e-05" pbc="T T T"
Ta       1.80031484       1.27301770       3.11824407      -0.00002180       0.00000787       0.00002647
Ta       5.40095365       3.81904817       9.35471964       0.00001617      -0.00001540      -0.00004307
P       -0.00000015      -0.00000030      -0.00000010       0.00000397       0.00000485       0.00000095
Se       1.87414784       1.32522292       6.23648453      -0.00019860      -0.00013673       0.00000285
Se       5.32712259       3.76684486       6.23648498       0.00019366       0.00013560       0.00000497
Se       4.46387866       1.32522177       4.74130175       0.00009546      -0.00013742      -0.00016397
Se       2.73739149       3.76684484       7.73166567      -0.00009638       0.00014290       0.00016725
Se       2.73739085       3.76684408       4.74130111      -0.00009978       0.00013253      -0.00016719
Se       4.46387968       1.32522345       7.73166569       0.00010714      -0.00013408       0.00017226
