9
Lattice="5.318170404105072 -4.957177467561436e-08 3.0704471123200507 1.7727233899346178 5.014019057202666 3.0704471666435373 1.211811868660761e-08 7.510123210111672e-08 6.140894203650903" Properties=species:S:1:pos:R:3:forces:R:3 energy=-51.53837585449219 free_energy=-51.53837585449219 stress="7.500591163989156e-05 3.2503596258948164e-08 -2.5202155029546702e-08 3.2503596258948164e-08 7.513930177083239e-05 -1.9528133776702816e-08 -2.5202155029546702e-08 -1.9528133776702816e-08 7.510183786507696e-05" pbc="T T T"
Ta       1.77272538       1.25350329       3.07044590       0.00003057      -0.00002006      -0.00002267
Ta       5.31816658       3.76051533       9.21134529      -0.00004922       0.00001677       0.00005628
Ru       0.00000023       0.00000007      -0.00000003       0.00000141      -0.00000088      -0.00000115
S        1.91921718       1.35709069       6.14089464      -0.00064766      -0.00047052       0.00000697
S        5.17167690       3.65692837       6.14089253       0.00064969       0.00046861      -0.00002215
S        4.35856174       1.35709154       4.73253682       0.00032413      -0.00045681      -0.00057745
S        2.73233235       3.65692837       7.54925090      -0.00031829       0.00046313       0.00056863
S        2.73233297       3.65692802       4.73253713      -0.00030982       0.00046980      -0.00057566
S        4.35856160       1.35709070       7.54925081       0.00031883      -0.00047040       0.00056684
