9
Lattice="5.72796806065796 -1.1660875714626826e-08 3.307043854719583 1.9093226734398305 5.400379968791591 3.307043858966847 1.8989339456589204e-08 1.8629328279829966e-08 6.614087676548659" Properties=species:S:1:pos:R:3:forces:R:3 energy=-45.62628173828125 free_energy=-45.62628173828125 stress="7.595810984639684e-06 -1.6399496871599695e-08 -3.3994960180194767e-09 -1.6399496871599695e-08 7.602563073305646e-06 3.6760365418331276e-08 -3.3994960180194767e-09 3.6760365418331276e-08 7.621883014508057e-06" pbc="T T T"
Ta       1.90932025       1.35009668       3.30704602      -0.00002584       0.00002044       0.00002631
Ta       5.72796695       4.05028422       9.92112934      -0.00001384      -0.00001143      -0.00002664
Rh      -0.00000016       0.00000000      -0.00000000      -0.00000082      -0.00000067       0.00000405
Se       1.97909923       1.39943383       6.61408728       0.00054002       0.00037482      -0.00000620
Se       5.65819230       4.00094547       6.61408866      -0.00052816      -0.00038365       0.00001035
Se       4.73841904       1.39943487       5.02099367      -0.00025961       0.00038174       0.00046051
Se       2.89887296       4.00094536       8.20718211       0.00027424      -0.00038218      -0.00045753
Se       2.89887195       4.00094501       5.02099362       0.00026375      -0.00038370       0.00045884
Se       4.73842045       1.39943443       8.20718091      -0.00024930       0.00038484      -0.00046951
