9
Lattice="5.379395088950248 -1.9123201153288594e-07 3.1057950418483204 1.793131511613202 5.071742301540326 3.105795049483715 -1.4305049892633983e-07 -9.180058070365012e-08 6.21159033146738" Properties=species:S:1:pos:R:3:forces:R:3 energy=-49.54301071166992 free_energy=-49.54301071166992 stress="2.4101762392092496e-05 2.2754043982331495e-08 -7.499309617742256e-09 2.2754043982331495e-08 2.4147633666871116e-05 1.8164827864097788e-08 -7.499309617742256e-09 1.8164827864097788e-08 2.4111488528433256e-05" pbc="T T T"
Ta       1.79313442       1.26793703       3.10579744       0.00003807       0.00002136       0.00003878
Ta       5.37939461       3.80380611       9.31738292      -0.00000605      -0.00000853      -0.00003686
Rh      -0.00000002       0.00000016      -0.00000023       0.00000272       0.00000216       0.00000171
S        1.91847332       1.35656598       6.21158829      -0.00246632      -0.00173813      -0.00002101
S        5.25405310       3.71517634       6.21159148       0.00245881       0.00173706       0.00001734
S        4.42015694       1.35656523       4.76724146       0.00121373      -0.00174278      -0.00213945
S        2.75236776       3.71517584       7.65593944      -0.00122648       0.00172871       0.00214040
S        2.75236838       3.71517647       4.76724184      -0.00123525       0.00173533      -0.00213563
S        4.42015726       1.35656475       7.65593902       0.00122082      -0.00173527       0.00213504
