9
Lattice="4.297366559308647 -5.69991186812738e-08 2.481085773764905 1.4324554509651102 4.051596027328098 2.481085799858528 -8.415756339765167e-08 -2.7550362539735192e-08 4.962171693294994" Properties=species:S:1:pos:R:3:forces:R:3 energy=-74.10400390625 free_energy=-74.10400390625 stress="0.0005819714860990644 6.73434641385029e-08 5.4343249900057344e-08 6.73434641385029e-08 0.0005818766076117754 1.3279165500534873e-07 5.4343249900057344e-08 1.3279165500534873e-07 0.0005819025682285428" pbc="T T T"
Ta       1.43245531       1.01289934       2.48108566       0.00000079       0.00000548      -0.00000292
Ta       4.29736684       3.03869683       7.44325644       0.00000334      -0.00000404      -0.00001481
Re      -0.00000006      -0.00000012      -0.00000010      -0.00000552      -0.00000449       0.00000369
O        1.54365507       1.09152878       4.96217173      -0.00449434      -0.00317708      -0.00000117
O        4.18616695       2.96006711       4.96217211       0.00450170       0.00317976       0.00000833
O        3.52553924       1.09152883       3.81793057       0.00225011      -0.00317791      -0.00388625
O        2.20428278       2.96006706       6.10641306      -0.00224839       0.00317493       0.00389260
O        2.20428278       2.96006696       3.81793040      -0.00225030       0.00317565      -0.00389260
O        3.52553878       1.09152898       6.10641319       0.00224291      -0.00317267       0.00389281
