9
Lattice="4.282705178155516 -1.6274462686471518e-08 2.472620901322038 1.4275683820185499 4.037773121040623 2.4726208932788287 5.8800923719794533e-08 3.1727646929004347e-08 4.945241700797889" Properties=species:S:1:pos:R:3:forces:R:3 energy=-66.02462768554688 free_energy=-66.02462768554688 stress="8.434677147306502e-05 -7.365084542243494e-08 3.6440492845457584e-09 -7.365084542243494e-08 8.431176684098318e-05 1.6634666977211054e-08 3.6440492845457584e-09 1.6634666977211054e-08 8.445969433523715e-05" pbc="T T T"
Ta       1.42756861       1.00944329       2.47262052       0.00000259       0.00000003      -0.00000345
Ta       4.28270515       3.02833015       7.41786253       0.00000295       0.00000635      -0.00000564
Rh      -0.00000003       0.00000010       0.00000008      -0.00000511      -0.00000216      -0.00001035
O        1.53619542       1.08625387       4.94524168       0.00264442       0.00186151      -0.00000334
O        4.17407814       2.95151934       4.94524179      -0.00263965      -0.00185639       0.00000571
O        3.51460761       1.08625423       3.80300528      -0.00131872       0.00186455       0.00228512
O        2.19566595       2.95151839       6.08747847       0.00131184      -0.00187007      -0.00227636
O        2.19566599       2.95151896       3.80300513       0.00131729      -0.00186339       0.00228864
O        3.51460756       1.08625429       6.08747826      -0.00131598       0.00185877      -0.00227970
