9
Lattice="6.103084870381628 2.0508768804084788e-08 3.523617655300925 2.03436164530934 5.754043619899982 3.523617650948429 1.9430003681959732e-08 8.40840513896288e-09 7.047235276948098" Properties=species:S:1:pos:R:3:forces:R:3 energy=-47.67523193359375 free_energy=-47.67523193359375 stress="3.172898868797347e-05 4.211637982809435e-10 -3.751401411733468e-09 4.211637982809435e-10 3.173749428242445e-05 6.155833620624662e-09 -3.751401411733468e-09 6.155833620624662e-09 3.174142329953611e-05" pbc="T T T"
Ta       2.03436175       1.43851114       3.52361756       0.00000074       0.00000046      -0.00000130
Ta       6.10308473       4.31553257      10.57085295      -0.00000272       0.00000017       0.00000157
Re       0.00000030       0.00000015       0.00000043      -0.00000602      -0.00000344      -0.00001146
Te       2.11526484       1.49571807       7.04723540      -0.00661944      -0.00468066      -0.00000128
Te       6.02218124       4.25832515       7.04723517       0.00663054       0.00468700      -0.00000250
Te       5.04545246       1.49571827       5.35549074       0.00330775      -0.00468035      -0.00573458
Te       3.09199445       4.25832517       8.73897955      -0.00331530       0.00468783       0.00574164
Te       3.09199411       4.25832560       5.35549089      -0.00330956       0.00467750      -0.00573248
Te       5.04545224       1.49571849       8.73897961       0.00331394      -0.00468835       0.00574033
