9
Lattice="5.761540878915534 1.0419415743706185e-07 3.326427205703234 1.9205137245161144 5.432032895756163 3.326427205745252 7.152665585768989e-08 5.062844300557178e-08 6.652854287518683" Properties=species:S:1:pos:R:3:forces:R:3 energy=-50.62535858154297 free_energy=-50.62535858154297 stress="0.00018913697567768395 5.696716876002483e-09 -1.2049520492496413e-08 5.696716876002483e-09 0.00018911607912741601 2.2332812932290835e-08 -1.2049520492496413e-08 2.2332812932290835e-08 0.00018913488020189106" pbc="T T T"
Ta       1.92051497       1.35801084       3.32642830       0.00001451       0.00003021       0.00001428
Ta       5.76153881       4.07402329       9.97927952      -0.00002116      -0.00001872      -0.00002836
Re      -0.00000024       0.00000029      -0.00000033       0.00000665      -0.00000494       0.00000683
Se       1.98423163       1.40306387       6.65285423       0.00234610       0.00166029      -0.00000571
Se       5.69782329       4.02896889       6.65285542      -0.00234699      -0.00166571       0.00000996
Se       4.76942513       1.40306342       5.04482221      -0.00118065       0.00166005       0.00202987
Se       2.91262988       4.02896879       8.26088717       0.00118026      -0.00166360      -0.00202346
Se       2.91262966       4.02896872       5.04482157       0.00117436      -0.00166789       0.00202379
Se       4.76942551       1.40306408       8.26088669      -0.00117344       0.00167006      -0.00202674
