9
Lattice="5.266997646794216 -2.1918706905385853e-08 3.0409024928738932 1.7556659111257948 4.9657725862961914 3.0409024070919792 1.4798442160319554e-07 -4.201804314645001e-10 6.081804729431252" Properties=species:S:1:pos:R:3:forces:R:3 energy=-55.53204345703125 free_energy=-55.53204345703125 stress="8.052965858951211e-05 -7.326685480535389e-09 7.109763444645978e-09 -7.326685480535389e-09 8.070155308814719e-05 -7.530740475658604e-08 7.109763444645978e-09 -7.530740475658604e-08 8.053996862145141e-05" pbc="T T T"
Ta       1.75566626       1.24143962       3.04090012       0.00000052      -0.00005682      -0.00004015
Ta       5.26699959       3.72433280       9.12270989       0.00002917       0.00005676       0.00004818
Re      -0.00000014      -0.00000054       0.00000076      -0.00000025       0.00000371      -0.00000460
S        1.90871894       1.34966729       6.08180477      -0.00317025      -0.00224745       0.00000425
S        5.11394505       3.61610564       6.08180386       0.00315416       0.00224233      -0.00001373
S        4.31263849       1.34966751       4.69390108       0.00158358      -0.00224221      -0.00274134
S        2.71002440       3.61610507       7.46970803      -0.00159246       0.00224626       0.00273812
S        2.71002522       3.61610580       4.69390257      -0.00158298       0.00225866      -0.00273550
S        4.31263726       1.34966691       7.46970741       0.00157875      -0.00226176       0.00274527
