9
Lattice="5.713959208905919 1.4543331088513866e-08 3.2989559423274537 1.9046530235553323 5.387172553366408 3.2989560458894567 -8.134570309146728e-08 6.931693991229324e-08 6.5979120255497925" Properties=species:S:1:pos:R:3:forces:R:3 energy=-47.563133239746094 free_energy=-47.563133239746094 stress="0.00034682382829487324 -3.155058081460993e-08 2.1144119344285173e-08 -3.155058081460993e-08 0.0003467974893283099 -2.1345822887042232e-08 2.1144119344285173e-08 -2.1345822887042232e-08 0.0003467646602075547" pbc="T T T"
Ta       1.90465174       1.34679398       3.29895762      -0.00001872       0.00000927       0.00002102
Ta       5.71396109       4.04037864       9.89686627       0.00002449      -0.00001197      -0.00002661
Ru       0.00000009      -0.00000028      -0.00000020      -0.00000116       0.00000270       0.00000103
Se       1.97062258       1.39344113       6.59791153      -0.00027055      -0.00018272      -0.00000491
Se       5.64798937       3.99373187       6.59791217       0.00026584       0.00018680       0.00000730
Se       4.72864768       1.39344057       5.00556573       0.00013486      -0.00019142      -0.00022960
Se       2.88996413       3.99373177       8.19025858      -0.00013259       0.00018552       0.00022793
Se       2.88996311       3.99373151       5.00556599      -0.00014868       0.00018480      -0.00022554
Se       4.72864870       1.39344142       8.19025845       0.00014687      -0.00018284       0.00022924
