9
Lattice="4.08635961393116 1.1102264475501695e-07 2.359260751869148 1.3621199434535611 3.852656583462532 2.359260808212725 4.713587272727541e-08 1.0233659617705597e-07 4.718521422096555" Properties=species:S:1:pos:R:3:forces:R:3 energy=-64.51980590820312 free_energy=-64.51980590820312 stress="-0.00012310643796809018 2.3451856012712824e-09 -2.9575447646479347e-10 2.3451856012712824e-09 -0.0001233387301908806 -6.003412522659346e-08 -2.9575447646479347e-10 -6.003412522659346e-08 -0.00012333133781794459" pbc="T T T"
Ta       1.36211846       0.96316248       2.35925975      -0.00001831      -0.00002454      -0.00001061
Ta       4.08635955       2.88949571       7.07778278       0.00000288       0.00004049       0.00000403
S        0.00000053      -0.00000063       0.00000003       0.00000528       0.00000201       0.00000101
O        1.43100378       1.01187212       4.71852193      -0.00227073      -0.00161090      -0.00000116
O        4.01747618       2.84078459       4.71852145       0.00227487       0.00160420      -0.00000012
O        3.37085808       1.01187215       3.59854596       0.00113472      -0.00160789      -0.00196449
O        2.07762195       2.84078432       5.83849708      -0.00113346       0.00160333       0.00196649
O        2.07762164       2.84078445       3.59854581      -0.00113289       0.00159664      -0.00195675
O        3.37085832       1.01187202       5.83849710       0.00113790      -0.00160334       0.00196165
