9
Lattice="6.070639370855054 -1.7634126563416877e-08 3.504885287365986 2.023546436503005 5.723453712710359 3.504885293987727 -3.223888298214273e-08 -1.4686362637557128e-08 7.0097706305713405" Properties=species:S:1:pos:R:3:forces:R:3 energy=-40.08843231201172 free_energy=-40.08843231201172 stress="6.392732757376507e-05 4.11401401834155e-09 -6.553285025745481e-09 4.11401401834155e-09 6.393710646079853e-05 1.9859930588950192e-08 -6.553285025745481e-09 1.9859930588950192e-08 6.391798524418846e-05" pbc="T T T"
Ta       2.02354508       1.43086333       3.50488581      -0.00001007      -0.00000212       0.00000300
Ta       6.07063902       4.29259002      10.51465672      -0.00000119      -0.00000229       0.00000901
Si      -0.00000001       0.00000001       0.00000017       0.00000205      -0.00000214      -0.00000150
Te       2.06940948       1.46329317       7.00977043      -0.00085492      -0.00060645      -0.00000302
Te       6.02477666       4.26016039       7.00977025       0.00085883       0.00060493      -0.00000419
Te       5.03593523       1.46329350       5.29704621       0.00043286      -0.00060268      -0.00073925
Te       3.05825117       4.26016052       8.72249445      -0.00043335       0.00060992       0.00074247
Te       3.05825136       4.26016036       5.29704617      -0.00042583       0.00060542      -0.00074494
Te       5.03593511       1.46329340       8.72249462       0.00043143      -0.00060463       0.00073820
