9
Lattice="4.118055019516057 -2.3010727209205662e-08 2.3775601201325953 1.3726849951551965 3.8825394442273473 2.377560102215276 -1.109834497447505e-08 -2.9791857901619582e-08 4.755120259488095" Properties=species:S:1:pos:R:3:forces:R:3 energy=-75.47134399414062 free_energy=-75.47134399414062 stress="7.714837556704879e-05 1.4644706780586603e-08 1.1053113979642148e-08 1.4644706780586603e-08 7.728859054623172e-05 1.1161759516653547e-08 1.1053113979642148e-08 1.1161759516653547e-08 7.719934365013614e-05" pbc="T T T"
Ta       1.37268505       0.97063491       2.37756023      -0.00000200       0.00000268      -0.00000055
Ta       4.11805483       2.91190445       7.13268031      -0.00000081      -0.00000221       0.00000022
Si      -0.00000004      -0.00000001      -0.00000000       0.00000207      -0.00000222      -0.00000211
O        1.38443775       0.97894545       4.75512009      -0.00041902      -0.00029618      -0.00000178
O        4.10630229       2.90359389       4.75512028       0.00042182       0.00029689       0.00000196
O        3.42583610       0.97894535       3.57651841       0.00020590      -0.00029618      -0.00036144
O        2.06490390       2.90359408       5.93372206      -0.00020865       0.00029737       0.00036418
O        2.06490410       2.90359418       3.57651826      -0.00020722       0.00029629      -0.00036204
O        3.42583601       0.97894532       5.93372222       0.00020826      -0.00029683       0.00036180
