9
Lattice="5.368403781204749 -7.038460810282378e-08 3.0994494439311127 1.789467853909282 5.061379564287297 3.0994494557086014 1.0690926941097343e-08 2.1984045246678296e-08 6.198898869345003" Properties=species:S:1:pos:R:3:forces:R:3 energy=-49.05262756347656 free_energy=-49.05262756347656 stress="-7.144315077312058e-06 5.777335942980244e-08 -7.318085692986642e-08 5.777335942980244e-08 -7.049206942610908e-06 -4.309713830252804e-08 -7.318085692986642e-08 -4.309713830252804e-08 -6.950834176677745e-06" pbc="T T T"
Ta       1.78946215       1.26534333       3.09945824      -0.00009061      -0.00002052       0.00013357
Ta       5.36841008       3.79603347       9.29833817       0.00009547      -0.00001707      -0.00015013
Si       0.00000001      -0.00000005       0.00000041      -0.00000138      -0.00000039      -0.00000433
S        1.79445028       1.26886928       6.19889615      -0.00023115      -0.00013775      -0.00004919
S        5.36342061       3.79251155       6.19890224       0.00021905       0.00015432       0.00005877
S        4.47117838       1.26886702       4.65349104       0.00010732      -0.00018275      -0.00016725
S        2.68669283       3.79251260       7.74430642      -0.00010741       0.00018555       0.00016522
S        2.68669004       3.79251049       4.65349106      -0.00016278       0.00014639      -0.00016493
S        4.47118214       1.26887048       7.74430758       0.00017196      -0.00012833       0.00017864
