9
Lattice="5.249610056997027 -7.164182027622723e-08 3.0308636155786344 1.749869960225854 4.9493801146049705 3.0308636003861156 -4.435660325272863e-07 -3.3225549671736174e-07 6.061727999436125" Properties=species:S:1:pos:R:3:forces:R:3 energy=-42.93315124511719 free_energy=-42.93315124511719 stress="0.00015002443979028612 -8.083247138301886e-08 5.058625447418308e-07 -8.083247138301886e-08 0.00014959447435103357 3.9971703813534987e-07 5.058625447418308e-07 3.9971703813534987e-07 0.00014997484686318785" pbc="T T T"
Ta       1.74986909       1.23734794       3.03087117      -0.00001348       0.00003987       0.00011056
Ta       5.24961036       3.71203162       9.09258180       0.00000930      -0.00004346      -0.00012579
Se      -0.00000044      -0.00000046      -0.00000077       0.00000776       0.00000988       0.00001262
S        1.93285717       1.36673734       6.06172667      -0.00770009      -0.00542927      -0.00001636
S        5.06662316       3.58264230       6.06172951       0.00768983       0.00542331       0.00002221
S        4.28317849       1.36673676       4.70476868       0.00383377      -0.00545233      -0.00666898
S        2.71630035       3.58264345       7.41868802      -0.00383043       0.00544494       0.00666356
S        2.71629758       3.58264166       4.70476826      -0.00386161       0.00542659      -0.00666034
S        4.28318254       1.36673822       7.41868767       0.00386494      -0.00541943       0.00666273
