9
Lattice="4.189282112186798 -9.089144979233385e-08 2.41868307731747 1.3964273233041593 3.949692803531655 2.4186830110344584 -1.0723388058473641e-08 -8.876235463619038e-08 4.837366173208394" Properties=species:S:1:pos:R:3:forces:R:3 energy=-62.003334045410156 free_energy=-62.003334045410156 stress="0.0002651734685059637 1.9480191681964243e-08 2.781861496714555e-08 1.9480191681964243e-08 0.00026525388238951564 4.2352834128678296e-08 2.781861496714555e-08 4.2352834128678296e-08 0.0002653330739121884" pbc="T T T"
Ta       1.39642796       0.98742319       2.41868312       0.00000539      -0.00000121       0.00000044
Ta       4.18928137       2.96227013       7.25604880      -0.00000436       0.00000723      -0.00000540
Se       0.00000017      -0.00000019       0.00000025      -0.00000013      -0.00000319      -0.00000082
O        1.50746654       1.06593938       4.83736612      -0.00564146      -0.00399107      -0.00000027
O        4.07824287       2.88375300       4.83736612       0.00564194       0.00399357       0.00000245
O        3.43554892       1.06593954       3.72418731       0.00282258      -0.00399131      -0.00488567
O        2.15016050       2.88375288       5.95054512      -0.00282192       0.00398815       0.00488615
O        2.15016050       2.88375292       3.72418718      -0.00282341       0.00398791      -0.00488472
O        3.43554889       1.06593954       5.95054503       0.00282145      -0.00398982       0.00488853
