9
Lattice="5.620750162008123 -1.2880478931047744e-08 3.2451416299624833 1.8735833681424734 5.29929406932278 3.24514164217299 -7.595200564012517e-09 9.584124000559384e-09 6.490283273080252" Properties=species:S:1:pos:R:3:forces:R:3 energy=-44.33308029174805 free_energy=-44.33308029174805 stress="3.804663720075041e-05 3.557201466719562e-08 -1.3182023472779747e-08 3.557201466719562e-08 3.805129381362349e-05 1.5541954390130286e-09 -1.3182023472779747e-08 1.5541954390130286e-09 3.803590152529068e-05" pbc="T T T"
Ta       1.87358280       1.32482361       3.24514178      -0.00000493      -0.00000002       0.00000378
Ta       5.62074982       3.97447019       9.73542478      -0.00000164      -0.00000366       0.00000002
Si       0.00000009       0.00000004       0.00000007       0.00000107      -0.00000188       0.00000225
Se       1.89437679       1.33952718       6.49028319       0.00080797       0.00057462      -0.00000017
Se       5.59995663       3.95976709       6.49028321      -0.00080602      -0.00057249      -0.00000115
Se       4.67356171       1.33952663       4.88572042      -0.00040392       0.00057116       0.00070220
Se       2.82077212       3.95976750       8.09484630       0.00040750      -0.00057176      -0.00070129
Se       2.82077225       3.95976723       4.88572017       0.00040456      -0.00057079       0.00069831
Se       4.67356185       1.33952680       8.09484626      -0.00040428       0.00057490      -0.00070401
