9
Lattice="5.19777565510405 5.6197247305418084e-08 3.000937193756315 1.73259194695308 4.900509758357175 3.0009371782802483 4.231163430609477e-08 1.0964576061451195e-08 6.001874314226755" Properties=species:S:1:pos:R:3:forces:R:3 energy=-53.30976867675781 free_energy=-53.30976867675781 stress="-5.383592360885814e-05 -2.6577740896982505e-08 -1.0431882913053414e-07 -2.6577740896982505e-08 -5.393446554080583e-05 1.0310378328881598e-08 -1.0431882913053414e-07 1.0310378328881598e-08 -5.390485966927372e-05" pbc="T T T"
Ta       1.73259100       1.22512808       3.00093463      -0.00001161       0.00001032      -0.00003001
Ta       5.19777878       3.67538132       9.00281350       0.00003681      -0.00001242       0.00002386
Ti      -0.00000004       0.00000007       0.00000018       0.00000203      -0.00000204      -0.00000056
S        1.87678392       1.32708756       6.00187573      -0.00544351      -0.00384307       0.00001486
S        5.05358364       3.57342247       6.00187374       0.00543910       0.00383979      -0.00001033
S        4.25938278       1.32708717       4.62627955       0.00271222      -0.00384098      -0.00470626
S        2.67098386       3.57342276       7.37746835      -0.00272679       0.00385082       0.00471175
S        2.67098299       3.57342298       4.62628046      -0.00272468       0.00384426      -0.00470316
S        4.25938371       1.32708686       7.37746844       0.00271669      -0.00384635       0.00469989
