9
Lattice="6.108009735101833 -5.6175545591963654e-09 3.526461006888016 2.036003205047688 5.758686818035294 3.5264610669727756 -5.6252723018955024e-08 3.3811822970035334e-08 7.052922111208622" Properties=species:S:1:pos:R:3:forces:R:3 energy=-44.505950927734375 free_energy=-44.505950927734375 stress="6.1026566982036456e-05 -2.862097225886373e-08 -1.809086924708936e-08 -2.862097225886373e-08 6.103375199018046e-05 2.053686110059516e-08 -1.809086924708936e-08 2.053686110059516e-08 6.106775254011154e-05" pbc="T T T"
Ta       2.03600306       1.43967129       3.52646141      -0.00000028      -0.00000331       0.00000168
Ta       6.10800963       4.31901499      10.57938344      -0.00000006      -0.00000172       0.00000310
Ti       0.00000002       0.00000022      -0.00000021       0.00000513      -0.00000198      -0.00000321
Te       2.12870036       1.50521865       7.05292204      -0.00299826      -0.00212025       0.00000004
Te       6.01531245       4.25346846       7.05292208       0.00299601       0.00211908      -0.00000177
Te       5.04365974       1.50521847       5.36996963       0.00150073      -0.00212097      -0.00259703
Te       3.10035337       4.25346866       8.73587419      -0.00150341       0.00212751       0.00260038
Te       3.10035336       4.25346827       5.36996940      -0.00149903       0.00212170      -0.00259977
Te       5.04365952       1.50521841       8.73587475       0.00149915      -0.00211995       0.00259676
