9
Lattice="4.235098665715786 8.49421158628713e-09 2.4451354350060526 1.4116995825736014 3.992889322654192 2.445135401531419 3.058421474573255e-08 -1.93715824418653e-08 4.890270817038691" Properties=species:S:1:pos:R:3:forces:R:3 energy=-75.06027221679688 free_energy=-75.06027221679688 stress="1.8959937733598053e-05 -1.444921622351103e-07 -1.4782176549488213e-07 -1.444921622351103e-07 1.88750109373359e-05 -6.576497213472976e-08 -1.4782176549488213e-07 -6.576497213472976e-08 1.876213173090946e-05" pbc="T T T"
Ta       1.41169933       0.99822214       2.44513566      -0.00000158       0.00000037       0.00000417
Ta       4.23509893       2.99466703       7.33540634       0.00000216       0.00000181       0.00000507
Ti      -0.00000007      -0.00000001      -0.00000010       0.00000058       0.00000869      -0.00000138
O        1.50233840       1.06231328       4.89027065      -0.00033635      -0.00024158      -0.00000293
O        4.14446008       2.93057617       4.89027080       0.00031817       0.00023711      -0.00000003
O        3.48392996       1.06231346       3.74619863       0.00017354      -0.00023669      -0.00029033
O        2.16286814       2.93057590       6.03434307      -0.00016376       0.00023401       0.00027701
O        2.16286860       2.93057558       3.74619826      -0.00016358       0.00023204      -0.00028294
O        3.48392975       1.06231371       6.03434340       0.00017068      -0.00023580       0.00029308
