9
Lattice="6.01585419736595 5.3213999525431695e-08 3.47325522007775 2.005284781243401 5.671801633042638 3.473255222472391 5.440823195277874e-08 4.140524417696615e-08 6.9465103459176625" Properties=species:S:1:pos:R:3:forces:R:3 energy=-45.23615264892578 free_energy=-45.23615264892578 stress="-9.371887426823378e-05 -3.459729391863675e-09 3.577746099381329e-08 -3.459729391863675e-09 -9.367915481561795e-05 4.313917667531086e-09 3.577746099381329e-08 4.313917667531086e-09 -9.365021105622873e-05" pbc="T T T"
Ta       2.00528537       1.41795075       3.47325508       0.00000631       0.00000112       0.00000035
Ta       6.01585499       4.25385205      10.41976485       0.00000421       0.00000425      -0.00000893
V       -0.00000025      -0.00000008      -0.00000021       0.00000248      -0.00000171       0.00000537
Te       2.08545983       1.47464300       6.94651026      -0.00342183      -0.00241894       0.00000325
Te       5.93567912       4.19715862       6.94651054       0.00341783       0.00241500       0.00000219
Te       4.97312355       1.47464250       5.27931662       0.00170810      -0.00242159      -0.00295772
Te       3.04801479       4.19715881       8.61370466      -0.00170913       0.00241582       0.00296149
Te       3.04801472       4.19715853       5.27931680      -0.00171550       0.00242293      -0.00296414
Te       4.97312404       1.47464271       8.61370456       0.00170746      -0.00241686       0.00295785
