9
Lattice="5.613754604721767 -7.255371215509029e-08 3.2411027198006024 1.871251542076663 5.292698343430121 3.2411025889031544 5.5075761962272544e-08 -1.2137154711427878e-07 6.482205344207203" Properties=species:S:1:pos:R:3:forces:R:3 energy=-48.01780700683594 free_energy=-48.01780700683594 stress="0.0003451541706454009 -3.4295088990887734e-09 2.866844717175354e-08 -3.4295088990887734e-09 0.00034516124287620187 -2.555603728637834e-08 2.866844717175354e-08 -2.555603728637834e-08 0.000345155771356076" pbc="T T T"
Ta       1.87125110       1.32317517       3.24110266      -0.00000562       0.00000938       0.00000161
Ta       5.61375560       3.96952435       9.72330638       0.00001105       0.00000559      -0.00001637
V       -0.00000015      -0.00000033      -0.00000011       0.00000106       0.00000110      -0.00000184
Se       1.93826195       1.37055809       6.48220529      -0.00484756      -0.00342831       0.00000048
Se       5.54674376       3.92214049       6.48220589       0.00484267       0.00343060       0.00000627
Se       4.64462405       1.37055770       4.91968750       0.00242515      -0.00343150      -0.00419402
Se       2.84038244       3.92213960       8.04472430      -0.00242466       0.00342059       0.00420064
Se       2.84038209       3.92213947       4.91968674      -0.00242957       0.00342268      -0.00419632
Se       4.64462404       1.37055798       8.04472391       0.00242735      -0.00343001       0.00419927
