9
Lattice="4.198465138105587 -5.3399397097916034e-08 2.423984960863307 1.399488367529713 3.958350794743021 2.4239848941678903 3.699580837034254e-08 -5.5524893771022115e-08 4.847969857648008" Properties=species:S:1:pos:R:3:forces:R:3 energy=-72.04951477050781 free_energy=-72.04951477050781 stress="8.238709415309131e-05 1.1090183882345173e-08 -3.3472616678409395e-08 1.1090183882345173e-08 8.229480590671301e-05 1.0363950808667255e-09 -3.3472616678409395e-08 1.0363950808667255e-09 8.236007124651223e-05" pbc="T T T"
Ta       1.39948807       0.98958783       2.42398493      -0.00000273       0.00000205       0.00000590
Ta       4.19846518       2.96876271       7.27195504      -0.00000067      -0.00000525       0.00000477
V       -0.00000018      -0.00000017       0.00000018      -0.00000499       0.00000128       0.00000116
O        1.46023858       1.03254468       4.84796966      -0.00211712      -0.00149051      -0.00000216
O        4.13771504       2.92580595       4.84796963       0.00211754       0.00149625       0.00000080
O        3.46834595       1.03254479       3.68858856       0.00105872      -0.00149821      -0.00183250
O        2.12960779       2.92580631       6.00735118      -0.00104971       0.00148700       0.00182183
O        2.12960784       2.92580610       3.68858866      -0.00105896       0.00149822      -0.00182918
O        3.46834596       1.03254445       6.00735097       0.00105807      -0.00149127       0.00182894
