9
Lattice="5.4423643482986455 -5.5408753037533526e-08 3.1421506804127874 1.8141214488699053 5.131110146617633 3.142150590905763 2.0395535794607932e-07 3.459496512155945e-08 6.284301007564493" Properties=species:S:1:pos:R:3:forces:R:3 energy=-54.90659713745117 free_energy=-54.90659713745117 stress="-0.00011693398118950427 7.270202218023769e-08 -1.4586682084427594e-07 7.270202218023769e-08 -0.0001169148672488518 3.7819457787691135e-08 -1.4586682084427594e-07 3.7819457787691135e-08 -0.00011682097101584077" pbc="T T T"
Ta       1.81411813       1.28277743       3.14215530      -0.00005437      -0.00000416       0.00008001
Ta       5.44236765       3.84833352       9.42644732       0.00005239       0.00001604      -0.00008008
W        0.00000019      -0.00000019       0.00000013       0.00000430      -0.00000658      -0.00000219
S        1.92753263       1.36297076       6.28429989       0.00157315       0.00111139      -0.00002279
S        5.32895368       3.76813898       6.28430248      -0.00156945      -0.00111848       0.00002640
S        4.47859777       1.36297083       4.81144246      -0.00079197       0.00110066       0.00136894
S        2.77788830       3.76813946       7.75715928       0.00078872      -0.00109720      -0.00136673
S        2.77788573       3.76813891       4.81144355       0.00075659      -0.00111818       0.00137919
S        4.47859980       1.36297079       7.75715901      -0.00075930       0.00111669      -0.00138295
