9
Lattice="6.129305734922201 -6.81179498272123e-09 3.538756373033912 2.043101918062768 5.7787648265283975 3.5387563507870032 1.5516821488969064e-08 -1.627474009500462e-08 7.077512719191922" Properties=species:S:1:pos:R:3:forces:R:3 energy=-47.25514221191406 free_energy=-47.25514221191406 stress="5.149070784682408e-05 -5.251848733678344e-09 1.6105111910746928e-08 -5.251848733678344e-09 5.150001743459143e-05 -4.325312374930945e-08 1.6105111910746928e-08 -4.325312374930945e-08 5.149312346475199e-05" pbc="T T T"
Ta       2.04310150       1.44469061       3.53875661      -0.00000250      -0.00000334       0.00000209
Ta       6.12930512       4.33407447      10.61626846      -0.00000816       0.00000692      -0.00000791
W        0.00000005       0.00000033      -0.00000031      -0.00000302      -0.00000208       0.00000171
Te       2.14326587       1.51551734       7.07751283      -0.00100625      -0.00071591       0.00000145
Te       6.02914206       4.26324702       7.07751299       0.00101335       0.00071749       0.00000393
Te       5.05767288       1.51551755       5.39487909       0.00050612      -0.00071624      -0.00087471
Te       3.11473521       4.26324728       8.76014685      -0.00050048       0.00071262       0.00087336
Te       3.11473488       4.26324707       5.39487879      -0.00050597       0.00071692      -0.00087525
Te       5.05767309       1.51551754       8.76014649       0.00050690      -0.00071622       0.00087535
