9
Lattice="4.327410721180097 -1.9857393326155787e-08 2.4984317820113215 1.4424702137163934 4.079922090643972 2.4984317957902014 -5.328574993797393e-08 -2.080309273214762e-08 4.996863656316257" Properties=species:S:1:pos:R:3:forces:R:3 energy=-70.20604705810547 free_energy=-70.20604705810547 stress="-0.0006062426255084574 -9.50872092175814e-08 -7.186754658050631e-08 -9.50872092175814e-08 -0.0006061655003577471 6.479238123802133e-08 -7.186754658050631e-08 6.479238123802133e-08 -0.0006061018793843687" pbc="T T T"
Ta       1.44247030       1.01998076       2.49843173      -0.00000017       0.00000759       0.00000116
Ta       4.32741059       3.05994155       7.49529547       0.00000212       0.00000102       0.00000145
W        0.00000001      -0.00000006      -0.00000003       0.00000700       0.00000896       0.00000265
O        1.53960571       1.08866551       4.99686355       0.00038317       0.00026982      -0.00000071
O        4.23027545       2.99125643       4.99686352      -0.00039545      -0.00028051      -0.00000068
O        3.55760796       1.08866559       3.83176972      -0.00018787       0.00026727       0.00032842
O        2.21227296       2.99125628       6.16195792       0.00019254      -0.00027676      -0.00033227
O        2.21227280       2.99125630       3.83176957       0.00019300      -0.00027278       0.00033078
O        3.55760783       1.08866564       6.16195772      -0.00019386       0.00027475      -0.00033155
