9
Lattice="5.773944878846341 5.85895653923045e-08 3.3335886621522994 1.9246483291493213 5.443727335052402 3.3335886951274682 8.360912419781044e-08 9.950675354486646e-08 6.667177179489325" Properties=species:S:1:pos:R:3:forces:R:3 energy=-50.43745422363281 free_energy=-50.43745422363281 stress="0.00023522070841863751 2.61848391858166e-08 2.1230150082374166e-08 2.61848391858166e-08 0.00023521363618783653 -1.8054420181101705e-08 2.1230150082374166e-08 -1.8054420181101705e-08 0.00023527270241174847" pbc="T T T"
Ta       1.92465050       1.36092987       3.33358815       0.00002544      -0.00002410      -0.00000252
Ta       5.77394455       4.08279710      10.00076629      -0.00000590       0.00001623       0.00000836
W       -0.00000008       0.00000022       0.00000044      -0.00000442      -0.00000454       0.00000554
Se       1.99407826       1.41002560       6.66717686       0.00061479       0.00042705      -0.00000069
Se       5.70451466       4.03370159       6.66717675      -0.00061205      -0.00041713      -0.00000630
Se       4.77690526       1.41002637       5.06051089      -0.00031134       0.00042836       0.00052375
Se       2.92168732       4.03370155       8.27384336       0.00030653      -0.00043306      -0.00053138
Se       2.92168738       4.03370161       5.06051154       0.00030370      -0.00042285       0.00052953
Se       4.77690536       1.41002625       8.27384390      -0.00031671       0.00043035      -0.00052655
