9
Lattice="5.548805822008789 1.3337124311465075e-08 3.203604434581632 1.849601944514279 5.231464326536914 3.2036044497019014 -5.95987539466865e-09 1.4304198548049941e-08 6.407208879486062" Properties=species:S:1:pos:R:3:forces:R:3 energy=-34.30428695678711 free_energy=-34.30428695678711 stress="0.0004376980650704354 7.374209243238283e-09 3.611579924012176e-09 7.374209243238283e-09 0.0004376680590212345 -1.6593016738397637e-08 3.611579924012176e-09 -1.6593016738397637e-08 0.000437698676250875" pbc="T T T"
Te       1.84960181       1.30786601       3.20360453      -0.00000058      -0.00000143       0.00000120
Te       5.54880608       3.92359843       9.61081337       0.00000083       0.00000140      -0.00000043
Co       0.00000003       0.00000000       0.00000001       0.00000059      -0.00000077      -0.00000130
S        1.77570497       1.25561301       6.40720888       0.00317676       0.00224604      -0.00000086
S        5.62270275       3.97585129       6.40720890      -0.00317632      -0.00224531      -0.00000112
S        4.66095332       1.25561299       4.74140982      -0.00158926       0.00224658       0.00275186
S        2.73745439       3.97585136       8.07300788       0.00158788      -0.00224438      -0.00275004
S        2.73745434       3.97585133       4.74140982       0.00158761      -0.00224687       0.00275150
S        4.66095334       1.25561300       8.07300785      -0.00158758       0.00224471      -0.00275071
