9
Lattice="5.652177619514218 -3.046539425528843e-08 3.2632863750063197 1.8840591896946146 5.328923971302553 3.263286354372525 -4.085798297457843e-08 -5.416211501161637e-08 6.5265728207807365" Properties=species:S:1:pos:R:3:forces:R:3 energy=-35.11172103881836 free_energy=-35.11172103881836 stress="-0.0004453953879419714 4.644485684934807e-08 -2.190573233917803e-08 4.644485684934807e-08 -0.0004454112786334008 -1.8637008381006126e-08 -2.190573233917803e-08 -1.8637008381006126e-08 -0.00044539725058712065" pbc="T T T"
Te       1.88405914       1.33223178       3.26328572       0.00000016       0.00000523      -0.00000375
Te       5.65217841       3.99669385       9.78985834       0.00000252       0.00000459      -0.00000330
Cr       0.00000009       0.00000008      -0.00000031      -0.00000117      -0.00000024       0.00000398
Se       1.96151392       1.38699911       6.52657284      -0.00006893      -0.00005069       0.00000061
Se       5.57472280       3.94192408       6.52657338       0.00007185       0.00004939       0.00000092
Se       4.67142090       1.38699922       4.96200757       0.00003640      -0.00005133      -0.00005952
Se       2.86481562       3.94192434       8.09113874      -0.00003560       0.00004496       0.00006152
Se       2.86481569       3.94192404       4.96200720      -0.00003717       0.00004873      -0.00006181
Se       4.67142053       1.38699905       8.09113876       0.00003204      -0.00005076       0.00006139
