9
Lattice="4.5734090403208505 -4.2641657956495636e-08 2.640458846721171 1.5244696345603739 4.311851312369622 2.6404588559766573 3.152324096573844e-08 3.3625945516265203e-08 5.280917638842453" Properties=species:S:1:pos:R:3:forces:R:3 energy=-43.136863708496094 free_energy=-43.136863708496094 stress="1.0461072633916046e-05 -5.794366941813678e-08 1.2019373230032215e-07 -5.794366941813678e-08 1.0226835911453236e-05 1.629313004514188e-07 1.2019373230032215e-07 1.629313004514188e-07 1.0306000149284955e-05" pbc="T T T"
Te       1.52447021       1.07796109       2.64045813       0.00001078      -0.00003762      -0.00001543
Te       4.57340789       3.23388924       7.92137879      -0.00002257       0.00001484       0.00004816
Co      -0.00000004       0.00000000      -0.00000019       0.00000722      -0.00000041       0.00000253
O        1.46631971       1.03684297       5.28091809       0.00706559       0.00497991       0.00000632
O        4.63155919       3.27500828       5.28091626      -0.00706917      -0.00497696      -0.00001998
O        3.84024951       1.03684444       3.91032778      -0.00352749       0.00499740       0.00610316
O        2.25762924       3.27500748       6.65150707       0.00352830      -0.00498474      -0.00611430
O        2.25762979       3.27500843       3.91032847       0.00354350      -0.00497773       0.00611079
O        3.84024926       1.03684337       6.65150690      -0.00353593       0.00498474      -0.00612140
