9
Lattice="5.506490409663857 -2.0042260742696867e-08 3.1791738484235474 1.8354968435382326 5.191568885492844 3.1791737458636784 8.920250635895531e-08 -6.253400048034668e-08 6.358347542343884" Properties=species:S:1:pos:R:3:forces:R:3 energy=-36.50780487060547 free_energy=-36.50780487060547 stress="-6.827562901889905e-05 7.964477966027061e-09 9.88694814907376e-09 7.964477966027061e-09 -6.828834011685103e-05 -1.6137841063468272e-09 9.88694814907376e-09 -1.6137841063468272e-09 -6.836387183284387e-05" pbc="T T T"
Te       1.83549950       1.29789360       3.17917228       0.00002873       0.00001297      -0.00001654
Te       5.50649088       3.89367619       9.53752103       0.00000118      -0.00000100      -0.00000011
Cr       0.00000038      -0.00000007      -0.00000039      -0.00000368       0.00000192       0.00000591
S        1.86085966       1.31582641       6.35834816      -0.00191674      -0.00134981       0.00000634
S        5.48112729       3.87574152       6.35834768       0.00191131       0.00134948       0.00000320
S        4.57605948       1.31582669       4.79072534       0.00095017      -0.00135323      -0.00165915
S        2.76592614       3.87574286       7.92597068      -0.00095680       0.00134143       0.00165391
S        2.76592703       3.87574187       4.79072492      -0.00095580       0.00134808      -0.00165486
S        4.57605896       1.31582608       7.92597097       0.00094147      -0.00134958       0.00166157
