9
Lattice="5.461365754357567 3.956095149572975e-08 3.153121242531717 1.8204552001814451 5.149025801547848 3.1531213959386024 -1.9634571404481379e-07 4.9046918440316144e-08 6.306242825144115" Properties=species:S:1:pos:R:3:forces:R:3 energy=-31.104421615600586 free_energy=-31.104421615600586 stress="2.266973751829937e-05 -7.443830440934107e-08 -1.5815610154845672e-08 -7.443830440934107e-08 2.250578108942136e-05 -3.270208281946907e-08 -1.5815610154845672e-08 -3.270208281946907e-08 2.2489382899948396e-05" pbc="T T T"
Te       1.82045756       1.28725704       3.15312003       0.00001400       0.00000635      -0.00000745
Te       5.46136109       3.86177009       9.45936493      -0.00002705       0.00000516       0.00000700
C        0.00000776      -0.00000616      -0.00001560       0.00016421      -0.00012633      -0.00033865
S        1.63711565       1.15761587       6.30624378       0.00047529       0.00032979       0.00000850
S        5.64470266       3.99140855       6.30624255      -0.00052208      -0.00036424       0.00000146
S        4.64280387       1.15762144       4.57091167      -0.00032541       0.00045633       0.00055820
S        2.63901052       3.99141331       8.04158571       0.00018087      -0.00025225      -0.00029480
S        2.63901620       3.99140747       4.57090793       0.00027624      -0.00037974       0.00045794
S        4.64280767       1.15761584       8.04158087      -0.00023520       0.00032532      -0.00039226
