9
Lattice="5.683426615077494 7.674299660759219e-08 3.2813278575412337 1.8944755566129827 5.358386020895752 3.281327951245444 -1.2563730367001552e-07 2.592477964464672e-08 6.562655932692653" Properties=species:S:1:pos:R:3:forces:R:3 energy=-32.7758903503418 free_energy=-32.7758903503418 stress="-6.490950909210369e-05 1.023916729181451e-09 2.1543569150850317e-09 1.023916729181451e-09 -6.491501699201763e-05 -2.9832756265335547e-09 2.1543569150850317e-09 -2.9832756265335547e-09 -6.493914406746626e-05" pbc="T T T"
Te       1.89447506       1.33959676       3.28132795      -0.00000266       0.00000067       0.00000050
Te       5.68342662       4.01878998       9.84398347      -0.00000133       0.00000178      -0.00000157
Co      -0.00000016       0.00000024      -0.00000020       0.00000181      -0.00000371       0.00000134
Se       1.89272434       1.33835798       6.56265583      -0.00247787      -0.00175251       0.00000070
Se       5.68517779       4.02002780       6.56265601       0.00247915       0.00175272       0.00000056
Se       4.73706460       1.33835808       4.92047539       0.00123964      -0.00175309      -0.00214515
Se       2.84083765       4.02002803       8.20483656      -0.00123834       0.00175260       0.00214556
Se       2.84083767       4.02002771       4.92047522      -0.00123994       0.00175251      -0.00214663
Se       4.73706467       1.33835790       8.20483676       0.00123955      -0.00175104       0.00214461
