9
Lattice="4.420232276289109 -1.2574055436738641e-08 2.5520222852850956 1.4734107493589448 4.167434862800702 2.5520222810400996 6.728777670398849e-08 4.2380619127344464e-08 5.104044454024334" Properties=species:S:1:pos:R:3:forces:R:3 energy=-43.05230712890625 free_energy=-43.05230712890625 stress="7.489340350730345e-05 7.064140561396925e-08 -2.3726234132936952e-07 7.064140561396925e-08 7.470701530110091e-05 -1.2128401749578188e-07 -2.3726234132936952e-07 -1.2128401749578188e-07 7.539522630395368e-05" pbc="T T T"
Te       1.47340982       1.04185690       2.55202295      -0.00001506      -0.00003403       0.00000066
Te       4.42023242       3.12557522       7.65606401      -0.00000328      -0.00002274      -0.00004348
C        0.00000142      -0.00000179       0.00000145       0.00002744      -0.00004691       0.00003236
O        1.35328766       0.95691927       5.10404475      -0.00077581      -0.00053644       0.00000294
O        4.54035563       3.21051631       5.10404502       0.00077403       0.00055373       0.00001150
O        3.74358804       0.95691902       3.72400382       0.00038368      -0.00054049      -0.00066006
O        2.15005547       3.21051726       6.48408595      -0.00037569       0.00056744       0.00067949
O        2.15005356       3.21051741       3.72400347      -0.00040519       0.00057745      -0.00067961
O        3.74358869       0.95692026       6.48408461       0.00038922      -0.00051785       0.00065517
