9
Lattice="4.594339731442884 1.3616235302257045e-08 2.652543320904276 1.5314465729049707 4.331585122653229 2.6525433504880014 -5.431393844083698e-08 -2.173254343417305e-09 5.305086735883073" Properties=species:S:1:pos:R:3:forces:R:3 energy=-46.91419982910156 free_energy=-46.91419982910156 stress="0.0001446809183107689 -4.236591522044364e-08 1.3770649331945606e-07 -4.236591522044364e-08 0.00014463221305049956 1.908607139000651e-08 1.3770649331945606e-07 1.908607139000651e-08 0.0001447086251573637" pbc="T T T"
Te       1.53145231       1.08289447       2.65254516       0.00013237      -0.00003448       0.00004443
Te       4.59434468       3.24868888       7.95763769       0.00010862       0.00000167       0.00016956
Cr      -0.00000000       0.00000002      -0.00000003       0.00000161       0.00000252       0.00000344
O        1.50399476       1.06348698       5.30508606       0.00033832       0.00027582      -0.00001995
O        4.62178900       3.26810057       5.30508313      -0.00039929      -0.00022620      -0.00007627
O        3.84233928       1.06348653       3.95504020      -0.00023076       0.00027293       0.00026801
O        2.28344165       3.26809955       6.65512936       0.00011870      -0.00025183      -0.00036192
O        2.28344404       3.26809914       3.95504142       0.00016719      -0.00026119       0.00030065
O        3.84233931       1.06348446       6.65513050      -0.00023663       0.00022107      -0.00032827
