9
Lattice="5.610884039560626 1.246877261646137e-07 3.2394451912674254 1.8702947434372892 5.289992431995177 3.2394452847513917 -6.689018722186222e-08 6.719547146496429e-08 6.4788904983920474" Properties=species:S:1:pos:R:3:forces:R:3 energy=-35.54560852050781 free_energy=-35.54560852050781 stress="0.0002686180523596704 1.3302100754231105e-08 6.2874150330571865e-09 1.3302100754231105e-08 0.0002685533545445651 -1.2057577158941513e-08 6.2874150330571865e-09 -1.2057577158941513e-08 0.00026848167181015015" pbc="T T T"
Te       1.87029373       1.32249841       3.23944637      -0.00000380       0.00000081       0.00000826
Te       5.61088553       3.96749393       9.71833793       0.00000713      -0.00000584       0.00001414
Fe       0.00000017      -0.00000013      -0.00000057      -0.00000080       0.00000261       0.00001470
S        1.78883743       1.26490065       6.47889032      -0.00528234      -0.00372770      -0.00000026
S        5.69234114       4.02509224       6.47888943       0.00528032       0.00372839      -0.00000777
S        4.71646417       1.26489984       4.78862335       0.00263619      -0.00373271      -0.00457302
S        2.76471370       4.02509401       8.16915678      -0.00263579       0.00373149       0.00455719
S        2.76471391       4.02509277       4.78862364      -0.00263949       0.00373492      -0.00457281
S        4.71646503       1.26489894       8.16915660       0.00263886      -0.00373185       0.00455973
