9
Lattice="5.77834743043202 -1.6886909278765805e-07 3.3361299787387035 1.9261156831556612 5.447877559801072 3.33612992292692 -1.827975862439707e-07 -1.9761257454876004e-07 6.672260274092069" Properties=species:S:1:pos:R:3:forces:R:3 energy=-34.295413970947266 free_energy=-34.295413970947266 stress="8.307656389661133e-05 4.7354003385180476e-08 1.4729322650453014e-08 4.7354003385180476e-08 8.298925968119875e-05 2.336256521573432e-08 1.4729322650453014e-08 2.336256521573432e-08 8.299668115796521e-05" pbc="T T T"
Te       1.92611509       1.36196954       3.33613007      -0.00000160      -0.00000046      -0.00000257
Te       5.77834735       4.08590803      10.00839044      -0.00000087       0.00000185      -0.00000365
Fe      -0.00000024       0.00000000      -0.00000320       0.00000706       0.00000012       0.00005738
Se       1.87871603       1.32845190       6.67225964      -0.00275822      -0.00195029       0.00000014
Se       5.82574757       4.11942544       6.67226005       0.00275485       0.00194564      -0.00000041
Se       4.83898920       1.32845204       4.96314524       0.00138384      -0.00195555      -0.00239378
Se       2.86547307       4.11942615       8.38137663      -0.00136809       0.00193509       0.00237028
Se       2.86547345       4.11942465       4.96314535      -0.00138452       0.00195606      -0.00239551
Se       4.83899020       1.32845092       8.38137632       0.00136779      -0.00193241       0.00236802
