9
Lattice="4.629254735982027 -7.615385869073733e-08 2.6727014326751197 1.5430848331134124 4.364503216805792 2.6727014449415614 -7.344150921813716e-08 -3.6907741531329245e-08 5.345402992554664" Properties=species:S:1:pos:R:3:forces:R:3 energy=-42.81840515136719 free_energy=-42.81840515136719 stress="0.00025983701925724745 -2.5226047029036636e-08 -3.607051013432283e-08 -2.5226047029036636e-08 0.0002600554726086557 -4.219647564696061e-08 -3.607051013432283e-08 -4.219647564696061e-08 0.00025978341000154614" pbc="T T T"
Te       1.54308789       1.09113101       2.67270051       0.00006020       0.00010246      -0.00001852
Te       4.62925282       3.27337634       8.01810370      -0.00003487      -0.00002072      -0.00001747
Fe      -0.00000006      -0.00000006      -0.00000012       0.00000009      -0.00000155       0.00000297
O        1.50425331       1.06366750       5.34540348       0.00097635       0.00069056       0.00001126
O        4.66808671       3.30083431       5.34540302      -0.00096589      -0.00071159       0.00000631
O        3.87712718       1.06366771       3.97542249      -0.00050303       0.00069600       0.00083414
O        2.29521150       3.30083354       6.71538446       0.00048795      -0.00073212      -0.00081542
O        2.29521154       3.30083353       3.97542163       0.00048587      -0.00072777       0.00081930
O        3.87712705       1.06366846       6.71538419      -0.00050683       0.00070426      -0.00082248
