9
Lattice="5.636868264766176 1.5642753611211576e-07 3.2544471381681954 1.8789561477527938 5.314490998336129 3.2544472905607638 -6.002426647711797e-08 1.4419843106447094e-07 6.508894380301442" Properties=species:S:1:pos:R:3:forces:R:3 energy=-30.282787322998047 free_energy=-30.282787322998047 stress="0.0003926818026229739 -3.7516613815569144e-08 -6.655643858266558e-08 -3.7516613815569144e-08 0.0003926230128854513 -7.215574271413061e-08 -6.655643858266558e-08 -7.215574271413061e-08 0.0003928255464415997" pbc="T T T"
Te       1.87895737       1.32862232       3.25444731       0.00001279      -0.00000421       0.00000021
Te       5.63686810       3.98586823       9.76334029      -0.00000086       0.00000016      -0.00001365
Ge      -0.00000018       0.00000009       0.00000027       0.00000277       0.00000058      -0.00000707
S        1.89129463       1.33734836       6.50889259      -0.00616166      -0.00435469      -0.00000895
S        5.62452914       3.97714418       6.50889351       0.00615305       0.00435835      -0.00000027
S        4.69122109       1.33734727       4.89235791       0.00307725      -0.00435603      -0.00532809
S        2.82460450       3.97714228       8.12543264      -0.00307725       0.00435421       0.00534365
S        2.82460274       3.97714350       4.89235796      -0.00308205       0.00435635      -0.00532919
S        4.69122000       1.33734896       8.12543267       0.00307621      -0.00435460       0.00534335
