9
Lattice="5.998358026812285 1.6521785474842278e-06 3.4631567746284415 1.999455097656593 5.655307479050484 3.4631552775066 3.4684559661927128e-06 6.18976670058752e-07 6.9263075417147055" Properties=species:S:1:pos:R:3:forces:R:3 energy=-29.595989227294922 free_energy=-29.595989227294922 stress="-0.00019197119399905205 -5.9208145053446515e-09 -4.20457340055691e-08 -5.9208145053446515e-09 -0.00019203915144316852 -8.008817076188279e-08 -4.20457340055691e-08 -8.008817076188279e-08 -0.00019199366215616465" pbc="T T T"
Te       1.99945776       1.41381624       3.46314089       0.00000282      -0.00001520       0.00001357
Te       5.99834082       4.24145664      10.38944419       0.00000939      -0.00000444      -0.00000168
Ge       0.00000577      -0.00001777       0.00001167      -0.00000429       0.00002892      -0.00001074
Se       2.47205468       1.74801152       6.92631756      -0.00078936      -0.00054976      -0.00002394
Se       5.52577046       3.90731574       6.92631212       0.00081322       0.00058766      -0.00001403
Se       4.76234113       1.74801442       5.60401810       0.00038112      -0.00056806      -0.00068708
Se       3.23547764       3.90731240       8.24861824      -0.00042830       0.00058954       0.00067680
Se       3.23548119       3.90731607       5.60401194      -0.00040407       0.00054280      -0.00065993
Se       4.76233667       1.74801413       8.24860338       0.00041948      -0.00061155       0.00070696
