9
Lattice="4.654593395015643 1.645062437661046e-08 2.6873306849291962 1.5515311141273855 4.388392830234786 2.687330742180948 -3.3256845560367376e-08 4.66026482027369e-08 5.374661427460959" Properties=species:S:1:pos:R:3:forces:R:3 energy=-43.82657241821289 free_energy=-43.82657241821289 stress="0.00036917306715622544 -6.766404681002314e-08 -2.676478816354688e-09 -6.766404681002314e-08 0.00036914649535901845 -1.0210109202546391e-08 -2.676478816354688e-09 -1.0210109202546391e-08 0.0003692661412060261" pbc="T T T"
Te       1.55153208       1.09710000       2.68733123       0.00001966       0.00002860       0.00000873
Te       4.65459261       3.29129319       8.06199528      -0.00001350      -0.00002262       0.00006258
Ge       0.00000005       0.00000004       0.00000019       0.00000028       0.00000007      -0.00000285
O        1.51863102       1.07383447       5.37466127       0.00176358       0.00125360      -0.00000551
O        4.68749355       3.31455845       5.37465983      -0.00176573      -0.00125515      -0.00002902
O        3.89527784       1.07383554       4.00250273      -0.00088280       0.00127101       0.00150895
O        2.31084607       3.31455784       6.74681899       0.00087082      -0.00125748      -0.00152528
O        2.31084713       3.31455794       4.00250297       0.00089407      -0.00126356       0.00151014
O        3.89527741       1.07383424       6.74681889      -0.00088662       0.00124729      -0.00152838
