9
Lattice="4.7036312115388075 -3.37762188665629e-08 2.7156427947395234 1.5678770309876786 4.434626079698875 2.7156428080429342 -3.2646962426279027e-09 1.3984812309435413e-08 5.431285595133662" Properties=species:S:1:pos:R:3:forces:R:3 energy=-52.81626510620117 free_energy=-52.81626510620117 stress="0.00022969306155573577 1.1997305193744978e-07 -6.085647186182541e-08 1.1997305193744978e-07 0.0002295888407388702 -2.1474123812481594e-08 -6.085647186182541e-08 -2.1474123812481594e-08 0.00022976164473220706" pbc="T T T"
Te       1.56787656       1.10865586       2.71564277      -0.00000575      -0.00001276      -0.00000405
Te       4.70362903       3.32596879       8.14692947      -0.00004401      -0.00001504       0.00002427
Hf      -0.00000029      -0.00000020      -0.00000002       0.00000175       0.00000444       0.00001292
O        1.62579616       1.14961083       5.43128539       0.00034615       0.00023621       0.00000011
O        4.64571252       3.28501502       5.43128508      -0.00034815      -0.00024274      -0.00001166
O        3.89073369       1.14961200       4.12362293      -0.00016128       0.00025806       0.00029114
O        2.38077545       3.28501504       6.73894818       0.00018716      -0.00024673      -0.00030279
O        2.38077622       3.28501527       4.12362295       0.00019532      -0.00023547       0.00029165
O        3.89073367       1.14961161       6.73894811      -0.00017115       0.00025409      -0.00030196
