9
Lattice="5.722015422225688 -3.6859452648666495e-07 3.3036065578888727 1.9073382314550051 5.394766693078418 3.3036063762070538 5.492750421256487e-08 -1.8367420851991406e-07 6.607213020640499" Properties=species:S:1:pos:R:3:forces:R:3 energy=-36.117679595947266 free_energy=-36.117679595947266 stress="-0.0003643225645646453 -3.169337503550196e-08 8.811296225985643e-08 -3.169337503550196e-08 -0.00036432495107874274 -5.4530641335759356e-08 8.811296225985643e-08 -5.4530641335759356e-08 -0.0003642021620180458" pbc="T T T"
Te       1.90734038       1.34868848       3.30360769       0.00000648      -0.00001323       0.00000386
Te       5.72201268       4.04607731       9.91081661      -0.00000766       0.00000823      -0.00001217
Hf       0.00000062      -0.00000055       0.00000027      -0.00000608       0.00000789      -0.00000476
Se       2.12704716       1.50404704       6.60721346      -0.00634137      -0.00448957      -0.00000089
Se       5.50230689       3.89071815       6.60721466       0.00634199       0.00448781       0.00000447
Se       4.65849113       1.50404684       5.14568293       0.00316781      -0.00448678      -0.00549224
Se       2.97086235       3.89071896       8.06874277      -0.00316758       0.00448804       0.00549173
Se       2.97086215       3.89071944       5.14568290      -0.00316955       0.00448887      -0.00549284
Se       4.65849153       1.50404896       8.06874239       0.00317602      -0.00449136       0.00550279
