9
Lattice="5.586412806191199 -1.986766461160949e-08 3.225316873647317 1.8621375788749814 5.2669207286607875 3.2253168813676263 -5.692202523168452e-08 -3.0794525378923964e-08 6.450633845886489" Properties=species:S:1:pos:R:3:forces:R:3 energy=-38.64872360229492 free_energy=-38.64872360229492 stress="-3.57345343218185e-05 -5.849867434903899e-08 -1.0278281337150474e-08 -5.849867434903899e-08 -3.581856799428351e-05 -3.8756468256906373e-08 -1.0278281337150474e-08 -3.8756468256906373e-08 -3.565295264706947e-05" pbc="T T T"
Te       1.86213826       1.31673072       3.22531705       0.00000742       0.00000277       0.00000127
Te       5.58641399       3.95019071       9.67594904       0.00000987       0.00000733      -0.00001261
Hf      -0.00000010      -0.00000011       0.00000015      -0.00000206       0.00000296      -0.00000281
S        2.01301970       1.42342046       6.45063449      -0.00029520      -0.00020777       0.00000126
S        5.43552970       3.84350055       6.45063424       0.00029040       0.00020216       0.00000167
S        4.57990213       1.42341984       4.96864350       0.00014399      -0.00021034      -0.00025441
S        2.86864802       3.84350058       7.93262432      -0.00014796       0.00020867       0.00025919
S        2.86864688       3.84350007       4.96864369      -0.00015350       0.00020400      -0.00025191
S        4.57990270       1.42341991       7.93262392       0.00014706      -0.00020963       0.00025829
