9
Lattice="5.766441271902448 -1.9908883352184953e-08 3.3292564695579325 1.9221471100387715 5.436652619543719 3.3292564034370766 4.179101200884987e-08 -5.143048930678229e-08 6.658512866731716" Properties=species:S:1:pos:R:3:forces:R:3 energy=-34.849395751953125 free_energy=-34.849395751953125 stress="-0.00035144604044035077 1.8828307801754818e-08 4.811864684484135e-08 1.8828307801754818e-08 -0.000351471797330305 -4.7606416586631894e-08 4.811864684484135e-08 -4.7606416586631894e-08 -0.0003514763084240258" pbc="T T T"
Te       1.92214715       1.35916322       3.32925659       0.00000048      -0.00000110       0.00000166
Te       5.76644129       4.07748924       9.98776923       0.00000090      -0.00000055      -0.00000047
Ir      -0.00000014       0.00000002       0.00000009      -0.00000040      -0.00000053      -0.00000402
Se       2.01695205       1.42620028       6.65851279      -0.00364237      -0.00257543      -0.00000034
Se       5.67163630       4.01045245       6.65851279       0.00364281       0.00257656      -0.00000003
Se       4.75796560       1.42620024       5.07598777       0.00181872      -0.00257142      -0.00315153
Se       2.93062303       4.01045236       8.24103781      -0.00182044       0.00257365       0.00315367
Se       2.93062290       4.01045205       5.07598814      -0.00182210       0.00257526      -0.00315484
Se       4.75796551       1.42620033       8.24103776       0.00182235      -0.00257635       0.00315586
