9
Lattice="5.561792162672849 -1.2199992956994977e-07 3.2111018583706894 1.8539306284889585 5.243707746999524 3.211101819190571 -3.84330011997863e-08 -7.516190172852526e-08 6.422203783309311" Properties=species:S:1:pos:R:3:forces:R:3 energy=-36.69219970703125 free_energy=-36.69219970703125 stress="-4.2958006815752015e-05 3.318175245681232e-08 1.5092824767748425e-08 3.318175245681232e-08 -4.2872030462604016e-05 4.821331245352667e-08 1.5092824767748425e-08 4.821331245352667e-08 -4.284953320166096e-05" pbc="T T T"
Te       1.85393154       1.31092699       3.21110122       0.00000337      -0.00000068      -0.00000268
Te       5.56179155       3.93278132       9.63330268      -0.00000278       0.00000586      -0.00002431
Ir      -0.00000040       0.00000003      -0.00000066       0.00000115       0.00000114      -0.00000248
S        1.88694352       1.33427042       6.42220375      -0.00308675      -0.00218436       0.00000135
S        5.52877898       3.90943705       6.42220490       0.00308508       0.00218123       0.00000932
S        4.61831996       1.33426954       4.84524334       0.00154036      -0.00218776      -0.00266844
S        2.79740338       3.90943684       7.99916565      -0.00153777       0.00218004       0.00267857
S        2.79740221       3.90943741       4.84524329      -0.00154382       0.00218263      -0.00266892
S        4.61832024       1.33427072       7.99916566       0.00154123      -0.00217855       0.00267744
