9
Lattice="5.655474861132027 1.4712219624135424e-07 3.2651900878067153 1.885158434365316 5.332032841859084 3.2651900728882697 4.803862873835944e-08 1.56971449238513e-08 6.530380092408094" Properties=species:S:1:pos:R:3:forces:R:3 energy=-38.9967041015625 free_energy=-38.9967041015625 stress="0.0003752580378204584 7.47812034518347e-09 2.989207104064917e-08 7.47812034518347e-09 0.00037527241511270404 2.964422929352395e-09 2.989207104064917e-08 2.964422929352395e-09 0.00037528976099565625" pbc="T T T"
Te       1.88515819       1.33300891       3.26518968      -0.00000426       0.00000425      -0.00000100
Te       5.65547513       3.99902433       9.79557330       0.00000377      -0.00000204       0.00002071
Mo      -0.00000009       0.00000003       0.00000030       0.00000056      -0.00000017       0.00000082
S        1.90989521       1.35050013       6.53037982      -0.00732079      -0.00517409      -0.00000251
S        5.63073816       3.98153277       6.53037924       0.00732134       0.00517339      -0.00000956
S        4.70052792       1.35050017       4.91920751       0.00366137      -0.00516902      -0.00633775
S        2.84010577       3.98153297       8.14155219      -0.00366063       0.00517206       0.00633578
S        2.84010609       3.98153336       4.91920737      -0.00365633       0.00517341      -0.00633834
S        4.70052701       1.35049930       8.14155160       0.00365498      -0.00517777       0.00633194
