9
Lattice="5.67813017288507 -2.219182205642967e-08 3.2782700696160787 1.8927100909862953 5.3533923967284425 3.2782699755993088 8.303616011910471e-11 -1.150878406564291e-07 6.55654013908834" Properties=species:S:1:pos:R:3:forces:R:3 energy=-36.68754959106445 free_energy=-36.68754959106445 stress="0.0002993437519762665 2.916503127892156e-08 -2.4203375303955e-08 2.916503127892156e-08 0.0002994356909766793 -2.3913399260777624e-08 -2.4203375303955e-08 -2.3913399260777624e-08 0.00029932663892395794" pbc="T T T"
Te       1.89271044       1.33834843       3.27827009       0.00000336       0.00000691       0.00000134
Te       5.67813031       4.01504403       9.83480926      -0.00000056       0.00000089      -0.00001006
Mn       0.00000008      -0.00000013      -0.00000056      -0.00000473       0.00000018       0.00001024
S        1.83885369       1.30026537       6.55654052      -0.00233239      -0.00164932       0.00000198
S        5.73198646       4.05312656       6.55654175       0.00233161       0.00164953       0.00000392
S        4.75870296       1.30026593       4.87076378       0.00116873      -0.00165132      -0.00202066
S        2.81213647       4.05312694       8.24231624      -0.00116631       0.00164345       0.00201446
S        2.81213688       4.05312604       4.87076353      -0.00116411       0.00164708      -0.00202048
S        4.75870383       1.30026576       8.24231618       0.00116476      -0.00164738       0.00201941
