9
Lattice="4.604005211891551 -2.7948739553512356e-09 2.6581236313733503 1.5346684056915505 4.34069770654017 2.658123623816919 -1.0512236162833969e-09 -9.998044669897456e-09 5.316247264567493" Properties=species:S:1:pos:R:3:forces:R:3 energy=-46.39948272705078 free_energy=-46.39948272705078 stress="0.00019980320939794183 -3.7508137040731526e-08 1.742395028259125e-08 -3.7508137040731526e-08 0.00019971522851847112 1.5675096776135433e-08 1.742395028259125e-08 1.5675096776135433e-08 0.00019990498549304903" pbc="T T T"
Te       1.53466816       1.08517198       2.65812395      -0.00000223      -0.00004282       0.00000498
Te       4.60400621       3.25552467       7.97437368       0.00001610       0.00002622       0.00005134
Mn       0.00000001       0.00000023      -0.00000004      -0.00000172      -0.00000754      -0.00000489
O        1.48382891       1.04922503       5.31624726       0.00002661       0.00001290      -0.00000218
O        4.65484464       3.29147300       5.31624593      -0.00003055      -0.00000322      -0.00002020
O        3.86209081       1.04922531       3.94315699      -0.00001240       0.00001514       0.00001770
O        2.27658214       3.29147311       6.68933652      -0.00000027       0.00000164      -0.00003532
O        2.27658308       3.29147305       3.94315714       0.00001918      -0.00000301       0.00002173
O        3.86209055       1.04922434       6.68933659      -0.00001468       0.00000113      -0.00003335
