9
Lattice="4.680082580387037 -1.2380800593421503e-08 2.7020470449547487 1.5600275184013173 4.412424211200141 2.7020470392764477 -2.875707051556399e-09 -8.987902760335525e-09 5.404094094890377" Properties=species:S:1:pos:R:3:forces:R:3 energy=-46.940670013427734 free_energy=-46.940670013427734 stress="0.00045311180292628706 5.720758622373978e-08 4.561023914106954e-08 5.720758622373978e-08 0.0004530278383754194 5.383445511597529e-08 4.561023914106954e-08 5.383445511597529e-08 0.0004530344740487635" pbc="T T T"
Te       1.56002504       1.10310470       2.70204588      -0.00005023      -0.00002974      -0.00002155
Te       4.68008168       3.30932030       8.10614416      -0.00001995       0.00004452       0.00005864
Mo      -0.00000003      -0.00000010      -0.00000011      -0.00000462       0.00000123       0.00000412
O        1.57019766       1.11029660       5.40409470       0.00088173       0.00060254       0.00000914
O        4.66991320       3.30212682       5.40409246      -0.00086492      -0.00062042      -0.00002638
O        3.89498481       1.11029676       4.06187824      -0.00041562       0.00061113       0.00076431
O        2.34512642       3.30212775       6.74631017       0.00044379      -0.00060821      -0.00076777
O        2.34512738       3.30212805       4.06187772       0.00045952      -0.00060183       0.00075620
O        3.89498417       1.11029585       6.74630957      -0.00043026       0.00060076      -0.00077683
