9
Lattice="5.6270065938679705 -1.2538952513714764e-07 3.2487536839576356 1.8756687887066121 5.305192571720013 3.2487536106878396 8.929390903320993e-08 -2.659648564636511e-08 6.497507213253649" Properties=species:S:1:pos:R:3:forces:R:3 energy=-38.8028564453125 free_energy=-38.8028564453125 stress="2.6603443984640762e-05 -5.361661781222438e-09 2.168916823919176e-09 -5.361661781222438e-09 2.6508076189202257e-05 3.6664758340521075e-08 2.168916823919176e-09 3.6664758340521075e-08 2.663096529431641e-05" pbc="T T T"
Te       1.87566766       1.32629738       3.24875549      -0.00001016      -0.00000744       0.00001918
Te       5.62700762       3.97889541       9.74626081       0.00001038       0.00000803       0.00000155
Nb      -0.00000008      -0.00000020      -0.00000022       0.00000120       0.00000633       0.00000306
S        1.96047083       1.38626207       6.49750692      -0.00328498      -0.00232055      -0.00000471
S        5.54220552       3.91893078       6.49750693       0.00327609       0.00231726       0.00000148
S        4.64677094       1.38626168       4.94657069       0.00164104      -0.00232459      -0.00284567
S        2.85590355       3.91893068       8.04844378      -0.00163779       0.00232191       0.00283411
S        2.85590379       3.91893047       4.94657052      -0.00164210       0.00232175      -0.00284122
S        4.64677208       1.38626146       8.04844318       0.00164630      -0.00232273       0.00283241
