9
Lattice="4.690501403542157 6.954262546784976e-08 2.7080622898805546 1.563500516059144 4.422247354282741 2.7080623199379725 2.847570666856789e-08 5.6948031955017923e-08 5.416124530439723" Properties=species:S:1:pos:R:3:forces:R:3 energy=-51.40438461303711 free_energy=-51.40438461303711 stress="0.00030658007017336786 -4.935924025062377e-08 -5.183249740525753e-08 -4.935924025062377e-08 0.0003066376957576722 8.77229133777746e-09 -5.183249740525753e-08 8.77229133777746e-09 0.00030656190938316286" pbc="T T T"
Te       1.56350047       1.10556228       2.70806324       0.00000141       0.00001310       0.00002051
Te       4.69050433       3.31668537       8.12418979       0.00006362      -0.00000414       0.00006046
Nb       0.00000012       0.00000033       0.00000050       0.00000552       0.00000034       0.00000245
O        1.59817297       1.13008021       5.41612397      -0.00101095      -0.00069416      -0.00001239
O        4.65582841       3.29216787       5.41612308       0.00099695       0.00070024      -0.00002654
O        3.89141444       1.13008005       4.09212078       0.00049484      -0.00070244      -0.00087410
O        2.36258612       3.29216787       6.74012676      -0.00053206       0.00070935       0.00084805
O        2.36258672       3.29216752       4.09212133      -0.00051433       0.00069988      -0.00086749
O        3.89141424       1.13007847       6.74012702       0.00049493      -0.00072211       0.00084925
