9
Lattice="5.623232367073504 9.86388386885508e-08 3.246574821589905 1.8744108532647832 5.30163452329305 3.2465748713990688 9.573510022132817e-08 1.2869842178841077e-07 6.493149477361704" Properties=species:S:1:pos:R:3:forces:R:3 energy=-32.371273040771484 free_energy=-32.371273040771484 stress="0.0002477871021255851 4.924948271423091e-08 -3.125540359860679e-08 4.924948271423091e-08 0.00024771541939117014 -3.7529616747633554e-08 -3.125540359860679e-08 -3.7529616747633554e-08 0.00024780441890470684" pbc="T T T"
Te       1.87441164       1.32541008       3.24657354       0.00000472       0.00000876      -0.00001035
Te       5.62322934       3.97622372       9.73972407      -0.00002062      -0.00001303      -0.00000278
Ni       0.00000060       0.00000046       0.00000009      -0.00001331      -0.00000466      -0.00000462
S        1.77249388       1.25334259       6.49315010      -0.00618905      -0.00437494       0.00000445
S        5.72515001       4.04829168       6.49314953       0.00620145       0.00438023      -0.00000083
S        4.73698498       1.25334294       4.78159858       0.00309615      -0.00437109      -0.00536658
S        2.76065915       4.04829123       8.20470114      -0.00308862       0.00437389       0.00537091
S        2.76065883       4.04829256       4.78159918      -0.00308952       0.00437874      -0.00536260
S        4.73698493       1.25334374       8.20470045       0.00309885      -0.00437813       0.00537246
