9
Lattice="5.773273321405872 -7.76878391143044e-08 3.3332009582620756 1.9244244627761855 5.443094120915181 3.3332007927605334 2.0454779762699808e-07 -5.8060072870551685e-08 6.666401562237019" Properties=species:S:1:pos:R:3:forces:R:3 energy=-36.54055404663086 free_energy=-36.54055404663086 stress="-9.993545972974971e-05 8.95269813838695e-09 -1.4379894608396171e-08 8.95269813838695e-09 -9.993915591621771e-05 -5.234366717843386e-09 -1.4379894608396171e-08 -5.234366717843386e-09 -9.993708954425529e-05" pbc="T T T"
Te       1.92442437       1.36077425       3.33320093      -0.00000028       0.00000301       0.00000002
Te       5.77327285       4.08232015       9.99960363      -0.00000214      -0.00000181       0.00000467
Nb      -0.00000018      -0.00000019      -0.00000051       0.00000314       0.00000082       0.00001029
Se       2.03935604       1.44204236       6.66640133       0.00353418       0.00249889      -0.00000057
Se       5.65834251       4.00105184       6.66640110      -0.00353694      -0.00250237      -0.00000150
Se       4.75359545       1.44204266       5.09933441      -0.00176567       0.00250026       0.00306104
Se       2.94410212       4.00105185       8.23346909       0.00177056      -0.00250477      -0.00306520
Se       2.94410265       4.00105154       5.09933427       0.00176764      -0.00249792       0.00305887
Se       4.75359617       1.44204146       8.23346897      -0.00177050       0.00250395      -0.00306758
