9
Lattice="5.725095642168933 7.108892332947939e-09 3.3053853768194443 1.90836516082915 5.397671885415882 3.305385480620364 -4.377091410360948e-08 9.617893088746758e-08 6.610770829452432" Properties=species:S:1:pos:R:3:forces:R:3 energy=-36.609867095947266 free_energy=-36.609867095947266 stress="-0.00013509303971659392 3.949433224903487e-09 -6.830143561842306e-09 3.949433224903487e-09 -0.00013514031888917089 2.5625544353147234e-08 -6.830143561842306e-09 2.5625544353147234e-08 -0.00013512051373254508" pbc="T T T"
Te       1.90836481       1.34941839       3.30538537      -0.00000183       0.00000111      -0.00000102
Te       5.72509531       4.04825359       9.91615649      -0.00000285       0.00000005       0.00000243
Os       0.00000008      -0.00000005      -0.00000002      -0.00000115       0.00000012      -0.00000155
Se       2.02154990       1.42945162       6.61077112       0.00097960       0.00069195       0.00000031
Se       5.61191089       3.96822010       6.61077086      -0.00097755      -0.00069299      -0.00000127
Se       4.71432091       1.42945180       5.05609905      -0.00048840       0.00069363       0.00084785
Se       2.91914024       3.96822022       8.16544264       0.00048934      -0.00069109      -0.00084713
Se       2.91914026       3.96822034       5.05609858       0.00049096      -0.00069521       0.00084835
Se       4.71432068       1.42945201       8.16544269      -0.00048821       0.00069238      -0.00084811
