9
Lattice="4.820191624797278 -1.0455394410697675e-07 2.7829390448909512 1.6067304744240216 4.544520286595553 2.782938990505711 2.5874254566972093e-09 -6.477844492357792e-08 5.565878085300331" Properties=species:S:1:pos:R:3:forces:R:3 energy=-49.92937469482422 free_energy=-49.92937469482422 stress="0.0006691852468065917 -1.7835900534279858e-09 -1.9964867092880922e-08 -1.7835900534279858e-09 0.0006690275040455163 1.0250769122421843e-08 -1.9964867092880922e-08 1.0250769122421843e-08 0.0006689869333058596" pbc="T T T"
Te       1.60673087       1.13612961       2.78293847       0.00000634      -0.00000673      -0.00000941
Te       4.82019135       3.40839054       8.34881588      -0.00000429       0.00000419      -0.00001683
Os      -0.00000014      -0.00000004       0.00000022       0.00000174      -0.00000691       0.00000714
O        1.53413401       1.08479659       5.56587816       0.00217190       0.00153482       0.00000418
O        4.89278798       3.45972349       5.56587877      -0.00216675      -0.00153153       0.00000768
O        4.05312448       1.08479625       4.11153837      -0.00108661       0.00153023       0.00188166
O        2.37379782       3.45972365       7.02021798       0.00108646      -0.00153302      -0.00187355
O        2.37379760       3.45972390       4.11153846       0.00108433      -0.00153168       0.00188129
O        4.05312443       1.08479650       7.02021817      -0.00109273       0.00154032      -0.00188205
