9
Lattice="5.469980322761719 -4.730595101779921e-08 3.1580947304434064 1.823326743659974 5.157147631813344 3.1580947061834412 -1.1031116000435657e-07 -1.0771410188466514e-07 6.316189651951324" Properties=species:S:1:pos:R:3:forces:R:3 energy=-37.964759826660156 free_energy=-37.964759826660156 stress="-9.37918302952312e-05 -4.926121022208463e-08 1.7375798577745627e-08 -4.926121022208463e-08 -9.393940126756206e-05 1.0098609948272497e-08 1.7375798577745627e-08 1.0098609948272497e-08 -9.374934597872198e-05" pbc="T T T"
Te       1.82332523       1.28928899       3.15809426      -0.00001714       0.00001842      -0.00000514
Te       5.46998035       3.86785836       9.47428449       0.00000355      -0.00001918      -0.00000094
Os      -0.00000059      -0.00000029       0.00000019      -0.00000331      -0.00000006      -0.00000069
S        1.91805125       1.35626791       6.31618965      -0.00534540      -0.00377470       0.00000229
S        5.37525601       3.80087951       6.31618940       0.00534910       0.00377560       0.00000130
S        4.51095584       1.35626914       4.81917672       0.00268394      -0.00377482      -0.00463116
S        2.78235216       3.80087940       7.81320319      -0.00267434       0.00377429       0.00463361
S        2.78235232       3.80087890       4.81917630      -0.00267506       0.00377768      -0.00463098
S        4.51095508       1.35626787       7.81320205       0.00267929      -0.00377697       0.00463247
