9
Lattice="5.601842061335608 -1.8527325449124162e-07 3.2342251251645755 1.8672806113213245 5.281467080583688 3.2342249538877215 6.06148961107848e-08 -1.6690931189601633e-07 6.468450145341131" Properties=species:S:1:pos:R:3:forces:R:3 energy=-31.196529388427734 free_energy=-31.196529388427734 stress="0.00015852632350288332 1.2105727975608715e-08 3.772449908012732e-09 1.2105727975608715e-08 0.00015848821203690022 4.161674738156762e-08 3.772449908012732e-09 4.161674738156762e-08 0.00015845726011320949" pbc="T T T"
Te       1.86728013       1.32036684       3.23422580      -0.00000381      -0.00000037       0.00001037
Te       5.60184206       3.96110078       9.70267639      -0.00000308       0.00000575       0.00001561
Pd      -0.00000034       0.00000014       0.00000082       0.00001180      -0.00000539      -0.00001482
S        1.94043791       1.37209709       6.46844910      -0.00779295      -0.00551432      -0.00000370
S        5.52868361       3.90937133       6.46844929       0.00779015       0.00551203      -0.00000803
S        4.63162417       1.37209579       4.91469425       0.00389948      -0.00550884      -0.00673920
S        2.83750022       3.90936986       8.02220663      -0.00390086       0.00551301       0.00674802
S        2.83750025       3.90936909       4.91469186      -0.00389278       0.00550625      -0.00675219
S        4.63162303       1.37209605       8.02220686       0.00389236      -0.00550830       0.00674343
