9
Lattice="4.600845508397369 -2.6908548342139796e-08 2.656299476567103 1.5336151449065138 4.337718699575848 2.656299475163535 4.5611508586137635e-08 3.053319465152065e-08 5.312598874132764" Properties=species:S:1:pos:R:3:forces:R:3 energy=-48.47075653076172 free_energy=-48.47075653076172 stress="0.00034381862496957183 7.022327253025651e-08 -8.398561845979202e-08 7.022327253025651e-08 0.00034399935975670815 -8.844107668437573e-08 -8.398561845979202e-08 -8.844107668437573e-08 0.00034397109993733466" pbc="T T T"
Te       1.53361371       1.08442980       2.65629979      -0.00002039       0.00000014       0.00000253
Te       4.60084525       3.25328837       7.96889700      -0.00000381      -0.00000744      -0.00001728
P        0.00000016       0.00000003       0.00000006       0.00000220       0.00000252      -0.00000180
O        1.41014193       0.99712103       5.31259877       0.00682974       0.00483155      -0.00000076
O        4.72431906       3.34059770       5.31259925      -0.00682616      -0.00483418       0.00000801
O        3.89577485       0.99712077       3.87751842      -0.00341129       0.00482976       0.00591898
O        2.23868647       3.34059798       6.74767982       0.00342184      -0.00482726      -0.00591171
O        2.23868613       3.34059790       3.87751841       0.00341362      -0.00482917       0.00591767
O        3.89577529       0.99712116       6.74767984      -0.00340587       0.00483274      -0.00591516
