9
Lattice="5.722548252742911 3.163103522760253e-09 3.3039148046800304 1.9075160898750552 5.39527019944966 3.3039148000983807 2.846788493811952e-08 1.4518485996321694e-08 6.60782956005223" Properties=species:S:1:pos:R:3:forces:R:3 energy=-27.373424530029297 free_energy=-27.373424530029297 stress="-0.00036068979534320533 -3.4221162792391624e-08 1.1926674758910849e-08 -3.4221162792391624e-08 -0.00036085309693589807 6.65932020638138e-08 1.1926674758910849e-08 6.65932020638138e-08 -0.00036072867806069553" pbc="T T T"
Te       1.90751587       1.34881741       3.30391488      -0.00000006      -0.00000222      -0.00000117
Te       5.72254826       4.04645275       9.91174437      -0.00000217       0.00000401      -0.00000107
Pb       0.00000002       0.00000006       0.00000004      -0.00000139       0.00000181      -0.00000036
S        2.14279484       1.51518468       6.60782951      -0.00024947      -0.00017476       0.00000083
S        5.48726940       3.88008553       6.60782955       0.00025003       0.00017757       0.00000155
S        4.65115097       1.51518476       5.15962961       0.00012832      -0.00017804      -0.00021453
S        2.97891361       3.88008547       8.05602961      -0.00012577       0.00017701       0.00021476
S        2.97891360       3.88008541       5.15962950      -0.00012467       0.00017259      -0.00021583
S        4.65115091       1.51518480       8.05602960       0.00012516      -0.00017804       0.00021571
