9
Lattice="5.828898336503872 -2.8539752035140408e-11 3.365315976966886 1.942966092504544 5.495538131359299 3.3653160109783213 -3.071674240412178e-08 1.9935316429034957e-08 6.730632007136755" Properties=species:S:1:pos:R:3:forces:R:3 energy=-30.680641174316406 free_energy=-30.680641174316406 stress="-0.0002502262650523335 -5.619605669693328e-09 -1.7559262488475724e-08 -5.619605669693328e-09 -0.00025019122404046357 2.10763264618663e-08 -1.7559262488475724e-08 2.10763264618663e-08 -0.0002502714341972023" pbc="T T T"
Te       1.94296609       1.37388437       3.36531596       0.00000054      -0.00000109      -0.00000112
Te       5.82889827       4.12165393      10.09594789      -0.00000005       0.00000181       0.00000027
Pd       0.00000001       0.00000013       0.00000012       0.00000016      -0.00000160       0.00000471
Se       2.04980529       1.44943105       6.73063207      -0.00637287      -0.00450721       0.00000065
Se       5.72205893       4.04610709       6.73063208       0.00637315       0.00450653      -0.00000069
Se       4.80399569       1.44943114       5.14049946       0.00318668      -0.00450708      -0.00551988
Se       2.96786875       4.04610689       8.32076434      -0.00318630       0.00450657       0.00551857
Se       2.96786883       4.04610686       5.14049955      -0.00318624       0.00450701      -0.00551914
Se       4.80399570       1.44943115       8.32076451       0.00318493      -0.00450502       0.00551668
