9
Lattice="5.636560596364787 -5.282445257834325e-08 3.2542697995444714 1.8788535098996664 5.314200164304161 3.254269751772025 1.3011454051746992e-07 3.3495805126445705e-08 6.5085393737239645" Properties=species:S:1:pos:R:3:forces:R:3 energy=-30.694210052490234 free_energy=-30.694210052490234 stress="-0.0003778772952500731 2.5498769318232917e-08 -8.602704326676758e-09 2.5498769318232917e-08 -0.0003779057296924293 7.33684002440782e-09 -8.602704326676758e-09 7.33684002440782e-09 -0.00037792653893120587" pbc="T T T"
Te       1.87885325       1.32854987       3.25426979       0.00000086       0.00000125       0.00000057
Te       5.63656086       3.98565027       9.76280810       0.00000178       0.00000126      -0.00000347
P       -0.00000010      -0.00000027      -0.00000049       0.00000023       0.00000188       0.00001264
Se       1.90221187       1.34506688       6.50853969       0.00492071       0.00347939       0.00000133
Se       5.61320237       3.96913330       6.50853983      -0.00492332      -0.00348095       0.00000136
Se       4.68545455       1.34506687       4.90163381      -0.00245965       0.00347714       0.00426022
Se       2.82995959       3.96913355       8.11544561       0.00246422      -0.00348483      -0.00426730
Se       2.82995951       3.96913328       4.90163377       0.00245955      -0.00347972       0.00426220
Se       4.68545502       1.34506684       8.11544554      -0.00246424       0.00348457      -0.00426755
