9
Lattice="6.196796502254888 -1.0631136862440758e-08 3.57772200602855 2.0655987881412514 5.842396195456171 3.577722068244788 -2.3349608125103933e-07 -8.89076335106894e-08 7.155444416484196" Properties=species:S:1:pos:R:3:forces:R:3 energy=-29.148181915283203 free_energy=-29.148181915283203 stress="-4.818414890905842e-05 1.5987466905897918e-09 -1.6035375693945753e-08 1.5987466905897918e-09 -4.821278707822785e-05 -1.6610409048212205e-08 -1.6035375693945753e-08 -1.6610409048212205e-08 -4.821109178010374e-05" pbc="T T T"
Te       2.06559830       1.46059882       3.57772254      -0.00000010       0.00000174       0.00000024
Te       6.19679594       4.38179681      10.73316584       0.00000063       0.00000068       0.00000161
Pb      -0.00000042      -0.00000039       0.00000012       0.00000128       0.00000075      -0.00000024
Se       2.62738901       1.85784489       7.15544453      -0.00107314      -0.00076214      -0.00000170
Se       5.63500583       3.98455120       7.15544435       0.00108421       0.00076352      -0.00000159
Se       4.88310243       1.85784488       5.85310778       0.00053469      -0.00076205      -0.00093141
Se       3.37929357       3.98455124       8.45778015      -0.00054482       0.00076404       0.00093798
Se       3.37929373       3.98455175       5.85310808      -0.00054055       0.00075936      -0.00093696
Se       4.88310182       1.85784524       8.45778052       0.00053779      -0.00076588       0.00093211
