9
Lattice="4.891954303920377 -1.6529656677943914e-09 2.824371206164356 1.6306514578382358 4.612178659268293 2.8243711632847677 3.5414142577528737e-09 -5.0012396575869866e-08 5.648742406194828" Properties=species:S:1:pos:R:3:forces:R:3 energy=-38.0943489074707 free_energy=-38.0943489074707 stress="7.419408211717382e-05 -2.8146795116867906e-08 1.0643061187920466e-07 -2.8146795116867906e-08 7.41407202440314e-05 1.0304362518809285e-07 1.0643061187920466e-07 1.0304362518809285e-07 7.407776865875348e-05" pbc="T T T"
Te       1.63065143       1.15304604       2.82437132       0.00000055       0.00002101       0.00000186
Te       4.89195551       3.45913545       8.47311146       0.00001401       0.00002031      -0.00003447
Pb       0.00000010       0.00000014      -0.00000012      -0.00000028      -0.00000198       0.00000425
O        1.67668706       1.18559671       5.64874239      -0.00129991      -0.00092220      -0.00000162
O        4.84591900       3.42658111       5.64874347       0.00130979       0.00091543       0.00001770
O        4.05361017       1.18559576       4.27642547       0.00064453      -0.00093875      -0.00112014
O        2.46899524       3.42658139       7.02106034      -0.00064899       0.00091390       0.00113503
O        2.46899388       3.42658137       4.27642526      -0.00067015       0.00091713      -0.00112740
O        4.05361074       1.18559644       7.02105960       0.00065028      -0.00092487       0.00112476
