9
Lattice="4.750000831851357 7.985566518139789e-08 2.7424143669206678 1.5833336700970289 4.478343938068632 2.7424143943022017 3.646317290207184e-08 5.9318766934990875e-08 5.484828670685276" Properties=species:S:1:pos:R:3:forces:R:3 energy=-41.40835952758789 free_energy=-41.40835952758789 stress="-5.5362314014928415e-05 -9.479390428168699e-08 -3.7215780679389354e-08 -9.479390428168699e-08 -5.543864244828001e-05 8.135877749282372e-08 -3.7215780679389354e-08 8.135877749282372e-08 -5.5391035857610404e-05" pbc="T T T"
Te       1.58333468       1.11958411       2.74241347       0.00001757      -0.00002948      -0.00001500
Te       4.74999907       3.35876001       8.22724200      -0.00003000       0.00003158      -0.00000999
Pt      -0.00000015       0.00000009       0.00000018       0.00001981      -0.00000360      -0.00000898
O        1.57588255       1.11431529       5.48482938       0.00219086       0.00152151       0.00000763
O        4.75745236       3.36402862       5.48482910      -0.00220072      -0.00153367       0.00000321
O        3.96205998       1.11431608       4.10716815      -0.00109746       0.00153700       0.00189739
O        2.37127527       3.36402785       6.86248982       0.00109874      -0.00153040      -0.00187765
O        2.37127481       3.36402772       4.10716769       0.00110117      -0.00153562       0.00189178
O        3.96205962       1.11431660       6.86249008      -0.00109976       0.00154278      -0.00188820
