9
Lattice="5.661189425051338 1.996165415020452e-08 3.2684892934399667 1.8870631592858917 5.337420262827358 3.2684892955494416 4.9619966356668494e-08 3.767015968387712e-08 6.536978500935663" Properties=species:S:1:pos:R:3:forces:R:3 energy=-31.763572692871094 free_energy=-31.763572692871094 stress="0.00020038621732965112 3.674504256423461e-08 -2.781426289288902e-08 3.674504256423461e-08 0.00020035232591908425 -4.421472610260935e-08 -2.781426289288902e-08 -4.421472610260935e-08 0.00020038054208271205" pbc="T T T"
Te       1.88706281       1.33435465       3.26848950      -0.00000350      -0.00000644       0.00000539
Te       5.66118972       4.00306537       9.80547105       0.00000107       0.00000283       0.00002480
P       -0.00000015       0.00000010      -0.00000050       0.00000026      -0.00000261       0.00000503
S        1.79818757       1.27151058       6.53697797       0.00122356       0.00086567      -0.00000284
S        5.75006546       4.06590913       6.53697739      -0.00122011      -0.00086725      -0.00001051
S        4.76209561       1.27151087       4.82576504      -0.00060761       0.00086764       0.00105900
S        2.78615705       4.06591026       8.24819110       0.00061131      -0.00086385      -0.00106913
S        2.78615759       4.06591026       4.82576514       0.00061461      -0.00086287       0.00105590
S        4.76209488       1.27151019       8.24819161      -0.00061935       0.00086698      -0.00106752
