9
Lattice="5.582855188056325 6.568398270090098e-09 3.223263046143324 1.860951775219364 5.2635663227851754 3.2232629774250223 -4.7935315659305674e-08 -1.1805777535152094e-07 6.446526175313042" Properties=species:S:1:pos:R:3:forces:R:3 energy=-33.61140441894531 free_energy=-33.61140441894531 stress="3.9333208405878395e-06 2.980656788054148e-08 -1.0000663408504806e-08 2.980656788054148e-08 3.916379228030564e-06 -1.9751935198542014e-08 -1.0000663408504806e-08 -1.9751935198542014e-08 3.834680683212355e-06" pbc="T T T"
Te       1.86095284       1.31589262       3.22326202       0.00000591       0.00000807      -0.00000455
Te       5.58285383       3.94767559       9.66978866      -0.00000958       0.00000576      -0.00000477
Pt      -0.00000018      -0.00000012      -0.00000002       0.00000199      -0.00000073      -0.00000350
S        1.89231251       1.33806653       6.44652573      -0.00363415      -0.00257513       0.00000142
S        5.55149466       3.92549941       6.44652620       0.00363654       0.00257152       0.00000042
S        4.63669918       1.33806618       4.86205356       0.00181630      -0.00257093      -0.00314486
S        2.80710811       3.92549903       8.03099957      -0.00181273       0.00256401       0.00315422
S        2.80710801       3.92549915       4.86205355      -0.00181490       0.00256801      -0.00314894
S        4.63669863       1.33806637       8.03099959       0.00181070      -0.00257051       0.00315076
