9
Lattice="5.482903843558214 -7.939556148149277e-08 3.1655559485213334 1.8276345594343577 5.169330885109083 3.1655559142790324 -5.6100708823861686e-08 -8.160725919779363e-08 6.331111994211897" Properties=species:S:1:pos:R:3:forces:R:3 energy=-36.67005157470703 free_energy=-36.67005157470703 stress="-0.00016430423420388252 -1.753300438167571e-08 -2.603073490092811e-08 -1.753300438167571e-08 -0.0001644833100726828 9.720247939881688e-10 -2.603073490092811e-08 9.720247939881688e-10 -0.00016428808157797903" pbc="T T T"
Te       1.82763381       1.29233333       3.16555640      -0.00000861       0.00000181       0.00000434
Te       5.48290337       3.87699717       9.49666745      -0.00000474      -0.00000083      -0.00000038
Ru      -0.00000016       0.00000017      -0.00000016      -0.00000129       0.00000008       0.00000020
S        1.90954469       1.35025142       6.33111202      -0.00488597      -0.00345561      -0.00000083
S        5.40099372       3.81907930       6.33111149       0.00489175       0.00345412      -0.00000204
S        4.52813194       1.35025127       4.81927085       0.00244755      -0.00345540      -0.00423497
S        2.78240689       3.81907924       7.84295337      -0.00244460       0.00345457       0.00423521
S        2.78240676       3.81907915       4.81927040      -0.00244462       0.00345400      -0.00423610
S        4.52813235       1.35025182       7.84295345       0.00245088      -0.00345278       0.00423408
