9
Lattice="5.801540047510041 1.0326378154523213e-07 3.3495207259891466 1.933846776628469 5.469744270074318 3.349520731588698 9.751209812210041e-08 7.580949392241764e-08 6.699041283082403" Properties=species:S:1:pos:R:3:forces:R:3 energy=-38.55510711669922 free_energy=-38.55510711669922 stress="-0.00010505373938940465 2.073595517515514e-08 3.9584295841166295e-09 2.073595517515514e-08 -0.00010513712913962081 6.038001654218306e-09 3.9584295841166295e-09 6.038001654218306e-09 -0.00010510150605114177" pbc="T T T"
Te       1.93384688       1.36743640       3.34952117       0.00000039       0.00000068       0.00000071
Te       5.80154034       4.10230799      10.04856103       0.00000184      -0.00000041      -0.00000370
Re       0.00000015      -0.00000005      -0.00000032      -0.00000070       0.00000051       0.00000232
Se       1.99700384       1.41209505       6.69904137      -0.00074741      -0.00052762      -0.00000137
Se       5.73838320       4.05764924       6.69904178       0.00074679       0.00052786       0.00000134
Se       4.80303801       1.41209487       5.07897664       0.00037242      -0.00052807      -0.00064692
Se       2.93234855       4.05764972       8.31910638      -0.00037217       0.00052780       0.00064620
Se       2.93234833       4.05764965       5.07897665      -0.00037390       0.00052682      -0.00064597
Se       4.80303830       1.41209492       8.31910627       0.00037251      -0.00052741       0.00064778
