9
Lattice="5.734865750099735 -2.0575273620758946e-08 3.3110262300793742 1.9116219038301472 5.406883163746655 3.3110262187711967 -4.854112286495467e-09 -1.7282013598154014e-08 6.622052468566323" Properties=species:S:1:pos:R:3:forces:R:3 energy=-35.43913269042969 free_energy=-35.43913269042969 stress="-0.00014089411706663668 -4.988401691718991e-09 -1.729258958249602e-09 -4.988401691718991e-09 -0.00014089942851569504 6.307255162596448e-09 -1.729258958249602e-09 6.307255162596448e-09 -0.00014088270836509764" pbc="T T T"
Te       1.91162170       1.35172028       3.31102643      -0.00000143      -0.00000069       0.00000023
Te       5.73486576       4.05516236       9.93307868       0.00000008       0.00000008      -0.00000038
Ru       0.00000019       0.00000010      -0.00000005      -0.00000065      -0.00000028       0.00000046
Se       2.00781396       1.41973866       6.62205246       0.00125392       0.00088657      -0.00000003
Se       5.63867379       3.98714478       6.62205253      -0.00125465      -0.00088567       0.00000036
Se       4.73095881       1.41973866       5.04984403      -0.00062606       0.00088588       0.00108582
Se       2.91552877       3.98714449       8.19426099       0.00062678      -0.00088563      -0.00108571
Se       2.91552877       3.98714445       5.04984377       0.00062782      -0.00088701       0.00108536
Se       4.73095887       1.41973871       8.19426088      -0.00062572       0.00088676      -0.00108616
