9
Lattice="4.768888313488371 7.899577698884843e-08 2.753318848434231 1.5896295042449688 4.496150930556506 2.753318862398744 -1.1076218421559491e-08 9.270889879694607e-09 5.506637716053051" Properties=species:S:1:pos:R:3:forces:R:3 energy=-46.64889907836914 free_energy=-46.64889907836914 stress="3.7781196624564473e-06 2.7322643703087124e-08 1.5566069266892413e-10 2.7322643703087124e-08 3.815606305579422e-06 6.85029988289898e-08 1.5566069266892413e-10 6.85029988289898e-08 3.843562808469869e-06" pbc="T T T"
Te       1.58962700       1.12403892       2.75331592      -0.00004086       0.00001651      -0.00005227
Te       4.76888336       3.37210909       8.25996270      -0.00008554      -0.00006746       0.00011089
Ru      -0.00000018      -0.00000020       0.00000018      -0.00000872      -0.00000279       0.00000769
O        1.54631523       1.09340984       5.50663878       0.00056911       0.00040105       0.00002030
O        4.81220303       3.40274118       5.50663490      -0.00055188      -0.00040540      -0.00004895
O        3.99573381       1.09341323       4.09246592      -0.00023544       0.00044921       0.00046712
O        2.36278745       3.40274015       6.92080931       0.00029066      -0.00041175      -0.00047788
O        2.36278973       3.40274161       4.09246574       0.00033233      -0.00039008       0.00046512
O        3.99573172       1.09341036       6.92080816      -0.00026941       0.00041077      -0.00049210
