9
Lattice="5.603223075193522 5.139917524581479e-09 3.235022316593492 1.8677409996741807 5.282769384466699 3.2350223689642665 -5.8608060850170844e-08 2.269867751028844e-08 6.470044734699127" Properties=species:S:1:pos:R:3:forces:R:3 energy=-40.993370056152344 free_energy=-40.993370056152344 stress="6.162710633361712e-05 3.643627621841006e-08 -2.750285332808744e-08 3.643627621841006e-08 6.159645272418857e-05 -5.792826662798234e-09 -2.750285332808744e-08 -5.792826662798234e-09 6.16807010374032e-05" pbc="T T T"
Te       1.86774163       1.32069234       3.23502177       0.00000077      -0.00000162      -0.00000375
Te       5.60322245       3.96207616       9.70506827      -0.00000473      -0.00000310       0.00000905
Re      -0.00000013      -0.00000023       0.00000020       0.00000076       0.00000274       0.00000250
S        1.90242087       1.34521510       6.47004464      -0.00357789      -0.00252974       0.00000068
S        5.56854347       3.93755503       6.47004403       0.00357676       0.00252962      -0.00000467
S        4.65201260       1.34521501       4.88256679       0.00179169      -0.00252652      -0.00309932
S        2.81895114       3.93755453       8.05752254      -0.00178844       0.00252485       0.00309449
S        2.81895144       3.93755494       4.88256713      -0.00178468       0.00252968      -0.00309724
S        4.65201249       1.34521468       8.05752239       0.00178614      -0.00252610       0.00309813
