9
Lattice="4.741104797335386 9.361345192369966e-08 2.737278065240978 1.5803683900598058 4.46995612231261 2.737278002849538 9.385695889633308e-08 -1.0046724234044731e-08 5.474555967916933" Properties=species:S:1:pos:R:3:forces:R:3 energy=-43.14789581298828 free_energy=-43.14789581298828 stress="0.00028382684104144573 -1.2644817637408323e-08 -4.223933203206798e-08 -1.2644817637408323e-08 0.00028359549469314516 -1.816582972935521e-08 -4.223933203206798e-08 -1.816582972935521e-08 0.0002837557112798095" pbc="T T T"
Te       1.58037101       1.11747493       2.73727820       0.00004800      -0.00026427       0.00000658
Te       4.74110299       3.35247779       8.21182755      -0.00003430       0.00019913      -0.00012807
Rh      -0.00000007       0.00000026       0.00000029       0.00000619       0.00000276      -0.00000839
O        1.57075225       1.11068291       5.47455550       0.00048327       0.00023064      -0.00000337
O        4.75072028       3.35927452       5.47455936      -0.00050581      -0.00020882       0.00006067
O        3.95572819       1.11068269       4.09758939      -0.00026153       0.00022388       0.00042349
O        2.36574593       3.35927330       6.85152378       0.00027578      -0.00022095      -0.00039980
O        2.36574363       3.35927239       4.09758901       0.00023130      -0.00023538       0.00043017
O        3.95572892       1.11068610       6.85152521      -0.00024284       0.00027329      -0.00038150
