9
Lattice="4.6829964620549855 3.1380254387267304e-08 2.7037292231500514 1.560998816582669 4.415171425566281 2.703729281499215 3.126955086218134e-09 7.36739351044209e-08 5.407458440884018" Properties=species:S:1:pos:R:3:forces:R:3 energy=-51.870452880859375 free_energy=-51.870452880859375 stress="0.0007024800288490951 -5.3961763057941425e-08 -1.3332428494550186e-08 -5.3961763057941425e-08 0.0007025993545539677 -1.9239131177073432e-08 -1.3332428494550186e-08 -1.9239131177073432e-08 0.0007025900995358825" pbc="T T T"
Te       1.56100260       1.10379280       2.70372944       0.00007892      -0.00000039       0.00000714
Te       4.68300019       3.31137704       8.11119176       0.00007869      -0.00003560       0.00008473
Re      -0.00000002       0.00000022       0.00000001       0.00000310      -0.00000060       0.00000297
O        1.55800559       1.10167863       5.40745833      -0.00104976      -0.00069892      -0.00000432
O        4.68598782       3.31349504       5.40745689       0.00101262       0.00074714      -0.00003773
O        3.90399183       1.10167774       4.05300158       0.00048831      -0.00071287      -0.00091922
O        2.34000012       3.31349442       6.76191322      -0.00056243       0.00072545       0.00086653
O        2.34000158       3.31349356       4.05300242      -0.00053123       0.00071722      -0.00089502
O        3.90399149       1.10167665       6.76191419       0.00048190      -0.00074112       0.00089496
