9
Lattice="5.7507964368977165 -3.9059542484144677e-08 3.320223890569999 1.9169321454867885 5.421902843610934 3.3202238270384647 2.994074611820078e-08 -5.6638573644657196e-08 6.640447729281048" Properties=species:S:1:pos:R:3:forces:R:3 energy=-33.68458557128906 free_energy=-33.68458557128906 stress="-0.00014585020835511386 -8.613425528380958e-09 2.993884251623058e-09 -8.613425528380958e-09 -0.00014581064169760793 -1.0866703981093906e-08 2.993884251623058e-09 -1.0866703981093906e-08 -0.00014583136362489313" pbc="T T T"
Te       1.91693234       1.35547566       3.32022391       0.00000042      -0.00000033       0.00000018
Te       5.75079658       4.06642701       9.96067205       0.00000158       0.00000074       0.00000333
Rh       0.00000007      -0.00000023       0.00000016       0.00000061       0.00000189       0.00000095
Se       2.01036240       1.42154110       6.64044754       0.00160065       0.00113273      -0.00000026
Se       5.65736624       4.00036205       6.64044731      -0.00160204      -0.00113282      -0.00000217
Se       4.74561513       1.42154095       5.06124877      -0.00080137       0.00113190       0.00138628
Se       2.92211330       4.00036169       8.21964668       0.00080060      -0.00113294      -0.00138819
Se       2.92211340       4.00036191       5.06124869       0.00080089      -0.00113219       0.00138675
Se       4.74561500       1.42154082       8.21964672      -0.00080138       0.00113108      -0.00138683
