9
Lattice="5.5232538150296655 1.2002348229836753e-07 3.1888522503106174 1.8410847310017044 5.207373571754028 3.1888522280838796 1.3054497586102302e-07 6.508716299064966e-08 6.3777042745107675" Properties=species:S:1:pos:R:3:forces:R:3 energy=-35.17124557495117 free_energy=-35.17124557495117 stress="-7.649609324289486e-05 3.412734983498922e-08 -6.136304619985822e-08 3.412734983498922e-08 -7.654861110495403e-05 2.5680254367443922e-08 -6.136304619985822e-08 2.5680254367443922e-08 -7.659519906155765e-05" pbc="T T T"
Te       1.84108429       1.30184337       3.18885281      -0.00000496      -0.00000136       0.00000493
Te       5.52325437       3.90552872       9.56655649      -0.00000031      -0.00001226       0.00000417
Rh       0.00000005       0.00000005       0.00000025      -0.00000354      -0.00000264      -0.00000345
S        1.89313786       1.33865105       6.37770284      -0.00358683      -0.00253081      -0.00000477
S        5.47120048       3.86872278       6.37770295       0.00358927       0.00253785      -0.00000478
S        4.57668610       1.33865156       4.82835811       0.00179684      -0.00253156      -0.00310779
S        2.78765405       3.86872295       7.92705167      -0.00179121       0.00253752       0.00310636
S        2.78765270       3.86872332       4.82835817      -0.00179389       0.00253448      -0.00310171
S        4.57668475       1.33865127       7.92705172       0.00179487      -0.00253147       0.00310725
