9
Lattice="4.7673710712349715 -5.005750687978404e-08 2.7524429141325495 1.5891236385110867 4.494720492825836 2.752442922283379 -1.2979370850428184e-07 -8.179528422142662e-08 5.504886053074379" Properties=species:S:1:pos:R:3:forces:R:3 energy=-41.10457992553711 free_energy=-41.10457992553711 stress="3.2912997994571924e-05 5.5214030680872384e-08 1.499985131658832e-07 5.5214030680872384e-08 3.320587711641565e-05 1.2693479334302538e-07 1.499985131658832e-07 1.2693479334302538e-07 3.304781421320513e-05" pbc="T T T"
Te       1.58912714       1.12367891       2.75244353       0.00006324      -0.00001837       0.00001223
Te       4.76737161       3.37104336       8.25732318       0.00001234       0.00005646      -0.00010648
Sn       0.00000004       0.00000018      -0.00000007      -0.00000445      -0.00000170       0.00000002
O        1.63455108       1.15580041       5.50488580       0.00069755       0.00046778      -0.00000424
O        4.72194300       3.33891995       5.50488884      -0.00069618      -0.00045639       0.00005236
O        3.95009372       1.15579985       4.16800571      -0.00037709       0.00044233       0.00060028
O        2.40639958       3.33891861       6.84176714       0.00035575      -0.00048518      -0.00058234
O        2.40639722       3.33891833       4.16800600       0.00031233      -0.00048864       0.00060648
O        3.95009490       1.15580190       6.84176735      -0.00036368       0.00048387      -0.00057888
