9
Lattice="5.690770446047253 5.0114005136143724e-08 3.285568223600722 1.896923497596245 5.365310477077749 3.285568278450356 -4.3648199875701474e-08 3.6312888965889834e-08 6.571136522802382" Properties=species:S:1:pos:R:3:forces:R:3 energy=-29.421794891357422 free_energy=-29.421794891357422 stress="0.00010608454613247886 -2.623684380864688e-09 3.2855819398491803e-08 -2.623684380864688e-09 0.00010610274330247194 5.712495365628456e-08 3.2855819398491803e-08 5.712495365628456e-08 0.00010601571557344869" pbc="T T T"
Te       1.89692160       1.34132812       3.28557059      -0.00001877       0.00000496       0.00001913
Te       5.69077188       4.02398460       9.85670459       0.00001279       0.00001477       0.00000055
Sn       0.00000022       0.00000010      -0.00000083      -0.00000505      -0.00000016       0.00001218
S        2.02750935       1.43366501       6.57113560      -0.00128136      -0.00091320      -0.00000988
S        5.56018553       3.93164386       6.57113621       0.00129391       0.00090577      -0.00000055
S        4.67701638       1.43366498       5.04144404       0.00064717      -0.00091907      -0.00111395
S        2.91067726       3.93164535       8.10082940      -0.00064627       0.00091162       0.00110291
S        2.91067731       3.93164508       5.04144291      -0.00064908       0.00090881      -0.00111325
S        4.67701607       1.43366509       8.10082956       0.00064680      -0.00091360       0.00110315
