9
Lattice="5.574733495903587 -1.0947207422517182e-08 3.2185736837622407 1.8582444689672528 5.255909001259711 3.2185737172708153 4.265435696805968e-09 4.405555276400177e-08 6.437147360136567" Properties=species:S:1:pos:R:3:forces:R:3 energy=-32.15592956542969 free_energy=-32.15592956542969 stress="6.406026659533381e-05 5.638108646621731e-08 -6.187286238912293e-09 5.638108646621731e-08 6.409932393580675e-05 2.3469416632337925e-08 -6.187286238912293e-09 2.3469416632337925e-08 6.409058551071212e-05" pbc="T T T"
Te       1.85824424       1.31397603       3.21857415      -0.00000192      -0.00001055       0.00000238
Te       5.57473349       3.94193311       9.65572312      -0.00000217       0.00001146       0.00001952
Si      -0.00000002      -0.00000008       0.00000016       0.00000109      -0.00000022       0.00000297
S        1.84410368       1.30397776       6.43714708      -0.00035483      -0.00025751      -0.00000117
S        5.58887431       3.95193162       6.43714658       0.00035128       0.00025427      -0.00000801
S        4.65268227       1.30397800       4.81561386       0.00018103      -0.00025144      -0.00030851
S        2.78029561       3.95193134       8.05868009      -0.00018120       0.00025503       0.00030345
S        2.78029615       3.95193087       4.81561381      -0.00017224       0.00025392      -0.00031099
S        4.65268210       1.30397752       8.05868010       0.00017945      -0.00025520       0.00030032
