9
Lattice="5.705795602581946 2.668199682075132e-08 3.294242402075918 1.901931908189133 5.379475601534088 3.2942423752190084 1.1338488320222098e-08 -2.4875282037650707e-08 6.588484784512966" Properties=species:S:1:pos:R:3:forces:R:3 energy=-30.410602569580078 free_energy=-30.410602569580078 stress="-6.54179384582676e-05 2.123686648758394e-08 1.9126817463188672e-08 2.123686648758394e-08 -6.541934999404475e-05 -1.1198510563303898e-08 1.9126817463188672e-08 -1.1198510563303898e-08 -6.535756983794272e-05" pbc="T T T"
Te       1.90193067       1.34486845       3.29424295      -0.00000716      -0.00000324       0.00000234
Te       5.70579573       4.03460753       9.88272644      -0.00000224       0.00000706      -0.00000382
Si       0.00000014       0.00000000       0.00000009      -0.00000163       0.00000029       0.00000317
Se       1.95211608       1.38035406       6.58848469       0.00115724       0.00081639      -0.00000144
Se       5.65561149       3.99912101       6.58848525      -0.00115259      -0.00081691       0.00000133
Se       4.72973787       1.38035410       4.98482431      -0.00057787       0.00081353       0.00100230
Se       2.87799015       3.99912170       8.19214506       0.00058107      -0.00081725      -0.00100344
Se       2.87799013       3.99912111       4.98482413       0.00057971      -0.00081769       0.00100246
Se       4.72973787       1.38035444       8.19214528      -0.00057662       0.00081784      -0.00100297
