9
Lattice="5.7440494940699836 -5.785524563906804e-08 3.316328720689107 1.9146831798533317 5.415541555570997 3.3163285999483407 1.324854313938155e-07 -5.419534297533189e-08 6.632657211906735" Properties=species:S:1:pos:R:3:forces:R:3 energy=-28.187904357910156 free_energy=-28.187904357910156 stress="7.969336365931667e-06 2.526761910814912e-08 -2.704824098032077e-08 2.526761910814912e-08 7.978534995345399e-06 -1.935248938877976e-08 -2.704824098032077e-08 -1.935248938877976e-08 7.842163540772162e-06" pbc="T T T"
Te       1.91468307       1.35388591       3.31632949       0.00000038       0.00000350       0.00000274
Te       5.74404883       4.06165585       9.94898663      -0.00000649      -0.00000010       0.00000519
Se      -0.00000037      -0.00000022       0.00000014       0.00000204       0.00000137      -0.00001100
S        1.87906354       1.32869778       6.63265710       0.00010675       0.00007388      -0.00000328
S        5.77966977       4.08684339       6.63265740      -0.00010854      -0.00007644      -0.00000100
S        4.80451887       1.32869798       4.94364453      -0.00005463       0.00008288       0.00009459
S        2.85421522       4.08684292       8.32166921       0.00005409      -0.00007498      -0.00008896
S        2.85421466       4.08684378       4.94364410       0.00005868      -0.00008318       0.00009423
S        4.80451771       1.32869850       8.32166954      -0.00005254       0.00007313      -0.00009257
