9
Lattice="4.629040705417267 6.862485808664409e-09 2.6725778761266334 1.5430135490489783 4.364301402830523 2.6725779209754137 -5.408666704847877e-08 1.6683263497328648e-08 5.345155845934106" Properties=species:S:1:pos:R:3:forces:R:3 energy=-40.15708923339844 free_energy=-40.15708923339844 stress="0.0004464494122657925 5.972565020329057e-08 1.1780969089159044e-08 5.972565020329057e-08 0.0004466805257834494 6.610828506836697e-08 1.1780969089159044e-08 6.610828506836697e-08 0.00044668541522696614" pbc="T T T"
Te       1.54301159       1.09107673       2.67257749      -0.00003161       0.00002222      -0.00000415
Te       4.62904033       3.27322545       8.01773475      -0.00000650      -0.00000590       0.00001414
Se       0.00000006      -0.00000012       0.00000019       0.00000269       0.00000176      -0.00000062
O        1.50908457       1.06708382       5.34515586       0.00117934       0.00083166       0.00000392
O        4.66297031       3.29721692       5.34515540      -0.00117183      -0.00084633      -0.00000653
O        3.87449937       1.06708438       3.97948354      -0.00057399       0.00083864       0.00102168
O        2.29755557       3.29721720       6.71082838       0.00058883      -0.00084001      -0.00101954
O        2.29755597       3.29721740       3.97948322       0.00059414      -0.00083655       0.00101823
O        3.87449897       1.06708387       6.71082787      -0.00058061       0.00083399      -0.00102663
