9
Lattice="4.555801109479303 -8.412605246185936e-08 2.630293003550679 1.5186003695654853 4.295250089381671 2.6302928666253864 1.4612509898955363e-07 -6.437250400251426e-08 5.260585754005233" Properties=species:S:1:pos:R:3:forces:R:3 energy=-48.45002746582031 free_energy=-48.45002746582031 stress="9.436095569981262e-05 -7.386003630927007e-08 7.981620697705694e-09 -7.386003630927007e-08 9.438807319384068e-05 -5.5154231404230813e-08 7.981620697705694e-09 -5.5154231404230813e-08 9.421195136383176e-05" pbc="T T T"
Te       1.51859999       1.07381424       2.63029185      -0.00001433       0.00002927      -0.00001998
Te       4.55579881       3.22143497       7.89087751      -0.00004188      -0.00004161      -0.00002386
Si       0.00000009      -0.00000017       0.00000011       0.00000764       0.00000801       0.00000042
O        1.44670247       1.02297355       5.26058618      -0.00018787      -0.00012267       0.00000860
O        4.62769966       3.27227617       5.26058657       0.00019276       0.00011468       0.00000976
O        3.83245036       1.02297380       3.88317376       0.00010270      -0.00011683      -0.00016201
O        2.24195287       3.27227638       6.63799848      -0.00007826       0.00012094       0.00017810
O        2.24195231       3.27227690       3.88317379      -0.00007999       0.00012648      -0.00016439
O        3.83245011       1.02297375       6.63799808       0.00009900      -0.00011575       0.00017214
