9
Lattice="6.1076459657284845 1.2564441390357793e-07 3.526251142862274 2.0358820771830777 5.758343859377037 3.5262511945668447 -4.4167378815466566e-08 3.20939368204652e-08 7.05250236222462" Properties=species:S:1:pos:R:3:forces:R:3 energy=-29.135051727294922 free_energy=-29.135051727294922 stress="-4.100096339243464e-05 -1.2570359864128022e-08 -7.617200203924313e-09 -1.2570359864128022e-08 -4.098672070540488e-05 -1.6883483500151897e-09 -7.617200203924313e-09 -1.6883483500151897e-09 -4.0985309169627726e-05" pbc="T T T"
Te       2.03588197       1.43958562       3.52625144      -0.00000155      -0.00000118      -0.00000023
Te       6.10764606       4.31875739      10.57875333       0.00000086      -0.00000051      -0.00000099
Sn      -0.00000035      -0.00000163      -0.00000040      -0.00000018       0.00000257       0.00000123
Se       2.54517287       1.79970881       7.05250332       0.00085434       0.00060513       0.00000059
Se       5.59835603       3.95863680       7.05250249      -0.00085963      -0.00060869       0.00000099
Se       4.83505983       1.79970921       5.73043539      -0.00042567       0.00060537       0.00074171
Se       3.30846771       3.95863609       8.37456955       0.00043089      -0.00060637      -0.00074442
Se       3.30846816       3.95863490       5.73043418       0.00042798      -0.00060435       0.00074339
Se       4.83505979       1.79970890       8.37456968      -0.00042703       0.00060805      -0.00074223
