9
Lattice="4.620511105986263 1.0645188989061048e-07 2.6676533134277522 1.5401705058342114 4.356259654381816 2.6676532496738874 1.0504011407333162e-07 -3.807643608470333e-09 5.335306444920702" Properties=species:S:1:pos:R:3:forces:R:3 energy=-42.452598571777344 free_energy=-42.452598571777344 stress="0.00017471460159868002 -1.291451638962826e-07 -2.340480023121927e-07 -1.291451638962826e-07 0.00017504804418422282 -1.3704311641049571e-07 -2.340480023121927e-07 -1.3704311641049571e-07 0.00017489561287220567" pbc="T T T"
Te       1.54016937       1.08906517       2.66765362      -0.00001734       0.00000484       0.00000521
Te       4.62051040       3.26719403       8.00295872      -0.00001014      -0.00001114      -0.00001621
S        0.00000015       0.00000015      -0.00000001      -0.00000044      -0.00000452      -0.00000400
O        1.40557774       0.99389363       5.33530636      -0.00187790      -0.00132775       0.00000111
O        4.75510421       3.36236598       5.33530688       0.00188780       0.00133026       0.00000619
O        3.91772270       0.99389343       3.88491921       0.00094384      -0.00132942      -0.00162387
O        2.24295984       3.36236636       6.78569421      -0.00093263       0.00133240       0.00162923
O        2.24295942       3.36236625       3.88491886      -0.00093693       0.00133049      -0.00162899
O        3.91772303       0.99389400       6.78569414       0.00094533      -0.00132477       0.00163102
