9
Lattice="5.71961324033578 -7.243445469131717e-08 3.3022202570886834 1.906537696584001 5.392502811567938 3.3022202257432953 2.209518291680631e-07 1.178464489297651e-07 6.604440131477582" Properties=species:S:1:pos:R:3:forces:R:3 energy=-38.295875549316406 free_energy=-38.295875549316406 stress="8.559351408621296e-05 -4.727911218083136e-08 1.0135880579298373e-08 -4.727911218083136e-08 8.574817911721766e-05 1.0752605028585549e-08 1.0135880579298373e-08 1.0752605028585549e-08 8.567698387196288e-05" pbc="T T T"
Te       1.90653920       1.34812542       3.30221944       0.00000518      -0.00000082      -0.00000276
Te       5.71961219       4.04437753       9.90666037      -0.00000452       0.00000038      -0.00000154
Ta      -0.00000017       0.00000029      -0.00000037       0.00000307      -0.00000061       0.00000870
Se       2.05108202       1.45033356       6.60444029      -0.00341603      -0.00241938       0.00000088
Se       5.57506948       3.94216955       6.60444058       0.00341411       0.00241676       0.00000224
Se       4.69407207       1.45033429       5.07850921       0.00171133      -0.00241792      -0.00296254
Se       2.93207903       3.94216888       8.13037165      -0.00170667       0.00241522       0.00296146
Se       2.93207904       3.94216845       5.07850950      -0.00171143       0.00242172      -0.00296637
Se       4.69407183       1.45033346       8.13037184       0.00170486      -0.00241534       0.00296000
