9
Lattice="4.622356528250352 1.4605132786854188e-08 2.6687187674970034 1.5407855081562174 4.357999531358045 2.6687187935304584 5.804874453522891e-09 3.598899690323827e-08 5.337437524939664" Properties=species:S:1:pos:R:3:forces:R:3 energy=-50.500789642333984 free_energy=-50.500789642333984 stress="0.0003301024262327701 -2.0684634449708028e-08 -1.1010322253923732e-07 -2.0684634449708028e-08 0.00033018167596310377 2.8198977375382128e-08 -1.1010322253923732e-07 2.8198977375382128e-08 0.0003302918921690434" pbc="T T T"
Te       1.54078857       1.08949637       2.66871739       0.00006545      -0.00008765      -0.00003155
Te       4.62235674       3.26849981       8.00615816       0.00001781       0.00000794       0.00003749
Ti       0.00000020      -0.00000004       0.00000015       0.00000225      -0.00000015      -0.00000566
O        1.53060528       1.08230152       5.33743779       0.00118953       0.00084484       0.00000703
O        4.63253536       3.27570008       5.33743703      -0.00122470      -0.00080305      -0.00001081
O        3.85705350       1.08230184       3.99426139      -0.00060901       0.00085029       0.00102034
O        2.30608738       3.27569839       6.68061252       0.00058076      -0.00082862      -0.00104243
O        2.30608901       3.27569951       3.99426234       0.00060880      -0.00081539       0.00104591
O        3.85705215       1.08230084       6.68061358      -0.00063077       0.00083160      -0.00102061
