9
Lattice="5.739727265932693 -2.384103761164409e-08 3.313833058503676 1.9132423694144272 5.411467115540655 3.3138331106133614 1.0498350392348086e-08 7.124454124264673e-08 6.627666098823678" Properties=species:S:1:pos:R:3:forces:R:3 energy=-35.03824234008789 free_energy=-35.03824234008789 stress="-9.872324153548107e-05 7.623246034427211e-09 -9.37668520606394e-09 7.623246034427211e-09 -9.886292536975816e-05 -3.632336031955674e-08 -9.37668520606394e-09 -3.632336031955674e-08 -9.886517364066094e-05" pbc="T T T"
Te       1.91324235       1.35286599       3.31383437       0.00000042      -0.00000263       0.00000710
Te       5.73972773       4.05860024       9.94150085      -0.00000003       0.00000109       0.00001107
Ti      -0.00000017      -0.00000011       0.00000006       0.00000022       0.00000169       0.00000263
Se       1.99844860       1.41311707       6.62766583       0.00184879       0.00130622      -0.00000144
Se       5.65452085       3.99835046       6.62766589      -0.00185068      -0.00130771      -0.00000220
Se       4.74050274       1.41311676       5.04453965      -0.00092675       0.00131021       0.00159927
Se       2.91246638       3.99835099       8.21079128       0.00092656      -0.00130972      -0.00161070
Se       2.91246682       3.99835058       5.04453981       0.00092676      -0.00130852       0.00160099
Se       4.74050328       1.41311666       8.21079135      -0.00092537       0.00130946      -0.00160673
