9
Lattice="5.586366764443947 6.381820370979419e-09 3.225290275709653 1.8621222583191348 5.266876950862585 3.2252902800611927 8.93800889317738e-08 6.85307952858236e-08 6.450580396608423" Properties=species:S:1:pos:R:3:forces:R:3 energy=-41.051231384277344 free_energy=-41.051231384277344 stress="-7.844708306947723e-05 5.048938334084596e-08 4.2451642201513096e-08 5.048938334084596e-08 -7.837804878363386e-05 1.4061908082396712e-08 4.2451642201513096e-08 1.4061908082396712e-08 -7.84507064963691e-05" pbc="T T T"
Te       1.86212238       1.31671921       3.22529099      -0.00000364       0.00000088       0.00000282
Te       5.58636743       3.95015806       9.67587210       0.00000343       0.00000166       0.00001017
Ta      -0.00000007       0.00000006       0.00000016      -0.00000183      -0.00000239      -0.00000040
S        1.95765627       1.38427202       6.45058049      -0.00360957      -0.00255557      -0.00000347
S        5.49083239       3.88260508       6.45058026       0.00361567       0.00255694      -0.00000144
S        4.60753882       1.38427221       4.92066986       0.00180432      -0.00255311      -0.00312938
S        2.84094971       3.88260495       7.98049000      -0.00180871       0.00255466       0.00312430
S        2.84095071       3.88260499       4.92066987      -0.00180566       0.00255402      -0.00313001
S        4.60753886       1.38427151       7.98049003       0.00180627      -0.00255710       0.00312725
