9
Lattice="5.56447843067706 5.536772990805698e-08 3.2126530615618805 1.8548262068672143 5.246240441558664 3.212653042324 8.42747710123159e-08 3.602977928872574e-08 6.425305977155576" Properties=species:S:1:pos:R:3:forces:R:3 energy=-36.9521369934082 free_energy=-36.9521369934082 stress="-6.001934889354743e-05 1.1243123765325436e-08 -4.706183531766328e-08 1.1243123765325436e-08 -6.0093734646216035e-05 -1.0700042452072012e-07 -4.706183531766328e-08 -1.0700042452072012e-07 -6.010936704115011e-05" pbc="T T T"
Te       1.85482432       1.31156072       3.21265273      -0.00001427       0.00000341      -0.00000217
Te       5.56448031       3.93468052       9.63796055       0.00001404      -0.00000225       0.00001219
Ti      -0.00000006      -0.00000011      -0.00000010      -0.00000039      -0.00000283       0.00000193
S        1.92974280       1.36453478       6.42530640      -0.00325252      -0.00229758       0.00000161
S        5.48956124       3.88170584       6.42530538       0.00325842       0.00229892      -0.00000318
S        4.59960776       1.36453439       4.88385939       0.00162756      -0.00229596      -0.00280933
S        2.81969700       3.88170625       7.96675238      -0.00162955       0.00229661       0.00280848
S        2.81969794       3.88170590       4.88385915      -0.00162724       0.00229704      -0.00281586
S        4.59960755       1.36453384       7.96675247       0.00162420      -0.00229755       0.00280654
