9
Lattice="4.639743877783294 4.234318351396396e-08 2.6787573593699134 1.546581328511305 4.374392510024247 2.67875736630617 -1.4993737371191735e-08 -2.1070284828539457e-09 5.357514744709743" Properties=species:S:1:pos:R:3:forces:R:3 energy=-48.467681884765625 free_energy=-48.467681884765625 stress="0.00020577955001499504 2.033679180613035e-08 4.2750492923460115e-08 2.033679180613035e-08 0.00020596821559593081 3.1815854839578606e-08 4.2750492923460115e-08 3.1815854839578606e-08 0.0002059098769677803" pbc="T T T"
Te       1.54658178       1.09359783       2.67875637       0.00000582      -0.00000703      -0.00001377
Te       4.63974346       3.28079417       8.03627235      -0.00000769      -0.00000568       0.00000139
V       -0.00000005       0.00000002       0.00000010       0.00000103      -0.00000056      -0.00000153
O        1.52812174       1.08054494       5.35751520      -0.00080895      -0.00057471       0.00000776
O        4.65820344       3.29384764       5.35751457       0.00080526       0.00057590      -0.00000160
O        3.87568312       1.08054552       4.00214934       0.00040475      -0.00056803      -0.00070316
O        2.31064209       3.29384730       6.71288017      -0.00040048       0.00057340       0.00070477
O        2.31064208       3.29384755       4.00214957      -0.00040412       0.00057435      -0.00069982
O        3.87568305       1.08054530       6.71288017       0.00040403      -0.00056756       0.00070620
