9
Lattice="5.62856181942853 -2.248060813839242e-07 3.2496516742322394 1.8761870510353538 5.306658884376819 3.2496516918268896 8.13802668051845e-08 7.909349793720667e-08 6.4993032075097386" Properties=species:S:1:pos:R:3:forces:R:3 energy=-37.147212982177734 free_energy=-37.147212982177734 stress="6.867888441774994e-05 -4.8125592400083406e-08 2.328890680303175e-08 -4.8125592400083406e-08 6.872753147035837e-05 4.347866422449442e-08 2.328890680303175e-08 4.347866422449442e-08 6.864873284939677e-05" pbc="T T T"
Te       1.87618801       1.32666449       3.24965084       0.00000850      -0.00000276      -0.00000458
Te       5.62856230       3.97999340       9.74895518       0.00000581      -0.00000580       0.00000039
V       -0.00000001      -0.00000007      -0.00000018       0.00000069      -0.00000210       0.00000039
S        1.85882345       1.31438791       6.49930358      -0.00029829      -0.00020403       0.00000088
S        5.64592430       3.99227196       6.49930378       0.00029424       0.00021154       0.00000270
S        4.69914974       1.31438722       4.85944059       0.00014585      -0.00020942      -0.00025770
S        2.80559867       3.99227124       8.13916619      -0.00015233       0.00020927       0.00025710
S        2.80559961       3.99227184       4.85944045      -0.00014850       0.00021136      -0.00025502
S        4.69914982       1.31438693       8.13916595       0.00014387      -0.00020811       0.00025597
