9
Lattice="4.7135092852254585 -6.473598233092757e-08 2.7213458011552447 1.571169738032333 4.443938849841651 2.721345736507869 4.755186018710174e-08 -4.555229838785159e-08 5.44269151994826" Properties=species:S:1:pos:R:3:forces:R:3 energy=-48.23925018310547 free_energy=-48.23925018310547 stress="0.00013443929492495954 -3.951405957991483e-08 7.799847878686705e-08 -3.951405957991483e-08 0.00013452931307256222 -1.7678233632523188e-07 7.799847878686705e-08 -1.7678233632523188e-07 0.0001344114716630429" pbc="T T T"
Te       1.57117262       1.11098546       2.72134560       0.00005853       0.00002019      -0.00000724
Te       4.71351011       3.33295887       8.16403796       0.00001698       0.00009664       0.00001205
W        0.00000001      -0.00000004       0.00000014       0.00000235       0.00000794       0.00000165
O        1.57862263       1.11625343       5.44269124       0.00099468       0.00066864      -0.00000272
O        4.70605672       3.32768458       5.44269153      -0.00098872      -0.00069296      -0.00000222
O        3.92419692       1.11625272       4.08847306      -0.00052279       0.00066465       0.00086141
O        2.36048010       3.32768347       6.79691064       0.00048018      -0.00071502      -0.00085199
O        2.36048094       3.32768385       4.08847219       0.00048113      -0.00070173       0.00084180
O        3.92419623       1.11625255       6.79690980      -0.00052267       0.00065219      -0.00085282
