9
Lattice="5.8033586471880785 2.6397241511435994e-08 3.350570668202241 1.9344529248148652 5.471459005601181 3.35057063783719 -1.1373610528145124e-07 -1.1761302371733052e-07 6.70114153340122" Properties=species:S:1:pos:R:3:forces:R:3 energy=-39.221466064453125 free_energy=-39.221466064453125 stress="-6.931323150638491e-05 -6.542520303298716e-09 -3.004720638966063e-10 -6.542520303298716e-09 -6.93578549544327e-05 -1.4528565017712936e-08 -3.004720638966063e-10 -1.4528565017712936e-08 -6.935736746527255e-05" pbc="T T T"
Te       1.93445305       1.36786447       3.35057141       0.00000131      -0.00000103       0.00000309
Te       5.80335860       4.10359347      10.05171164      -0.00000155      -0.00000154       0.00000098
W       -0.00000013       0.00000004       0.00000040       0.00000220      -0.00000084      -0.00000022
Se       1.98554370       1.40399190       6.70114142      -0.00058937      -0.00041540      -0.00000094
Se       5.75226728       4.06746782       6.70114108       0.00058781       0.00041604      -0.00000100
Se       4.81058622       1.40399172       5.07010202       0.00029349      -0.00041597      -0.00050694
Se       2.92722529       4.06746720       8.33218069      -0.00029248       0.00041609       0.00050675
Se       2.92722518       4.06746716       5.07010215      -0.00029525       0.00041667      -0.00050905
Se       4.81058661       1.40399188       8.33218054       0.00029393      -0.00041402       0.00050716
