9
Lattice="5.68067013074582 3.775292828043119e-09 3.2797365973247405 1.893556773388451 5.355787064515668 3.2797364941282834 1.1378356501249489e-07 -4.593216897576038e-08 6.559472997570563" Properties=species:S:1:pos:R:3:forces:R:3 energy=-41.554595947265625 free_energy=-41.554595947265625 stress="0.00017591379582881927 -3.78311106885576e-08 6.217205594793995e-08 -3.78311106885576e-08 0.00017595676763448864 2.2177486513896838e-08 6.217205594793995e-08 2.2177486513896838e-08 0.00017587433103471994" pbc="T T T"
Te       1.89355723       1.33894621       3.27973739       0.00000413       0.00000002       0.00000487
Te       5.68067014       4.01684007       9.83921071      -0.00000020      -0.00000225       0.00000712
W       -0.00000014      -0.00000009      -0.00000034       0.00000277       0.00000183       0.00000699
S        1.89059889       1.33685535       6.55947265      -0.00118479      -0.00083663      -0.00000287
S        5.68362801       4.01893234       6.55947258       0.00117747       0.00083566      -0.00000216
S        4.73537083       1.33685564       4.91704294       0.00059060      -0.00083529      -0.00102863
S        2.83885572       4.01893169       8.20190295      -0.00058918       0.00083366       0.00102144
S        2.83885631       4.01893182       4.91704307      -0.00059286       0.00084051      -0.00102738
S        4.73537102       1.33685504       8.20190241       0.00059205      -0.00083752       0.00102058
