9
Lattice="5.740007205167309 3.2610606464553367e-07 3.3139951564789625 1.913336112958782 5.411730593846964 3.3139950344606146 1.5555480761079732e-07 -3.9447503518164584e-08 6.627990043529131" Properties=species:S:1:pos:R:3:forces:R:3 energy=-34.71116256713867 free_energy=-34.71116256713867 stress="9.057950228452682e-05 -1.5334394731780776e-07 -3.710271911927521e-08 -1.5334394731780776e-07 9.063016477739438e-05 4.323443647535896e-08 -3.710271911927521e-08 4.323443647535896e-08 9.058447176357731e-05" pbc="T T T"
Te       1.91333614       1.35293272       3.31399406      -0.00000105       0.00000034      -0.00000430
Te       5.74000482       4.05879880       9.94198313      -0.00001095       0.00000249      -0.00000872
Zr      -0.00000010      -0.00000017       0.00000096       0.00000455      -0.00000065      -0.00000496
Se       2.14362837       1.51577281       6.62799046       0.00224656       0.00158492       0.00000130
Se       5.50971619       3.89595879       6.62799106      -0.00224441      -0.00158507      -0.00000019
Se       4.66819309       1.51577387       5.17043158      -0.00111844       0.00158349       0.00194067
Se       2.98515141       3.89595426       8.08554934       0.00111872      -0.00158340      -0.00193138
Se       2.98515029       3.89595649       5.17043141       0.00112225      -0.00158611       0.00194347
Se       4.66819377       1.51577597       8.08554899      -0.00111724       0.00158389      -0.00193599
