9
Lattice="5.6071739054018 -8.31211875506333e-08 3.2373032709614913 1.8690578981185197 5.286494489962766 3.2373032570727522 7.86730903508063e-08 3.862011535116705e-08 6.474606405657191" Properties=species:S:1:pos:R:3:forces:R:3 energy=-37.01300048828125 free_energy=-37.01300048828125 stress="-0.00010826903599081561 -8.187354794131352e-09 3.705760143191128e-09 -8.187354794131352e-09 -0.0001081661248463206 -5.484515064324569e-09 3.705760143191128e-09 -5.484515064324569e-09 -0.00010826145444298163" pbc="T T T"
Te       1.86905606       1.32162197       3.23730080      -0.00001342      -0.00001397      -0.00002253
Te       5.60717649       3.96487237       9.71190686       0.00002173       0.00001278      -0.00003289
Zr       0.00000011       0.00000016      -0.00000016      -0.00000073       0.00000038       0.00000373
S        2.02962374       1.43516097       6.47460704      -0.00775392      -0.00547992       0.00000738
S        5.44660775       3.85133405       6.47460784       0.00774765       0.00548191       0.00001424
S        4.59236216       1.43516060       4.99501032       0.00388227      -0.00548745      -0.00670307
S        2.88386947       3.85133334       7.95420445      -0.00387678       0.00548128       0.00671520
S        2.88386975       3.85133395       4.99501039      -0.00388273       0.00548850      -0.00670031
S        4.59236198       1.43516034       7.95420419       0.00387594      -0.00548357       0.00671850
