9
Lattice="5.711556782287254 2.0473680839089058e-08 3.297568807064597 1.9038523064667916 5.384907363119278 3.2975687613356333 -9.974644406751426e-09 -6.305944695602376e-08 6.595137631405793" Properties=species:S:1:pos:R:3:forces:R:3 energy=-31.31902313232422 free_energy=-31.31902313232422 stress="3.318017115816474e-05 -1.620797362988924e-08 -1.1034323454950368e-09 -1.620797362988924e-08 3.321782423881814e-05 -1.419667672308833e-08 -1.1034323454950368e-09 -1.419667672308833e-08 3.3150532544823363e-05" pbc="T T T"
Ti       1.90385226       1.34622628       3.29756890      -0.00000040      -0.00000348      -0.00000043
Ti       5.71155670       4.03867991       9.89270687       0.00000054      -0.00000227       0.00000463
Au       0.00000005      -0.00000000      -0.00000011      -0.00000107       0.00000191       0.00000084
Cl       1.97163648       1.39415764       6.59513762       0.00224210       0.00158643      -0.00000023
Cl       5.64377250       3.99075012       6.59513748      -0.00224354      -0.00158422      -0.00000138
Cl       4.72573867       1.39415773       5.00505595      -0.00112024       0.00158718       0.00194047
Cl       2.88967037       3.99074995       8.18521902       0.00112104      -0.00158578      -0.00194537
Cl       2.88967056       3.99075013       5.00505583       0.00112234      -0.00158541       0.00194363
Cl       4.72573872       1.39415746       8.18521924      -0.00112086       0.00158547      -0.00194234
