9
Lattice="4.771836070932635 1.0698842738962157e-08 2.755020982502979 1.5906121427705981 4.498929848460082 2.7550207936411257 3.6770284478720297e-07 2.8697605986470885e-08 5.510041328125959" Properties=species:S:1:pos:R:3:forces:R:3 energy=-42.61009216308594 free_energy=-42.61009216308594 stress="0.00043392361840233207 8.68565841471991e-09 -1.0432400188165047e-07 8.68565841471991e-09 0.00043383907177485526 -5.133499669796038e-08 -1.0432400188165047e-07 -5.133499669796038e-08 0.00043383630691096187" pbc="T T T"
Ti       1.59061105       1.12473325       2.75502021      -0.00000844       0.00000555      -0.00000731
Ti       4.77183657       3.37419761       8.26506275       0.00000105       0.00000214       0.00000190
Au       0.00000010       0.00000006       0.00000016       0.00000559      -0.00001308       0.00000374
F        1.71864394       1.21526420       5.51004264       0.00138324       0.00097431       0.00000706
F        4.64380503       3.28366542       5.51004065      -0.00137591      -0.00097765      -0.00000451
F        3.91251492       1.21526426       4.24340999      -0.00068808       0.00097591       0.00120080
F        2.44993416       3.28366569       6.77667296       0.00068733      -0.00097205      -0.00119129
F        2.44993404       3.28366463       4.24340993       0.00068498      -0.00097379       0.00118861
F        3.91251486       1.21526464       6.77667311      -0.00068958       0.00097868      -0.00119913
