9
Lattice="6.543737185172809 3.1398155509529805e-08 3.7780283683238967 2.1812457357085906 6.169494506106814 3.77802840692231 -3.482896207857289e-08 2.264541515782432e-08 7.556056796973339" Properties=species:S:1:pos:R:3:forces:R:3 energy=-25.2465877532959 free_energy=-25.2465877532959 stress="0.0001586145517649129 -2.983135960477057e-09 -9.085392882468568e-09 -2.983135960477057e-09 0.00015859742416068912 -1.4225531863587548e-09 -9.085392882468568e-09 -1.4225531863587548e-09 0.0001586240978213027" pbc="T T T"
Ti       2.18124599       1.54237372       3.77802847       0.00000117       0.00000065      -0.00000060
Ti       6.54373732       4.62712120      11.33408543      -0.00000005       0.00000082       0.00000060
Au      -0.00000002      -0.00000002      -0.00000026      -0.00000077       0.00000010       0.00000049
I        2.28105709       1.61295094       7.55605689       0.00007676       0.00005459      -0.00000043
I        6.44392588       4.55654352       7.55605671      -0.00007671      -0.00005478      -0.00000003
I        5.40320856       1.61295082       5.75348175      -0.00003861       0.00005386       0.00006629
I        3.32177403       4.55654358       9.35863180       0.00003844      -0.00005475      -0.00006700
I        3.32177426       4.55654360       5.75348183       0.00003866      -0.00005485       0.00006700
I        5.40320844       1.61295089       9.35863169      -0.00003882       0.00005439      -0.00006628
