9
Lattice="5.782468305818927 -1.0935710106225338e-08 3.3385096046876854 1.9274894171095953 5.451763166702477 3.3385096182896197 -3.143037916455068e-08 -5.565758194447256e-09 6.677019263814368" Properties=species:S:1:pos:R:3:forces:R:3 energy=-32.50410079956055 free_energy=-32.50410079956055 stress="0.00020538436365313828 -3.3358169559960515e-08 -1.5206847336912688e-08 -3.3358169559960515e-08 0.00020541375852189958 -3.034991591377434e-09 -1.5206847336912688e-08 -3.034991591377434e-09 0.00020540741388686" pbc="T T T"
Ti       1.92748966       1.36294119       3.33850956       0.00000076       0.00000213      -0.00000095
Ti       5.78246896       4.08882174      10.01552953       0.00000258      -0.00000262       0.00000508
Be       0.00000000       0.00000001       0.00000019       0.00000000      -0.00000012       0.00000028
Br       1.89283458       1.33843662       6.67701901       0.00030616       0.00021735       0.00000039
Br       5.81712295       4.11332661       6.67701891      -0.00030729      -0.00021744      -0.00000156
Br       4.83605090       1.33843656       4.97775273      -0.00015519       0.00021684       0.00026456
Br       2.87390673       4.11332696       8.37628553       0.00015246      -0.00021851      -0.00026818
Br       2.87390665       4.11332672       4.97775291       0.00015461      -0.00021624       0.00026635
Br       4.83605027       1.33843619       8.37628555      -0.00015401       0.00021852      -0.00026586
