9
Lattice="5.474347448057298 -3.736197726486135e-08 3.160615801479002 1.8247824745537877 5.161264149910328 3.1606157545521207 -1.6252342057434524e-08 -6.89655975566123e-08 6.321231631107902" Properties=species:S:1:pos:R:3:forces:R:3 energy=-36.35626983642578 free_energy=-36.35626983642578 stress="0.0001330683589912951 -2.2457882664639328e-08 2.4644130292017508e-08 -2.2457882664639328e-08 0.00013297979603521526 -1.6290117865747078e-10 2.4644130292017508e-08 -1.6290117865747078e-10 0.00013306978507898748" pbc="T T T"
Ti       1.82478292       1.29031632       3.16061521       0.00000331       0.00000112      -0.00000365
Ti       5.47434818       3.87094916       9.48184912       0.00000533       0.00000806       0.00000916
Be      -0.00000013      -0.00000005      -0.00000007      -0.00000018      -0.00000066      -0.00000032
Cl       1.77590293       1.25575255       6.32123164       0.00108364       0.00076466       0.00000131
Cl       5.52322693       3.90551107       6.32123113      -0.00108465      -0.00076812      -0.00000103
Cl       4.58639594       1.25575299       4.69859279      -0.00054025       0.00076439       0.00093873
Cl       2.71273338       3.90551107       7.94387013       0.00053814      -0.00076701      -0.00094012
Cl       2.71273400       3.90551063       4.69859245       0.00053939      -0.00076582       0.00093585
Cl       4.58639544       1.25575239       7.94387036      -0.00054500       0.00076344      -0.00093993
