9
Lattice="6.369665952271098 -1.550953171816892e-08 3.677528333523919 2.1232219798283145 6.00537858659438 3.6775283155790808 9.997430954838847e-09 -1.490863029771659e-08 7.355056649731767" Properties=species:S:1:pos:R:3:forces:R:3 energy=-27.0104923248291 free_energy=-27.0104923248291 stress="0.00015377845556940883 -2.9861260131269773e-09 -1.0365939218104359e-09 -2.9861260131269773e-09 0.0001537736097816378 -2.3619934896856876e-09 -1.0365939218104359e-09 -2.3619934896856876e-09 0.0001537934731459245" pbc="T T T"
Ti       2.12322221       1.50134472       3.67752819      -0.00000026      -0.00000055      -0.00000017
Ti       6.36966573       4.50403430      11.03258463      -0.00000208       0.00000337      -0.00000361
Cu       0.00000006       0.00000012       0.00000008      -0.00000052       0.00000047      -0.00000076
I        2.15705125       1.52526548       7.35505680      -0.00208040      -0.00147159      -0.00000030
I        6.33583637       4.48011268       7.35505687       0.00208201       0.00147280       0.00000089
I        5.29114037       1.52526530       5.54558979       0.00103931      -0.00147341      -0.00180301
I        3.20174786       4.48011295       9.16452365      -0.00103930       0.00147188       0.00180311
I        3.20174766       4.48011307       5.54558965      -0.00104002       0.00147031      -0.00180129
I        5.29114028       1.52526560       9.16452355       0.00104129      -0.00147331       0.00180503
