9
Lattice="5.817550260911507 2.4547917145725384e-08 3.3587642113993135 1.939183455582655 5.4848391665958625 3.3587641903811822 1.79048615932331e-08 -1.3081183048282756e-08 6.717528391786475" Properties=species:S:1:pos:R:3:forces:R:3 energy=-34.016422271728516 free_energy=-34.016422271728516 stress="0.0001875656598713249 1.119272852179165e-08 1.587260278768099e-08 1.119272852179165e-08 0.000187592493603006 1.3170104118387371e-08 1.587260278768099e-08 1.3170104118387371e-08 0.00018752789765130728" pbc="T T T"
Ti       1.93918403       1.37120989       3.35876366       0.00000285       0.00000018      -0.00000185
Ti       5.81755036       4.11362931      10.07629340       0.00000008      -0.00000032       0.00000088
Co      -0.00000007       0.00000022      -0.00000015       0.00000085      -0.00000052       0.00000256
Br       1.95401186       1.38169520       6.71752834      -0.00042972      -0.00030335       0.00000008
Br       5.80272176       4.10314379       6.71752831       0.00042863       0.00030313       0.00000011
Br       4.84054407       1.38169512       5.05098830       0.00021366      -0.00030314      -0.00037246
Br       2.91618927       4.10314387       8.38406843      -0.00021461       0.00030211       0.00037076
Br       2.91618964       4.10314415       5.05098842      -0.00021382       0.00030488      -0.00037136
Br       4.84054401       1.38169517       8.38406844       0.00021210      -0.00030293       0.00037160
