9
Lattice="4.535351344782729 -6.529082629591178e-08 2.618486342555677 1.5117837446467792 4.275970117116242 2.618486299931073 -1.0049212668772446e-07 -1.2326293835846082e-07 5.236972859168817" Properties=species:S:1:pos:R:3:forces:R:3 energy=-47.653053283691406 free_energy=-47.653053283691406 stress="0.0002799661597236991 -8.222379221933807e-08 4.096042971468705e-08 -8.222379221933807e-08 0.000280040898360312 -3.175956919676537e-08 4.096042971468705e-08 -3.175956919676537e-08 0.00027999738813377917" pbc="T T T"
Ti       1.51178346       1.06899219       2.61848658      -0.00000132      -0.00000280       0.00000183
Ti       4.53535147       3.20697792       7.85545909       0.00000145       0.00000351       0.00000101
Cu      -0.00000003      -0.00000005      -0.00000013       0.00000609       0.00000580       0.00000314
F        1.56747488       1.10837219       5.23697250       0.00109278       0.00077309      -0.00000196
F        4.47966034       3.16759772       5.23697256      -0.00110056      -0.00077882      -0.00000094
F        3.75161368       1.10837182       3.97595964      -0.00054900       0.00077183       0.00094780
F        2.29552127       3.16759781       6.49798617       0.00055077      -0.00077391      -0.00094976
F        2.29552120       3.16759821       3.97595999       0.00054747      -0.00077058       0.00094898
F        3.75161366       1.10837182       6.49798577      -0.00054750       0.00077189      -0.00094979
