9
Lattice="5.51567352238428 4.403553135708239e-08 3.1844756820206066 1.838557892496867 5.2002269297784665 3.1844756643796384 3.032740426421827e-08 -1.6096667273125538e-10 6.368951311512607" Properties=species:S:1:pos:R:3:forces:R:3 energy=-37.65513610839844 free_energy=-37.65513610839844 stress="0.0003043434116989374 -2.437765012075488e-08 5.193875107778467e-09 -2.437765012075488e-08 0.00030436250381171703 2.1108248482448744e-09 5.193875107778467e-09 2.1108248482448744e-09 0.0003043602919206023" pbc="T T T"
Ti       1.83855857       1.30005613       3.18447545       0.00000494      -0.00000435      -0.00000097
Ti       5.51567305       3.90016951       9.55342634      -0.00000392      -0.00000277      -0.00000284
Co      -0.00000010       0.00000014       0.00000026      -0.00000011       0.00000269      -0.00000573
Cl       1.84390237       1.30383590       6.36895129      -0.00117552      -0.00082836       0.00000089
Cl       5.51032878       3.89639155       6.36895153       0.00117293       0.00083220      -0.00000030
Cl       4.59372234       1.30383617       4.78134195       0.00058672      -0.00082874      -0.00101823
Cl       2.76050953       3.89639095       7.95656086      -0.00058715       0.00083181       0.00101876
Cl       2.76050908       3.89639127       4.78134209      -0.00058700       0.00082912      -0.00101335
Cl       4.59372219       1.30383631       7.95656083       0.00058932      -0.00083160       0.00102178
