9
Lattice="3.8313067895529818 -2.707120523491816e-07 2.2120060562749835 1.2771021264670748 3.612191301301316 2.2120058510057317 2.877534932756086e-08 -2.310555606923964e-07 4.424012062709613" Properties=species:S:1:pos:R:3:forces:R:3 energy=-59.89402389526367 free_energy=-59.89402389526367 stress="6.433865200961009e-05 -2.3524739845015574e-07 -2.8218622105669056e-07 -2.3524739845015574e-07 6.74014154355973e-05 1.1497155583128915e-06 -2.8218622105669056e-07 1.1497155583128915e-06 6.531768303830177e-05" pbc="T T T"
Ti       1.27710217       0.90304797       2.21200593       0.00001088      -0.00002318       0.00001797
Ti       3.83130688       2.70914293       6.63601771      -0.00001021       0.00001422       0.00001644
C       -0.00000000      -0.00000012      -0.00000024      -0.00000156       0.00002281       0.00006062
F        1.24203638       0.87825289       4.42401260       0.00041389       0.00029325      -0.00000226
F        3.86637230       2.73393870       4.42401217      -0.00042391      -0.00028324       0.00000833
F        3.21028699       0.87825123       3.28764195      -0.00024176       0.00024891       0.00031519
F        1.89811916       2.73393744       5.56038232       0.00017262      -0.00032759      -0.00036907
F        1.89812248       2.73393898       3.28764055       0.00024414      -0.00025368       0.00033236
F        3.21028979       0.87825335       5.56038293      -0.00016594       0.00030994      -0.00038195
