9
Lattice="5.415570341508568 -2.781164520822322e-08 3.1266809271400264 1.8051900692263312 5.105848639496863 3.1266809589903 -4.931169808202303e-08 4.139852387142157e-09 6.253361939690421" Properties=species:S:1:pos:R:3:forces:R:3 energy=-46.0333366394043 free_energy=-46.0333366394043 stress="-0.0001211984344990924 4.930345909315292e-09 2.997527559500668e-08 4.930345909315292e-09 -0.0001212437855429016 -1.2157700624015888e-08 2.997527559500668e-08 -1.2157700624015888e-08 -0.00012126420915592462" pbc="T T T"
Ti       1.80519077       1.27646104       3.12667903       0.00000180      -0.00000392      -0.00000745
Ti       5.41556896       3.82938689       9.38004146      -0.00000365       0.00000155      -0.00000507
Cr      -0.00000018       0.00000005       0.00000022       0.00000286       0.00000093       0.00000323
Se       1.94136047       1.37274893       6.25336246      -0.00245866      -0.00173885       0.00000104
Se       5.27940013       3.73310020       6.25336294       0.00245389       0.00173846       0.00000460
Se       4.44489086       1.37274926       4.80794868       0.00123140      -0.00173575      -0.00212616
Se       2.77587039       3.73309981       7.69877602      -0.00122727       0.00173864       0.00212693
Se       2.77587041       3.73309950       4.80794804      -0.00122800       0.00173679      -0.00212666
Se       4.44488959       1.37274879       7.69877638       0.00122753      -0.00173798       0.00212950
