9
Lattice="4.01548162764021 -2.8128403142075435e-08 2.3183392450598173 1.3384939163326686 3.78583216427801 2.3183391290603788 4.3922072141622596e-08 -1.1101215015388916e-07 4.636678414044373" Properties=species:S:1:pos:R:3:forces:R:3 energy=-66.06350708007812 free_energy=-66.06350708007812 stress="-5.099307145428611e-06 9.894201014049031e-08 2.915088259669574e-07 9.894201014049031e-08 -5.207471531321062e-06 2.1553473672497603e-08 2.915088259669574e-07 2.1553473672497603e-08 -5.493451226357138e-06" pbc="T T T"
Ti       1.33849429       0.94645806       2.31833904      -0.00000159       0.00000090      -0.00000087
Ti       4.01548189       2.83937453       6.95501740       0.00000018       0.00000006       0.00000062
C       -0.00000006      -0.00000006      -0.00000013       0.00000237       0.00000019      -0.00000046
O        1.23549416       0.87362626       4.63667850       0.00008500       0.00005823      -0.00000331
O        4.11848146       2.91220553       4.63667829      -0.00008905      -0.00006109       0.00000755
O        3.39773453       0.87362597       3.38830821      -0.00005040       0.00005800       0.00008398
O        1.95624095       2.91220592       5.88504847       0.00005034      -0.00005525      -0.00008100
O        1.95624085       2.91220598       3.38830820       0.00004262      -0.00006181       0.00007820
O        3.39773446       0.87362589       5.88504889      -0.00004193       0.00006175      -0.00008416
