9
Lattice="5.613466317942557 6.252874573607138e-08 3.240936411044491 1.8711554778935087 5.292427017473116 3.2409364463321575 4.898668227451314e-08 7.7857195876283e-08 6.481872737241573" Properties=species:S:1:pos:R:3:forces:R:3 energy=-32.69633483886719 free_energy=-32.69633483886719 stress="0.0002364234096603468 -6.90661139390869e-10 -1.4603150688685673e-08 -6.90661139390869e-10 0.0002364713145652786 -1.2372061153342884e-09 -1.4603150688685673e-08 -1.2372061153342884e-09 0.00023645928013138473" pbc="T T T"
Ti       1.87115527       1.32310656       3.24093657      -0.00000111      -0.00000207       0.00000007
Ti       5.61346661       3.96932095       9.72281048       0.00000416       0.00000523       0.00001046
C        0.00000022      -0.00000061      -0.00000076      -0.00000049      -0.00000018      -0.00000145
Cl       1.90719344       1.34858938       6.48187258       0.00118356       0.00083518       0.00000041
Cl       5.57742826       3.94383792       6.48187248      -0.00118224      -0.00083613      -0.00000373
Cl       4.65986974       1.34858945       4.89261450      -0.00059160       0.00083640       0.00102381
Cl       2.82475192       3.94383778       8.07113115       0.00058829      -0.00083674      -0.00102568
Cl       2.82475229       3.94383795       4.89261447       0.00059208      -0.00083539       0.00102268
Cl       4.65986954       1.34858929       8.07113092      -0.00059271       0.00083386      -0.00102673
