9
Lattice="5.222426158810557 -7.929863531465364e-08 3.0151690600059413 1.7408086988378646 4.923750219022518 3.015168966478967 4.60441799106992e-08 -8.198851478733406e-08 6.030338040261025" Properties=species:S:1:pos:R:3:forces:R:3 energy=-43.87226867675781 free_energy=-43.87226867675781 stress="0.00010284894233336672 -1.331431764839408e-08 -3.642205115284014e-08 -1.331431764839408e-08 0.00010289576312061399 1.836506946517602e-08 -3.642205115284014e-08 1.836506946517602e-08 0.00010290949285263196" pbc="T T T"
Ti       1.74080911       1.23093745       3.01516868       0.00000158       0.00000184      -0.00000128
Ti       5.22242606       3.69281257       9.04550678      -0.00000033       0.00000009      -0.00000092
C       -0.00000018       0.00000010      -0.00000175      -0.00000183      -0.00000259      -0.00003439
S        1.62362335       1.14807507       6.03033730      -0.00360817      -0.00254762      -0.00000491
S        5.33961188       3.77567540       6.03033735       0.00360778       0.00254990      -0.00000388
S        4.41061443       1.14807452       4.42126899       0.00179957      -0.00254679      -0.00311324
S        2.55262034       3.77567565       7.63940897      -0.00180659       0.00255798       0.00313528
S        2.55262045       3.77567498       4.42126855      -0.00179830       0.00254391      -0.00311309
S        4.41061415       1.14807457       7.63940928       0.00180627      -0.00255659       0.00313665
