9
Lattice="6.444780075728137 -2.914680925961131e-08 3.720895433527044 2.1482600013823956 6.076196866869533 3.7208954272577004 -3.191567125314124e-08 -3.024608997229591e-08 7.441790922333658" Properties=species:S:1:pos:R:3:forces:R:3 energy=-33.238037109375 free_energy=-33.238037109375 stress="8.700017497176304e-05 2.6372989125889035e-08 5.374633627042158e-09 2.6372989125889035e-08 8.69787618285045e-05 -7.222076714441528e-09 5.374633627042158e-09 -7.222076714441528e-09 8.694722782820463e-05" pbc="T T T"
Ti       2.14825978       1.51904962       3.72089597      -0.00000043       0.00000184       0.00000245
Ti       6.44477968       4.55714707      11.16268742      -0.00000051      -0.00000253       0.00000315
Cr      -0.00000012       0.00000013       0.00000035       0.00000142      -0.00000279      -0.00000560
I        2.15427140       1.52330005       7.44179072       0.00042330       0.00029942      -0.00000252
I        6.43876860       4.55289684       7.44179063      -0.00042268      -0.00029856      -0.00000153
I        5.36764461       1.52329992       5.58654872      -0.00021362       0.00030309       0.00036857
I        3.22539587       4.55289652       9.29703221       0.00021018      -0.00029802      -0.00036543
I        3.22539601       4.55289700       5.58654902       0.00021295      -0.00030173       0.00036742
I        5.36764438       1.52330008       9.29703209      -0.00021063       0.00029923      -0.00036643
