9
Lattice="5.556487032552115 9.908913933093644e-09 3.2080392112145883 1.8521623567581689 5.238706184626439 3.208039205616725 2.204480249658968e-08 8.732081220702357e-09 6.416078384246465" Properties=species:S:1:pos:R:3:forces:R:3 energy=-34.169891357421875 free_energy=-34.169891357421875 stress="0.00020083182607777417 -1.2849910024925748e-09 -2.6946243014691618e-09 -1.2849910024925748e-09 0.00020084147399757057 -1.1882697492637817e-08 -2.6946243014691618e-09 -1.1882697492637817e-08 0.00020083026902284473" pbc="T T T"
Ti       1.85216230       1.30967641       3.20803933       0.00000091      -0.00000201       0.00000083
Ti       5.55648707       3.92902929       9.62411772       0.00000055      -0.00000278       0.00000105
Cu      -0.00000009      -0.00000008      -0.00000022       0.00000042       0.00000060      -0.00000313
Cl       1.88144088       1.33037999       6.41607838       0.00102192       0.00072539      -0.00000071
Cl       5.52720850       3.90832657       6.41607843      -0.00102276      -0.00072367      -0.00000128
Cl       4.61576660       1.33037951       4.83741470      -0.00051321       0.00072688       0.00088727
Cl       2.79288304       3.90832666       7.99474195       0.00051069      -0.00072157      -0.00088543
Cl       2.79288288       3.90832666       4.83741482       0.00051294      -0.00072472       0.00088632
Cl       4.61576656       1.33037986       7.99474200      -0.00051141       0.00072189      -0.00088501
