9
Lattice="5.932508055957905 -2.6058446160066795e-08 3.425135280203171 1.977502688554606 5.5932221498156425 3.4251352320462347 6.722543938575682e-08 -1.144440044921908e-08 6.850270443968462" Properties=species:S:1:pos:R:3:forces:R:3 energy=-41.12939453125 free_energy=-41.12939453125 stress="-6.078616206650622e-05 1.1538160649138263e-08 9.887110685724565e-09 1.1538160649138263e-08 -6.077118814573623e-05 2.884293026639284e-09 9.887110685724565e-09 2.884293026639284e-09 -6.072192991268821e-05" pbc="T T T"
Ti       1.97750318       1.39830543       3.42513531       0.00000291       0.00000029      -0.00000015
Ti       5.93250820       4.19491678      10.27540520      -0.00000013      -0.00000018      -0.00000223
Co      -0.00000018      -0.00000018       0.00000032       0.00000172       0.00000197      -0.00000358
Te       1.99119941       1.40799032       6.85027057       0.00076954       0.00054414       0.00000044
Te       5.91881181       4.18523220       6.85027072      -0.00077525      -0.00054587       0.00000075
Te       4.93690809       1.40799024       5.14956427      -0.00038744       0.00054792       0.00067016
Te       2.97310244       4.18523145       8.55097658       0.00038688      -0.00054521      -0.00066847
Te       2.97310188       4.18523153       5.14956431       0.00038664      -0.00054765       0.00067075
Te       4.93690841       1.40799067       8.55097654      -0.00038488       0.00054441      -0.00066756
