9
Lattice="4.663653233551754 -4.613693686254334e-08 2.692561417706516 1.5545510652618546 4.396934692601857 2.6925613641694914 -3.590261506553759e-08 -9.095615797496213e-08 5.385122897598177" Properties=species:S:1:pos:R:3:forces:R:3 energy=-53.93915939331055 free_energy=-53.93915939331055 stress="0.0005086979363113642 2.281607613952019e-08 1.534844784600864e-08 2.281607613952019e-08 0.0005087564350105822 -6.299514865304445e-08 1.534844784600864e-08 -6.299514865304445e-08 0.0005086010787636042" pbc="T T T"
Ti       1.55455096       1.09923303       2.69256150       0.00000013      -0.00000564      -0.00000062
Ti       4.66365389       3.29770108       8.07768495       0.00000632       0.00000273       0.00000852
Cr       0.00000020      -0.00000001       0.00000016      -0.00000643       0.00000382       0.00000400
F        1.54228443       1.09056003       5.38512255       0.00009739       0.00007001       0.00000088
F        4.67591990       3.30637487       5.38512225      -0.00009888      -0.00006899      -0.00000286
F        3.89251124       1.09055932       4.02821910      -0.00004849       0.00006810       0.00008738
F        2.32569245       3.30637568       6.74202638       0.00005054      -0.00007197      -0.00009495
F        2.32569339       3.30637484       4.02821856       0.00005203      -0.00006914       0.00008541
F        3.89251069       1.09055935       6.74202724      -0.00005287       0.00007111      -0.00008786
