9
Lattice="4.173625615576559 -6.52437152715399e-09 2.409644148381524 1.3912085506812784 3.9349317596271005 2.4096441166728595 1.2186372887175836e-08 -3.021791658645617e-08 4.819288275655648" Properties=species:S:1:pos:R:3:forces:R:3 energy=-60.52191925048828 free_energy=-60.52191925048828 stress="0.00037788256304338574 7.494053733125838e-08 3.4463500497849964e-08 7.494053733125838e-08 0.00037811935180798173 7.674329793871948e-08 3.4463500497849964e-08 7.674329793871948e-08 0.0003779754042625427" pbc="T T T"
Ti       1.39120997       0.98373147       2.40964447       0.00001237      -0.00001288       0.00000043
Ti       4.17362513       2.95119908       7.22893200      -0.00000314      -0.00000047      -0.00000465
Co      -0.00000017      -0.00000018      -0.00000010       0.00000880       0.00000793       0.00000289
O        1.43431027       1.01421065       4.81928811       0.00354040       0.00250718      -0.00000561
O        4.13052409       2.92072127       4.81928889      -0.00355339      -0.00251055       0.00000611
O        3.45646976       1.01421068       3.65179333      -0.00177896       0.00250542       0.00306579
O        2.10836379       2.92072156       5.98678292       0.00177699      -0.00250039      -0.00306925
O        2.10836405       2.92072202       3.65179346       0.00177839      -0.00250363       0.00307560
O        3.45646968       1.01421030       5.98678330      -0.00178140       0.00250739      -0.00307083
