9
Lattice="5.876152567143926 2.116217221368896e-08 3.3925982440019204 1.9587175132112613 5.540089822303034 3.392598294442567 4.59733956639869e-08 9.428505191696376e-08 6.785196408375592" Properties=species:S:1:pos:R:3:forces:R:3 energy=-38.439884185791016 free_energy=-38.439884185791016 stress="6.94581467541866e-05 -3.485397304103799e-09 4.179536716719667e-08 -3.485397304103799e-09 6.943384505575523e-05 3.539637472016466e-09 4.179536716719667e-08 3.539637472016466e-09 6.93795082042925e-05" pbc="T T T"
Ti       1.95871734       1.38502249       3.39259872       0.00000040      -0.00000034       0.00000181
Ti       5.87615278       4.15506781      10.17779511       0.00000145       0.00000181       0.00000319
Cr       0.00000007      -0.00000011       0.00000008       0.00000129       0.00000414       0.00000077
Br       1.96970529       1.39279188       6.78519627       0.00050989       0.00036036      -0.00000066
Br       5.86516490       4.14729788       6.78519643      -0.00051199      -0.00036104       0.00000036
Br       4.89130005       1.39279207       5.09841298      -0.00025545       0.00035962       0.00043992
Br       2.94357007       4.14729788       8.47197977       0.00025564      -0.00036393      -0.00044605
Br       2.94357002       4.14729794       5.09841290       0.00025412      -0.00036137       0.00044387
Br       4.89129998       1.39279192       8.47197953      -0.00025555       0.00036088      -0.00044311
