9
Lattice="5.025515664754148 -1.8317822669986245e-08 2.9014827961422887 1.6751719188381475 4.738101296016399 2.9014827132515957 7.327525624203227e-08 -4.970656311239475e-08 5.802965465368127" Properties=species:S:1:pos:R:3:forces:R:3 energy=-47.38496780395508 free_energy=-47.38496780395508 stress="4.944642205373384e-05 1.9126298322902358e-09 2.3547727323602885e-08 1.9126298322902358e-09 4.945966065861285e-05 -4.055263347346738e-10 2.3547727323602885e-08 -4.055263347346738e-10 4.943451131111942e-05" pbc="T T T"
Ti       1.67517226       1.18452703       2.90148211       0.00000131       0.00000658      -0.00000193
Ti       5.02551524       3.55357476       8.70444651      -0.00000290      -0.00000485      -0.00000511
Co       0.00000024      -0.00000029       0.00000046      -0.00000174      -0.00000012       0.00000216
S        1.75125007       1.23832086       5.80296489      -0.00051188      -0.00036064      -0.00000134
S        4.94943770       3.49978029       5.80296568       0.00051194       0.00036085       0.00000236
S        4.14989066       1.23832058       4.41811041       0.00025788      -0.00036326      -0.00044292
S        2.55079684       3.49978021       7.18782181      -0.00025415       0.00035793       0.00044221
S        2.55079722       3.49978097       4.41811024      -0.00025409       0.00036487      -0.00043976
S        4.14989042       1.23832033       7.18782187       0.00025314      -0.00036120       0.00044435
