9
Lattice="4.129889517577365 3.738165821862079e-08 2.3843931516390566 1.3766299012474976 3.893696935766713 2.3843931052005787 -4.869588203656803e-09 -6.031861458753318e-08 4.768786311712479" Properties=species:S:1:pos:R:3:forces:R:3 energy=-64.25804138183594 free_energy=-64.25804138183594 stress="0.0004312424862291664 1.6576491645992064e-07 9.068444484228166e-08 1.6576491645992064e-07 0.0004315588448662311 2.011516926359036e-07 9.068444484228166e-08 2.011516926359036e-07 0.000431404507253319" pbc="T T T"
Ti       1.37663103       0.97342412       2.38439253       0.00000591       0.00000202      -0.00000645
Ti       4.12988957       2.92027430       7.15317704       0.00000503       0.00000982      -0.00001581
Cr      -0.00000008      -0.00000008      -0.00000007       0.00000175      -0.00000277      -0.00000251
O        1.43875957       1.01735571       4.76878701       0.00374564       0.00263733       0.00000791
O        4.06775991       2.87634060       4.76878685      -0.00375145      -0.00264307      -0.00000224
O        3.41050949       1.01735633       3.63039486      -0.00188101       0.00265561       0.00324643
O        2.09600953       2.87634006       5.90717806       0.00187329      -0.00265325      -0.00323204
O        2.09600809       2.87634080       3.63039621       0.00187303      -0.00265496       0.00325820
O        3.41051047       1.01735596       5.90717737      -0.00187193       0.00264931      -0.00325283
