9
Lattice="5.627266752569318 -9.63613468358833e-09 3.2489041126654508 1.8757555791439504 5.305438007166809 3.2489041056693257 1.6089065142509846e-08 2.808191768098251e-09 6.497808197463837" Properties=species:S:1:pos:R:3:forces:R:3 energy=-41.701148986816406 free_energy=-41.701148986816406 stress="0.00017448613652959466 -1.4332188769117238e-08 -1.1609839312143322e-08 -1.4332188769117238e-08 0.0001744962064549327 9.935144262840367e-09 -1.1609839312143322e-08 9.935144262840367e-09 0.000174456654349342" pbc="T T T"
Ti       1.87575634       1.32635942       3.24890408       0.00000477      -0.00000147       0.00000111
Ti       5.62726612       3.97907814       9.74671253      -0.00000518      -0.00000366       0.00000197
Cr      -0.00000010      -0.00000007      -0.00000041       0.00000166       0.00000241       0.00000810
Cl       1.87965168       1.32911439       6.49780812      -0.00036847      -0.00025977       0.00000191
Cl       5.62337065       3.97632362       6.49780817       0.00036692       0.00026120      -0.00000098
Cl       4.68744044       1.32911489       4.87673038       0.00018686      -0.00026353      -0.00032594
Cl       2.81558170       3.97632380       8.11888604      -0.00018363       0.00026006       0.00031872
Cl       2.81558146       3.97632327       4.87673036      -0.00018525       0.00026318      -0.00032317
Cl       4.68744105       1.32911454       8.11888639       0.00018229      -0.00025843       0.00031827
