9
Lattice="5.44213734442769 -2.642250861133135e-08 3.142019461342542 1.8140457639689502 5.130896334200585 3.142019448517646 5.5884173664870854e-08 2.3808856727168963e-08 6.284038825890773" Properties=species:S:1:pos:R:3:forces:R:3 energy=-43.09815979003906 free_energy=-43.09815979003906 stress="-0.00012003607844235376 -6.282434128479508e-09 -3.2005265104828595e-10 -6.282434128479508e-09 -0.00012006777251372114 -2.6176734113647626e-09 -3.2005265104828595e-10 -2.6176734113647626e-09 -0.00012006551696686074" pbc="T T T"
Ti       1.81404567       1.28272406       3.14201809      -0.00000074      -0.00000063      -0.00000492
Ti       5.44213829       3.84817091       9.42605897       0.00000272      -0.00000556       0.00000104
Co      -0.00000014       0.00000003      -0.00000006       0.00000047      -0.00000078      -0.00000070
Se       1.87833666       1.32818538       6.28403881       0.00124621       0.00088316       0.00000155
Se       5.37784593       3.80271185       6.28403837      -0.00124779      -0.00087962      -0.00000265
Se       4.50296919       1.32818483       4.76870748      -0.00062163       0.00088221       0.00108176
Se       2.75321426       3.80271131       7.79937075       0.00062273      -0.00088120      -0.00107828
Se       2.75321414       3.80271176       4.76870732       0.00062191      -0.00088164       0.00107971
Se       4.50296858       1.32818522       7.79937123      -0.00062391       0.00088397      -0.00107759
