9
Lattice="5.12084056437108 -9.038250864341181e-08 2.9565188245832257 1.706946778681111 4.827975096302741 2.9565188088142698 -1.1391312178136132e-07 -9.986165564978717e-08 5.913037846469733" Properties=species:S:1:pos:R:3:forces:R:3 energy=-50.02093505859375 free_energy=-50.02093505859375 stress="-2.838542241079267e-05 -2.693332668002313e-09 1.0556987284360275e-08 -2.693332668002313e-09 -2.8386652047629468e-05 -1.258573689710829e-08 1.0556987284360275e-08 -1.258573689710829e-08 -2.84443794953404e-05" pbc="T T T"
Ti       1.70694736       1.20699371       2.95651902       0.00000096       0.00000013      -0.00000037
Ti       5.12084109       3.62098034       8.86955699       0.00000187      -0.00000348       0.00000167
Cr      -0.00000021       0.00000030      -0.00000023       0.00000072      -0.00000460       0.00000126
S        1.82315425       1.28916544       5.91303808      -0.00084251      -0.00059593       0.00000189
S        5.00463226       3.53880977       5.91303775       0.00084448       0.00059772       0.00000111
S        4.20926262       1.28916542       4.53541699       0.00041914      -0.00059682      -0.00073075
S        2.61852390       3.53880979       7.29065804      -0.00042266       0.00059766       0.00073302
S        2.61852422       3.53880989       4.53541746      -0.00042358       0.00060016      -0.00073540
S        4.20926316       1.28916491       7.29065779       0.00042117      -0.00059521       0.00072700
