9
Lattice="6.38285559393519 2.3486267357441863e-09 3.6851433655270873 2.127618534315679 6.017813960440034 3.685143364159434 -2.330543324640273e-08 -1.8154454809657113e-08 7.370286771420315" Properties=species:S:1:pos:R:3:forces:R:3 energy=-27.442829132080078 free_energy=-27.442829132080078 stress="0.00029007066041231155 5.297843327228824e-12 -2.207737326287429e-09 5.297843327228824e-12 0.0002900742110796273 -7.370006827045472e-09 -2.207737326287429e-09 -7.370006827045472e-09 0.0002900772378779948" pbc="T T T"
Ti       2.12761885       1.50445343       3.68514323       0.00000036       0.00000021       0.00000030
Ti       6.38285579       4.51335982      11.05543096       0.00000154      -0.00000193       0.00000421
C        0.00000009       0.00000016      -0.00000008       0.00000014       0.00000033       0.00000014
I        2.15765410       1.52569217       7.37028681      -0.00511083      -0.00361376      -0.00000020
I        6.35281972       4.49212230       7.37028636       0.00510925       0.00361380      -0.00000156
I        5.30402843       1.52569206       5.55372658       0.00255459      -0.00361307      -0.00442643
I        3.20644540       4.49212190       9.18684677      -0.00255573       0.00361434       0.00442523
I        3.20644560       4.49212187       5.55372664      -0.00255499       0.00361370      -0.00442715
I        5.30402842       1.52569209       9.18684677       0.00255565      -0.00361355       0.00442533
