9
Lattice="4.5496262500763445 -7.821322650843513e-08 2.6267278135226744 1.5165420956147846 4.28942815510129 2.6267276645729876 1.3960149920308686e-07 -8.371222320102893e-08 5.253455385248438" Properties=species:S:1:pos:R:3:forces:R:3 energy=-51.08016586303711 free_energy=-51.08016586303711 stress="0.00039944081800058484 -1.114480951969199e-08 -2.646064922728897e-09 -1.114480951969199e-08 0.0003994508588220924 -6.561543841598905e-08 -2.646064922728897e-09 -6.561543841598905e-08 0.00039945324533618987" pbc="T T T"
Ti       1.51654240       1.07235692       2.62672723       0.00000150      -0.00000006      -0.00000363
Ti       4.54962551       3.21707225       7.88018397      -0.00000601       0.00000865       0.00000756
Co      -0.00000009      -0.00000006       0.00000002       0.00000349      -0.00000060       0.00000361
F        1.52820021       1.08059995       5.25345546      -0.00127056      -0.00090122      -0.00000024
F        4.53796880       3.20882753       5.25345522       0.00127104       0.00089734      -0.00000288
F        3.78552616       1.08060001       3.95018766       0.00063445      -0.00089939      -0.00110045
F        2.28064231       3.20882771       6.55672327      -0.00063325       0.00089727       0.00110090
F        2.28064267       3.20882792       3.95018739      -0.00063363       0.00090033      -0.00110489
F        3.78552601       1.08059967       6.55672319       0.00063323      -0.00090239       0.00109984
