9
Lattice="5.8758248762307055 -9.605204658821112e-08 3.3924089501273724 1.9586082181656694 5.539780671879786 3.392408921293029 -1.2667076920922004e-07 -1.248844296227626e-07 6.7848181196549335" Properties=species:S:1:pos:R:3:forces:R:3 energy=-30.470050811767578 free_energy=-30.470050811767578 stress="0.00017265212954953313 4.62196769746015e-09 1.9812091522908304e-08 4.62196769746015e-09 0.0001726107147987932 1.2348382760762888e-08 1.9812091522908304e-08 1.2348382760762888e-08 0.0001726501650409773" pbc="T T T"
Ti       1.95860836       1.38494489       3.39240911       0.00000100      -0.00000057       0.00000101
Ti       5.87582333       4.15483435      10.17722759      -0.00000403      -0.00000355       0.00000287
C        0.00000175       0.00000102       0.00000076       0.00000455       0.00000261       0.00000413
Br       1.99538214       1.41094821       6.78481779      -0.00491309      -0.00347386      -0.00000266
Br       5.83905046       4.12883218       6.78481789       0.00490901       0.00347230      -0.00000222
Br       4.87813358       1.41094851       5.12046019       0.00245644      -0.00346874      -0.00425480
Br       2.95629949       4.12883205       8.44917520      -0.00245568       0.00347282       0.00425427
Br       2.95629945       4.12883213       5.12046033      -0.00245430       0.00347210      -0.00425589
Br       4.87813325       1.41094846       8.44917508       0.00245599      -0.00347327       0.00425337
