9
Lattice="4.975050344957666 7.484490805521545e-08 2.8723470420689807 1.6583501938090548 4.690522952841004 2.8723470277645777 1.2865620724601664e-07 7.34545063505213e-08 5.744693861298787" Properties=species:S:1:pos:R:3:forces:R:3 energy=-48.30310821533203 free_energy=-48.30310821533203 stress="9.331073670182377e-05 -5.976556849418557e-08 -6.034720456682408e-08 -5.976556849418557e-08 9.30821115616709e-05 -1.009839323273809e-07 -6.034720456682408e-08 -1.009839323273809e-07 9.309281449532136e-05" pbc="T T T"
Ti       1.65835166       1.17262817       2.87234890       0.00000526      -0.00000985       0.00000913
Ti       4.97504884       3.51789397       8.61703626      -0.00000852       0.00000538      -0.00001871
Fe       0.00000082       0.00000098       0.00000077       0.00000148       0.00000446       0.00000744
S        1.76090446       1.24514741       5.74469431      -0.00877672      -0.00619876       0.00000940
S        4.87249530       3.44537474       5.74469483       0.00878990       0.00620717      -0.00000967
S        4.09459555       1.24514775       4.39733517       0.00438592      -0.00621015      -0.00760394
S        2.53880534       3.44537584       7.09205276      -0.00439391       0.00621128       0.00760502
S        2.53880253       3.44537497       4.39733588      -0.00439474       0.00620908      -0.00760037
S        4.09459827       1.24514892       7.09205256       0.00439116      -0.00621843       0.00760269
