9
Lattice="4.572943376596315 3.238141533519118e-08 2.6401900184798124 1.5243144968720506 4.311412354039411 2.64019000552906 4.179178355455104e-08 1.368988794806793e-08 5.280379964574112" Properties=species:S:1:pos:R:3:forces:R:3 energy=-51.71002960205078 free_energy=-51.71002960205078 stress="0.00031604888499714434 6.394081708549493e-08 -1.0548582451974653e-07 6.394081708549493e-08 0.00031626413692720234 3.786972957442458e-09 -1.0548582451974653e-07 3.786972957442458e-09 0.00031628605211153626" pbc="T T T"
Ti       1.52431650       1.07785272       2.64018871       0.00001710      -0.00000368      -0.00001045
Ti       4.57294348       3.23355971       7.92056977       0.00000293       0.00000143      -0.00000051
Fe       0.00000013       0.00000003       0.00000004       0.00000384       0.00000134      -0.00000405
F        1.58355691       1.11974378       5.28038080       0.00018454       0.00013005       0.00000609
F        4.51370051       3.19166889       5.28037983      -0.00018969      -0.00012937      -0.00000197
F        3.78116383       1.11974382       4.01159019      -0.00009987       0.00013115       0.00015926
F        2.31609318       3.19166813       6.54916971       0.00008955      -0.00013127      -0.00015517
F        2.31609280       3.19166888       4.01159115       0.00009163      -0.00013042       0.00016463
F        3.78116424       1.11974381       6.54916979      -0.00009982       0.00013074      -0.00015815
