9
Lattice="4.10088919162428 9.84707302698152e-08 2.367649380671455 1.3669631064327645 3.866355955111177 2.3676494677609097 9.781773373582571e-08 1.7582988278952394e-07 4.735298591917568" Properties=species:S:1:pos:R:3:forces:R:3 energy=-60.30797576904297 free_energy=-60.30797576904297 stress="0.00014075275976210833 5.480415765646285e-08 3.3409247635063366e-07 5.480415765646285e-08 0.00013951132132206112 2.480210241628811e-07 3.3409247635063366e-07 2.480210241628811e-07 0.00014100335829425603" pbc="T T T"
Ti       1.36696301       0.96659329       2.36765106      -0.00000222       0.00001850       0.00000257
Ti       4.10088697       2.89976210       7.10294591      -0.00001210      -0.00002441      -0.00001068
Fe      -0.00000006       0.00000000      -0.00000004      -0.00000229       0.00000282       0.00000022
O        1.40799739       0.99560602       4.73529942       0.00499243       0.00353158       0.00001167
O        4.05985525       2.87075080       4.73529793      -0.00499180      -0.00353372      -0.00000931
O        3.39688917       0.99560496       3.58701055      -0.00250310       0.00352788       0.00431621
O        2.07096320       2.87075043       5.88358773       0.00251292      -0.00352478      -0.00431520
O        2.07096199       2.87075116       3.58701155       0.00248843      -0.00352746       0.00433058
O        3.39689223       0.99560649       5.88358617      -0.00248322       0.00352985      -0.00432622
