9
Lattice="5.9157598838168015 -2.5384999152814913e-08 3.4154655407969456 1.9719199667640988 5.577431841722943 3.4154654898312815 4.9265146603255156e-08 -2.7584206848569862e-08 6.830930996264157" Properties=species:S:1:pos:R:3:forces:R:3 energy=-42.22346496582031 free_energy=-42.22346496582031 stress="-0.00010256341192871332 -6.452336887008414e-09 4.314807622307626e-09 -6.452336887008414e-09 -0.00010257778922095895 6.9760761611803446e-09 4.314807622307626e-09 6.9760761611803446e-09 -0.00010258219117531553" pbc="T T T"
Ti       1.97191995       1.39435788       3.41546528      -0.00000005       0.00000041       0.00000030
Ti       5.91575935       4.18307391      10.24639699      -0.00000136      -0.00000001       0.00000105
Fe       0.00000005      -0.00000022       0.00000025      -0.00000271       0.00000130      -0.00000597
Te       1.97162832       1.39415147       6.83093108      -0.00136796      -0.00096805      -0.00000050
Te       5.91605153       4.18328026       6.83093077       0.00136938       0.00096953      -0.00000020
Te       4.92994614       1.39415168       5.12294567       0.00068406      -0.00096757      -0.00118460
Te       2.95773408       4.18328004       8.53891658      -0.00068466       0.00096801       0.00118569
Te       2.95773440       4.18328030       5.12294519      -0.00068273       0.00096414      -0.00118265
Te       4.92994579       1.39415181       8.53891630       0.00068607      -0.00096771       0.00118692
