9
Lattice="5.587969931685859 -8.564950147348563e-08 3.226216017805745 1.8626566284583832 5.2683884765623725 3.2262159046781447 1.4056242443163083e-07 -3.9159775874892045e-08 6.452431792150262" Properties=species:S:1:pos:R:3:forces:R:3 energy=-38.88446044921875 free_energy=-38.88446044921875 stress="1.4440397535508964e-05 7.440765337207722e-09 1.8973743465267034e-08 7.440765337207722e-09 1.4454703887167852e-05 -1.405341620852596e-08 1.8973743465267034e-08 -1.405341620852596e-08 1.4431627278099768e-05" pbc="T T T"
Ti       1.86265658       1.31709653       3.22621496      -0.00000152      -0.00000442      -0.00000669
Ti       5.58797172       3.95129026       9.67864828       0.00001269      -0.00000669       0.00000228
Fe      -0.00000022       0.00000006       0.00000006       0.00000263       0.00000230      -0.00000043
Cl       1.84881795       1.30731203       6.45243214       0.00108084       0.00076894       0.00000283
Cl       5.60180861       3.96107660       6.45243151      -0.00108647      -0.00076635      -0.00000133
Cl       4.66356135       1.30731204       4.82733929      -0.00054152       0.00076936       0.00093982
Cl       2.78706496       3.96107690       8.07752421       0.00053832      -0.00076708      -0.00094122
Cl       2.78706510       3.96107694       4.82733997       0.00053722      -0.00076225       0.00094102
Cl       4.66356081       1.30731199       8.07752455      -0.00054224       0.00076620      -0.00093631
