9
Lattice="6.331043227201663 2.951411238901325e-08 3.655229443115731 2.110347782583163 5.968964757440689 3.6552294217138 -1.4987537749887744e-08 -3.6809693387459646e-08 7.3104589121907315" Properties=species:S:1:pos:R:3:forces:R:3 energy=-31.321029663085938 free_energy=-31.321029663085938 stress="6.768141611246392e-05 -2.715368152550468e-09 1.1803167332402609e-09 -2.715368152550468e-09 6.764147838111967e-05 -5.301680872094039e-09 1.1803167332402609e-09 -5.301680872094039e-09 6.766383739886805e-05" pbc="T T T"
Ti       2.11034720       1.49224127       3.65522974      -0.00000106       0.00000044       0.00000174
Ti       6.33104319       4.47672396      10.96568777      -0.00000013       0.00000258      -0.00000224
Fe       0.00000011      -0.00000005       0.00000026       0.00000033      -0.00000091      -0.00000285
I        2.03526313       1.43914787       7.31045876       0.00130763       0.00092418      -0.00000023
I        6.40612805       4.52981662       7.31045901      -0.00130533      -0.00092545       0.00000165
I        5.31341190       1.43914790       5.41781856      -0.00065339       0.00092458       0.00113405
I        3.12797924       4.52981677       9.20309898       0.00065264      -0.00092533      -0.00113034
I        3.12797917       4.52981662       5.41781883       0.00065229      -0.00092420       0.00113170
I        5.31341196       1.43914802       9.20309915      -0.00065299       0.00092421      -0.00113349
