9
Lattice="5.84390669225762 -7.279638451201055e-08 3.373981157464622 1.9479688402748239 5.509688474165674 3.3739811375656403 5.0820898535295735e-08 1.1564567198515425e-08 6.747962226904947" Properties=species:S:1:pos:R:3:forces:R:3 energy=-35.897762298583984 free_energy=-35.897762298583984 stress="0.0001872206194093451 1.836272822686169e-08 -2.6844325873298658e-08 1.836272822686169e-08 0.00018720414664130658 -8.460900424722695e-09 -2.6844325873298658e-08 -8.460900424722695e-09 0.00018711172742769122" pbc="T T T"
Ti       1.94796877       1.37742146       3.37397976       0.00000052      -0.00000170      -0.00000725
Ti       5.84390629       4.13226668      10.12194222      -0.00000366       0.00000079      -0.00000403
Fe       0.00000018       0.00000007       0.00000037      -0.00000493       0.00000173      -0.00000068
Br       1.88063224       1.32980751       6.74796269       0.00120975       0.00085523       0.00000312
Br       5.91124353       4.17988054       6.74796255      -0.00120707      -0.00085251       0.00000149
Br       4.90359057       1.32980754       5.00265674      -0.00060303       0.00085466       0.00104953
Br       2.88828499       4.17988082       8.49326857       0.00060646      -0.00085683      -0.00104941
Br       2.88828517       4.17988093       5.00265662       0.00060610      -0.00085680       0.00105307
Br       4.90359062       1.32980809       8.49326854      -0.00060435       0.00085526      -0.00104611
