9
Lattice="4.250507233463052 -2.1145047612834177e-09 2.4540315817612806 1.4168357613709508 4.007416514880925 2.4540315490656237 3.815538112549411e-08 -1.30638937812692e-08 4.908063097435489" Properties=species:S:1:pos:R:3:forces:R:3 energy=-61.44181823730469 free_energy=-61.44181823730469 stress="-6.972208939259872e-05 -2.2351700934564178e-08 1.1533739296964995e-07 -2.2351700934564178e-08 -6.981501064728945e-05 -9.369443887408124e-08 1.1533739296964995e-07 -9.369443887408124e-08 -7.000171899562702e-05" pbc="T T T"
Ti       1.41683672       1.00185415       2.45403159       0.00001272       0.00000035      -0.00000496
Ti       4.25050808       3.00556225       7.36209387       0.00000895      -0.00000152      -0.00000984
Ge      -0.00000005      -0.00000010       0.00000018      -0.00000877      -0.00000012      -0.00000126
O        1.47502932       1.04300369       4.90806373      -0.00063658      -0.00044340       0.00000322
O        4.19231317       2.96441298       4.90806320       0.00063384       0.00044805      -0.00000195
O        3.51299194       1.04300328       3.73144477       0.00030720      -0.00044906      -0.00054336
O        2.15435073       2.96441313       6.08468136      -0.00031817       0.00045282       0.00054729
O        2.15435020       2.96441283       3.73144502      -0.00031942       0.00044614      -0.00054371
O        3.51299189       1.04300386       6.08468165       0.00032008      -0.00045246       0.00055575
