9
Lattice="5.428587365847134 3.735509235557956e-08 3.1341963143848255 1.8095291599381427 5.118121060987924 3.134196309586396 1.53814440625169e-08 4.999466445081082e-09 6.268392602128217" Properties=species:S:1:pos:R:3:forces:R:3 energy=-42.89242172241211 free_energy=-42.89242172241211 stress="4.511017323238775e-05 2.8294588005906007e-08 -3.7651549433803666e-08 2.8294588005906007e-08 4.504178650677204e-05 -4.748100135287814e-09 -3.7651549433803666e-08 -4.748100135287814e-09 4.5010547182755545e-05" pbc="T T T"
Ti       1.80952783       1.27952985       3.13419652      -0.00000685      -0.00000296       0.00000190
Ti       5.42858684       3.83859143       9.40258888      -0.00000597       0.00000392      -0.00000016
Ge       0.00000006       0.00000002      -0.00000011      -0.00000199       0.00000288       0.00000294
S        1.86214515       1.31673503       6.26839288      -0.00040519      -0.00028586       0.00000306
S        5.37597198       3.80138622       6.26839231       0.00040478       0.00028580      -0.00000392
S        4.49751496       1.31673485       4.74686090       0.00020477      -0.00028825      -0.00035012
S        2.74060219       3.80138627       7.78992497      -0.00019562       0.00028479       0.00034857
S        2.74060143       3.80138586       4.74686034      -0.00020170       0.00028479      -0.00034696
S        4.49751572       1.31673487       7.78992421       0.00020757      -0.00028515       0.00034481
