9
Lattice="5.608265866027138 -4.091016990905143e-08 3.2379337868495695 1.8694218837305348 5.287523756474157 3.2379338440789027 -2.1360543679037027e-08 5.498717148398594e-08 6.475867610696674" Properties=species:S:1:pos:R:3:forces:R:3 energy=-39.44773483276367 free_energy=-39.44773483276367 stress="-0.0001098274442483671 -3.042016416543447e-08 -6.952573983198818e-08 -3.042016416543447e-08 -0.00010980909428326413 -2.093116968637787e-08 -6.952573983198818e-08 -2.093116968637787e-08 -0.00010981466039083898" pbc="T T T"
Ti       1.86942307       1.32188109       3.23793335       0.00000581      -0.00000003      -0.00000320
Ti       5.60826594       3.96564360       9.71380224       0.00000031       0.00000351       0.00000362
Ge       0.00000005      -0.00000004      -0.00000001       0.00000151      -0.00000286      -0.00000200
Se       1.96783505       1.39146999       6.47586770       0.00093490       0.00066170       0.00000020
Se       5.50985253       3.89605371       6.47586752      -0.00093189      -0.00066112      -0.00000017
Se       4.62434745       1.39146951       4.94212907      -0.00047153       0.00065866       0.00081004
Se       2.85333940       3.89605370       8.00960586       0.00046362      -0.00065902      -0.00080600
Se       2.85334011       3.89605408       4.94212909       0.00047044      -0.00065900       0.00080638
Se       4.62434725       1.39146941       8.00960617      -0.00047331       0.00065823      -0.00080882
