9
Lattice="4.785889447208928 -1.9852436133226307e-07 2.7631344086732628 1.5952963713794006 4.512179547663483 2.7631342767828087 2.1531406449426486e-07 -9.282113364846137e-09 5.526268444411588" Properties=species:S:1:pos:R:3:forces:R:3 energy=-48.225196838378906 free_energy=-48.225196838378906 stress="3.1261046387953684e-05 2.986488922829267e-08 -4.267095476961913e-08 2.986488922829267e-08 3.132957135676406e-05 2.2655082254630088e-09 -4.267095476961913e-08 2.2655082254630088e-09 3.129680044366978e-05" pbc="T T T"
Ti       1.59529583       1.12804293       2.76313229      -0.00000487      -0.00000396      -0.00000256
Ti       4.78588689       3.38413043       8.28940236      -0.00000577      -0.00001675      -0.00000077
Ge       0.00000077       0.00000120       0.00000139      -0.00000546      -0.00000152       0.00000125
F        1.54151482       1.09001759       5.52626716      -0.00126630      -0.00089222       0.00000334
F        4.83967362       3.42216432       5.52626830       0.00126323       0.00089736       0.00000293
F        4.01513207       1.09001719       4.09812598       0.00064008      -0.00089251      -0.00110140
F        2.36605172       3.42216557       6.95441298      -0.00062554       0.00089447       0.00109521
F        2.36605440       3.42216328       4.09812504      -0.00062670       0.00090110      -0.00109638
F        4.01513378       1.09001484       6.95441291       0.00063123      -0.00088584       0.00109875
