9
Lattice="6.561311408700725 1.4933005070356516e-08 3.7881749127135 2.187103846420432 6.1860634779074415 3.788174861719782 1.722105150048371e-08 -5.0277151246832726e-08 7.576349795599255" Properties=species:S:1:pos:R:3:forces:R:3 energy=-27.18317413330078 free_energy=-27.18317413330078 stress="0.00016240176046267152 -3.4966145534554016e-09 -1.0725704768788091e-09 -3.4966145534554016e-09 0.00016239458636846393 -4.628322614053104e-09 -1.0725704768788091e-09 -4.628322614053104e-09 0.00016239541582763195" pbc="T T T"
Ti       2.18710427       1.54651668       3.78817531       0.00000154       0.00000275       0.00000162
Ti       6.56131137       4.63954733      11.36452532      -0.00000085      -0.00000058       0.00000414
Ge      -0.00000021       0.00000004      -0.00000022       0.00000097       0.00000014      -0.00000036
I        2.27109753       1.60590805       7.57634972       0.00041566       0.00029281      -0.00000029
I        6.47731784       4.58015531       7.57634970      -0.00041658      -0.00029393      -0.00000177
I        5.42576267       1.60590861       5.75500268      -0.00020751       0.00029476       0.00035884
I        3.32265223       4.58015492       9.39769648       0.00020629      -0.00029434      -0.00035988
I        3.32265257       4.58015445       5.75500249       0.00020728      -0.00029430       0.00035793
I        5.42576285       1.60590835       9.39769682      -0.00020674       0.00029267      -0.00036022
