9
Lattice="6.129441591071413 1.745423412984921e-08 3.5388348126194304 2.0431472267185775 5.77889292032832 3.5388347896892 -6.0343961216214906e-09 -3.235064488398682e-08 7.077669635690757" Properties=species:S:1:pos:R:3:forces:R:3 energy=-36.402008056640625 free_energy=-36.402008056640625 stress="-3.885550904669799e-05 7.1022503433937345e-09 -1.4704381712249415e-08 7.1022503433937345e-09 -3.883803583448753e-05 -3.433938022823213e-09 -1.4704381712249415e-08 -3.433938022823213e-09 -3.885881233145483e-05" pbc="T T T"
Ti       2.04314716       1.44472367       3.53883500       0.00000159       0.00000272       0.00000119
Ti       6.12944232       4.33416972      10.61650518       0.00000319       0.00000099       0.00000579
Ge       0.00000001      -0.00000003       0.00000019      -0.00000027      -0.00000025       0.00000043
Te       2.17618625       1.53879606       7.07766959       0.00005091       0.00003604      -0.00000011
Te       5.99640271       4.24009671       7.07766914      -0.00005057      -0.00003738      -0.00000247
Te       5.04134820       1.53879621       5.42346729      -0.00002674       0.00003619       0.00004247
Te       3.13123999       4.24009669       8.73187161       0.00002328      -0.00003653      -0.00004500
Te       3.13124020       4.24009662       5.42346742       0.00002395      -0.00003622       0.00004327
Te       5.04134841       1.53879598       8.73187152      -0.00002542       0.00003444      -0.00004554
