9
Lattice="5.962189027865808 6.533089581355766e-08 3.4422715577605394 1.9873963946395037 5.621205877722762 3.4422715743483643 -5.295620199257506e-08 -1.7129812449954623e-08 6.884543207243919" Properties=species:S:1:pos:R:3:forces:R:3 energy=-31.706867218017578 free_energy=-31.706867218017578 stress="0.0001222508872160688 1.179143716001363e-08 1.3839226653544756e-08 1.179143716001363e-08 0.00012224361125845462 -9.865760652871813e-09 1.3839226653544756e-08 -9.865760652871813e-09 0.00012226997932884842" pbc="T T T"
Ti       1.98739685       1.40530167       3.44227152       0.00000204      -0.00000024      -0.00000079
Ti       5.96218903       4.21590443      10.32681507      -0.00000023      -0.00000024      -0.00000212
Ge      -0.00000015      -0.00000006      -0.00000011       0.00000023       0.00000033       0.00000289
Br       2.02844349       1.43432645       6.88454331       0.00117553       0.00083185       0.00000084
Br       5.92114183       4.18687939       6.88454320      -0.00117493      -0.00083090       0.00000080
Br       4.94796714       1.43432646       5.19895518      -0.00058900       0.00083210       0.00101906
Br       3.00161815       4.18687946       8.57013090       0.00058873      -0.00083370      -0.00101982
Br       3.00161824       4.18687961       5.19895539       0.00058737      -0.00083102       0.00101937
Br       4.94796692       1.43432630       8.57013091      -0.00058991       0.00083183      -0.00102015
