9
Lattice="6.245927913182761 -6.068509057333243e-08 3.6060882511563874 2.081975909575343 5.888717455804079 3.606088258554157 -1.827202104082772e-08 -3.859847633564309e-09 7.212176533960816" Properties=species:S:1:pos:R:3:forces:R:3 energy=-43.48897933959961 free_energy=-43.48897933959961 stress="-9.013268572743982e-05 -1.4310349349955231e-08 1.056343013061678e-08 -1.4310349349955231e-08 -9.013318049255759e-05 -6.242880434825793e-09 1.056343013061678e-08 -6.242880434825793e-09 -9.0104149421677e-05" pbc="T T T"
Ti       2.08197628       1.47217937       3.60608812       0.00000212       0.00000010       0.00000008
Ti       6.24592780       4.41653811      10.81826481      -0.00000121       0.00000117       0.00000044
Hf      -0.00000009      -0.00000015       0.00000006       0.00000208       0.00000013       0.00000479
Te       2.23024604       1.57702176       7.21217649      -0.00550069      -0.00389078      -0.00000019
Te       6.09765757       4.31169583       7.21217658       0.00549896       0.00388956      -0.00000031
Te       5.13080482       1.57702208       5.53753821       0.00275246      -0.00388953      -0.00476484
Te       3.19709896       4.31169528       8.88681499      -0.00275163       0.00388761       0.00476447
Te       3.19709906       4.31169513       5.53753809      -0.00275231       0.00389124      -0.00476769
Te       5.13080479       1.57702222       8.88681484       0.00275032      -0.00388958       0.00476344
