9
Lattice="5.680764095774027 -5.705345214157758e-08 3.2797907849095114 1.8935879901268853 5.3558757916397886 3.279790764137515 2.2779309442353826e-08 -9.332996600933155e-09 6.559581530364107" Properties=species:S:1:pos:R:3:forces:R:3 energy=-46.695091247558594 free_energy=-46.695091247558594 stress="-0.0001510580041212961 -7.183011518918647e-08 5.880780662437246e-08 -7.183011518918647e-08 -0.00015097642608452588 -7.915668476243809e-08 5.880780662437246e-08 -7.915668476243809e-08 -0.0001509523717686534" pbc="T T T"
Ti       1.89358826       1.33896910       3.27979079       0.00000048       0.00000123       0.00000108
Ti       5.68076410       4.01690616       9.83937241       0.00000086      -0.00000425       0.00000092
Hf       0.00000016      -0.00000003       0.00000018      -0.00000341       0.00000250      -0.00000529
Se       2.05910729       1.45600889       6.55958169      -0.00312673      -0.00220873       0.00000043
Se       5.51524480       3.89986690       6.55958112       0.00312679       0.00221115      -0.00000399
Se       4.65121013       1.45600878       5.06303003       0.00156248      -0.00221042      -0.00271130
Se       2.92314188       3.89986689       8.05613305      -0.00156337       0.00221365       0.00271137
Se       2.92314144       3.89986677       5.06303060      -0.00156710       0.00221375      -0.00271069
Se       4.65121043       1.45600939       8.05613238       0.00156994      -0.00221875       0.00271751
