9
Lattice="4.436059515168849 -4.899084434654467e-08 2.5611601557351857 1.4786864906271349 4.182356764555977 2.5611601007254623 7.805337857435193e-09 -6.185365735569295e-08 5.122320297951093" Properties=species:S:1:pos:R:3:forces:R:3 energy=-68.00218200683594 free_energy=-68.00218200683594 stress="-1.339162827207474e-05 -7.213564856556332e-08 1.1743880889980574e-07 -7.213564856556332e-08 -1.3258012586447876e-05 4.607663584010879e-08 1.1743880889980574e-07 4.607663584010879e-08 -1.3507511539501138e-05" pbc="T T T"
Ti       1.47868571       1.04558871       2.56116035      -0.00000839       0.00000182      -0.00000045
Ti       4.43605974       3.13676879       7.68347911       0.00000063       0.00001270      -0.00001359
Hf      -0.00000008       0.00000013      -0.00000006       0.00000464      -0.00000178       0.00000252
O        1.58951568       1.12395715       5.12232031      -0.00030732      -0.00022003       0.00000306
O        4.32523059       3.05839926       5.12232070       0.00030708       0.00021759       0.00000158
O        3.64130160       1.12395686       3.93772149       0.00015295      -0.00022405      -0.00026298
O        2.27344480       3.05839939       6.30691996      -0.00014892       0.00021580       0.00026610
O        2.27344400       3.05839949       3.93772131      -0.00015551       0.00022087      -0.00026011
O        3.64130203       1.12395691       6.30691931       0.00015464      -0.00022322       0.00026321
