9
Lattice="4.412622693447692 -4.9650806973035494e-08 2.5476288550567667 1.4708741954164677 4.160260654809319 2.5476288358683084 -1.4176437304713447e-07 -1.2374353015850913e-07 5.095257955656625" Properties=species:S:1:pos:R:3:forces:R:3 energy=-61.59096908569336 free_energy=-61.59096908569336 stress="7.512667070841417e-05 -8.774152071566732e-09 1.3302891943567374e-07 -8.774152071566732e-09 7.468114199582487e-05 5.07867561339026e-08 1.3302891943567374e-07 5.07867561339026e-08 7.46577134123072e-05" pbc="T T T"
Ti       1.47087200       1.04006504       2.54762863      -0.00002336       0.00000096      -0.00000609
Ti       4.41262181       3.12019565       7.64288406      -0.00001311       0.00000315      -0.00003191
Ir       0.00000006       0.00000001       0.00000020       0.00000073      -0.00000327       0.00000536
O        1.53051175       1.08223447       5.09525819       0.00038863       0.00027081       0.00000823
O        4.35298599       3.07802534       5.09525860      -0.00037838      -0.00027630       0.00000831
O        3.64736694       1.08223503       3.87309066      -0.00018936       0.00027663       0.00033800
O        2.23613109       3.07802535       6.31742599       0.00020967      -0.00027996      -0.00032675
O        2.23612923       3.07802610       3.87309161       0.00018729      -0.00026737       0.00035021
O        3.64736817       1.08223487       6.31742459      -0.00018224       0.00027542      -0.00034496
