9
Lattice="5.25270503941951 6.134954271675925e-08 3.03265096102112 1.7509016736566294 4.952298121718747 3.032651071856417 -2.8679672133371244e-08 1.1546537189368845e-07 6.065301971716859" Properties=species:S:1:pos:R:3:forces:R:3 energy=-48.147342681884766 free_energy=-48.147342681884766 stress="3.719688902492635e-05 -1.997198673109324e-08 2.5890248167570462e-08 -1.997198673109324e-08 3.719452070072293e-05 9.05647912219365e-09 2.5890248167570462e-08 9.05647912219365e-09 3.7184261600486934e-05" pbc="T T T"
Ti       1.75090236       1.23807415       3.03265147       0.00000304      -0.00000034       0.00000168
Ti       5.25270549       3.71422418       9.09795195       0.00000070       0.00000159      -0.00000376
Ir      -0.00000022      -0.00000012       0.00000040      -0.00000101       0.00000002      -0.00000367
S        1.88455197       1.33257969       6.06530169      -0.00149322      -0.00105631      -0.00000199
S        5.11905431       3.61971875       6.06530262       0.00149250       0.00105751      -0.00000031
S        4.31042886       1.33257997       4.66472096       0.00074583      -0.00105369      -0.00129169
S        2.69317811       3.61971819       7.46588306      -0.00074905       0.00105858       0.00129664
S        2.69317732       3.61971858       4.66472133      -0.00074691       0.00105363      -0.00129128
S        4.31042852       1.33258010       7.46588269       0.00074786      -0.00106084       0.00129396
