9
Lattice="5.639094698129846 -1.2494905193531945e-07 3.2557328020136724 1.8796981556762227 5.316589215351181 3.2557327313990703 -7.543758159081062e-08 -1.398272894163558e-07 6.511465734689029" Properties=species:S:1:pos:R:3:forces:R:3 energy=-44.4182243347168 free_energy=-44.4182243347168 stress="-9.91918277577497e-05 -1.8955372382833957e-08 6.395812590653804e-08 -1.8955372382833957e-08 -9.918134310282767e-05 -4.811471043808524e-08 6.395812590653804e-08 -4.811471043808524e-08 -9.920223237713799e-05" pbc="T T T"
Ti       1.87969898       1.32914608       3.25573147       0.00000507      -0.00000449      -0.00000860
Ti       5.63909381       3.98744127       9.76719763      -0.00000501      -0.00000243      -0.00000426
Ir      -0.00000021      -0.00000006      -0.00000015      -0.00000112       0.00000219      -0.00000133
Se       1.97939937       1.39964664       6.51146605       0.00165558       0.00117204       0.00000216
Se       5.53939330       3.91694255       6.51146569      -0.00165796      -0.00116754       0.00000006
Se       4.64939491       1.39964619       4.96994349      -0.00082684       0.00116822       0.00143746
Se       2.86939801       3.91694258       8.05298862       0.00083074      -0.00117120      -0.00143516
Se       2.86939824       3.91694265       4.96994302       0.00082856      -0.00116807       0.00143564
Se       4.64939459       1.39964786       8.05298921      -0.00082889       0.00117150      -0.00142547
