9
Lattice="5.916491112976309 9.107128063002502e-08 3.415887898976414 1.9721637791969318 5.57812152241893 3.415887918013947 4.732852696551679e-08 5.6782441516426105e-08 6.8317757159773995" Properties=species:S:1:pos:R:3:forces:R:3 energy=-31.23115348815918 free_energy=-31.23115348815918 stress="0.0002365999243920669 9.082042895514064e-10 2.5156593252972925e-08 9.082042895514064e-10 0.00023647764464840293 1.191751941576058e-08 2.5156593252972925e-08 1.191751941576058e-08 0.00023650267394259572" pbc="T T T"
Ti       1.97216345       1.39453036       3.41588783      -0.00000154       0.00000067      -0.00000027
Ti       5.91649099       4.18359098      10.24766425      -0.00000132      -0.00000244       0.00000250
Mg      -0.00000011      -0.00000009      -0.00000013       0.00000205       0.00000048       0.00000264
Br       2.03179257       1.43669437       6.83177568      -0.00042240      -0.00029783      -0.00000179
Br       5.85686260       4.14142746       6.83177564       0.00041916       0.00029813      -0.00000356
Br       4.90059518       1.43669455       5.17547165       0.00021382      -0.00029615      -0.00036303
Br       2.98805991       4.14142725       8.48807972      -0.00021040       0.00029525       0.00036388
Br       2.98805993       4.14142725       5.17547169      -0.00021031       0.00029750      -0.00036397
Br       4.90059523       1.43669458       8.48807981       0.00021107      -0.00029543       0.00036329
