9
Lattice="5.614718760406912 1.186723018680794e-08 3.241659397603953 1.8715729156245238 5.293607618122004 3.2416594247965307 3.070852335644747e-08 5.501818294558437e-08 6.483318742019146" Properties=species:S:1:pos:R:3:forces:R:3 energy=-35.12516784667969 free_energy=-35.12516784667969 stress="0.00012029299978166819 -5.531748836773431e-09 9.829260072535817e-09 -5.531748836773431e-09 0.00012028812489006668 5.792340385113448e-09 9.829260072535817e-09 5.792340385113448e-09 0.00012030761718051508" pbc="T T T"
Ti       1.87157260       1.32340167       3.24165956      -0.00000363      -0.00000044       0.00000199
Ti       5.61471895       3.97020602       9.72497780       0.00000043       0.00000295      -0.00000405
Mg      -0.00000008      -0.00000004       0.00000011       0.00000032      -0.00000011      -0.00000361
Cl       1.91707233       1.35557487       6.48331884       0.00102197       0.00072222      -0.00000092
Cl       5.56921954       3.93803296       6.48331893      -0.00102176      -0.00072370       0.00000025
Cl       4.65618273       1.35557450       4.90189272      -0.00051156       0.00072107       0.00088713
Cl       2.83010924       3.93803292       8.06474486       0.00051153      -0.00072092      -0.00088358
Cl       2.83010896       3.93803296       4.90189260       0.00051115      -0.00072364       0.00088582
Cl       4.65618253       1.35557492       8.06474484      -0.00050856       0.00072236      -0.00088312
