9
Lattice="6.53437351419907 1.864978803032626e-08 3.7726222977790425 2.1781244744384574 6.160666507276304 3.7726223807056956 -5.067585290618416e-08 6.57307524319283e-08 7.545244683331207" Properties=species:S:1:pos:R:3:forces:R:3 energy=-26.330476760864258 free_energy=-26.330476760864258 stress="0.00010059823398478329 -1.6310995221147095e-08 -3.759982991624611e-09 -1.6310995221147095e-08 0.00010058598854811862 1.6846631867295514e-09 -3.759982991624611e-09 1.6846631867295514e-09 0.00010058883344754577" pbc="T T T"
Ti       2.17812444       1.54016677       3.77262242       0.00000012       0.00000035      -0.00000082
Ti       6.53437336       4.62050007      11.31786771      -0.00000066      -0.00000017       0.00000173
Mg      -0.00000010       0.00000011      -0.00000026       0.00000111      -0.00000171       0.00000054
I        2.25262112       1.59284384       7.54524471       0.00091960       0.00064940      -0.00000064
I        6.45987665       4.56782271       7.54524450      -0.00091951      -0.00065033      -0.00000062
I        5.40806281       1.59284402       5.72344923      -0.00045947       0.00065104       0.00079627
I        3.30443519       4.56782261       9.36703964       0.00045956      -0.00064966      -0.00079374
I        3.30443520       4.56782287       5.72344973       0.00045921      -0.00064879       0.00079497
I        5.40806304       1.59284338       9.36703977      -0.00045987       0.00064986      -0.00079763
