9
Lattice="5.246490669462091 8.561578850193573e-09 3.0290624022870936 1.7488302306313026 4.946438971911339 3.0290624033170523 -4.349017045991676e-07 -3.062604674684966e-07 6.058125557846003" Properties=species:S:1:pos:R:3:forces:R:3 energy=-50.29549026489258 free_energy=-50.29549026489258 stress="3.937025758204982e-05 4.7001251779477116e-09 1.198673373892234e-07 4.7001251779477116e-09 3.935345011996105e-05 1.575145915921894e-07 1.198673373892234e-07 1.575145915921894e-07 3.938114605261944e-05" pbc="T T T"
Ti       1.74882794       1.23660897       3.02906063      -0.00001200      -0.00000267      -0.00001425
Ti       5.24649000       3.70982811       9.08719484      -0.00000117      -0.00000327       0.00003873
Mo       0.00000057      -0.00000034      -0.00000058       0.00000027       0.00000465      -0.00000875
S        1.89005939       1.33647331       6.05812619      -0.00066811      -0.00047338      -0.00000238
S        5.10526084       3.60996658       6.05812294       0.00066698       0.00048375      -0.00000424
S        4.30146349       1.33647486       4.66590225       0.00034577      -0.00047237      -0.00058270
S        2.69385759       3.60996412       7.45034735      -0.00034168       0.00047171       0.00057244
S        2.69386114       3.60996540       4.66589999      -0.00032687       0.00046557      -0.00057912
S        4.30146076       1.33647342       7.45034777       0.00033686      -0.00047296       0.00057954
