9
Lattice="4.481047880403622 -1.1134572654790707e-07 2.5871341944248916 1.4936825520965158 4.224772372003642 2.587134141990364 -1.0457839228783116e-07 -1.3816700402457072e-07 5.174268569984855" Properties=species:S:1:pos:R:3:forces:R:3 energy=-50.831077575683594 free_energy=-50.831077575683594 stress="-9.460976798436604e-06 -3.472269938242789e-08 -4.642539686017244e-10 -3.472269938242789e-08 -9.43391933105886e-06 -1.8901927134606922e-08 -4.642539686017244e-10 -1.8901927134606922e-08 -9.376203706779052e-06" pbc="T T T"
Ti       1.49368263       1.05619286       2.58713415       0.00000101      -0.00000124       0.00000005
Ti       4.48104774       3.16857941       7.76140270      -0.00000078       0.00000163       0.00000021
Mg       0.00000002      -0.00000005       0.00000013      -0.00000293      -0.00000130      -0.00000169
F        1.52474691       1.07815893       5.17426860       0.00008987       0.00006434       0.00000045
F        4.44998332       3.14661341       5.17426828      -0.00008710      -0.00006247       0.00000100
F        3.71867390       1.07815879       3.90760388      -0.00004589       0.00006196       0.00007740
F        2.25605613       3.14661343       6.44093302       0.00004643      -0.00006290      -0.00007686
F        2.25605647       3.14661337       3.90760417       0.00004352      -0.00006068       0.00007471
F        3.71867414       1.07815850       6.44093288      -0.00004403       0.00006087      -0.00007527
