9
Lattice="5.9681137858726006 1.680335819229424e-08 3.4456921119163177 1.9893712840542093 5.626791731802065 3.445692101083481 1.2732276713665737e-08 -4.2643581882377806e-09 6.891384201779716" Properties=species:S:1:pos:R:3:forces:R:3 energy=-42.661376953125 free_energy=-42.661376953125 stress="5.2051618695259094e-06 -3.925467950693928e-09 2.8847713107182926e-09 -3.925467950693928e-09 5.1830161282850895e-06 -3.144391344522823e-11 2.8847713107182926e-09 -3.144391344522823e-11 5.213343683863059e-06" pbc="T T T"
Ti       1.98937066       1.40669809       3.44569184      -0.00000266       0.00000141      -0.00000041
Ti       5.96811381       4.22009340      10.33707522      -0.00000074      -0.00000301      -0.00000553
Mn       0.00000007       0.00000000       0.00000015      -0.00000164       0.00000016      -0.00000164
Te       2.03873785       1.44160525       6.89138425      -0.00177950      -0.00125872       0.00000019
Te       5.91874721       4.18518648       6.89138461       0.00178194       0.00126041       0.00000149
Te       4.94874512       1.44160535       5.21129102       0.00089195      -0.00125913      -0.00154129
Te       3.00874041       4.18518631       8.57147789      -0.00089041       0.00125943       0.00154304
Te       3.00873990       4.18518633       5.21129101      -0.00089160       0.00125866      -0.00154048
Te       4.94874529       1.44160576       8.57147772       0.00089259      -0.00125909       0.00154459
