9
Lattice="4.435570498399693 -7.679016115737381e-08 2.5608778743147234 1.4785234308457635 4.181896046995299 2.5608778677716417 7.70064248810612e-09 -2.5684440062586635e-09 5.121755735291526" Properties=species:S:1:pos:R:3:forces:R:3 energy=-63.62397766113281 free_energy=-63.62397766113281 stress="0.0003147240204270929 1.4722268737443756e-08 -1.706286845148952e-08 1.4722268737443756e-08 0.0003147038514725864 -5.307162709300428e-09 -1.706286845148952e-08 -5.307162709300428e-09 0.00031462754122912884" pbc="T T T"
Ti       1.47852343       1.04547450       2.56087757       0.00000055       0.00000595      -0.00000628
Ti       4.43557039       3.13642142       7.68263292      -0.00000097      -0.00000400      -0.00000615
Mo       0.00000000       0.00000000       0.00000020      -0.00000291       0.00000175      -0.00000371
O        1.54006086       1.08898734       5.12175588      -0.00222296      -0.00157335       0.00000221
O        4.37403317       3.09290867       5.12175551       0.00222319       0.00157240       0.00000055
O        3.66554017       1.08898690       3.89461019       0.00111154      -0.00157371      -0.00191802
O        2.24855361       3.09290844       6.34890184      -0.00111313       0.00157282       0.00192270
O        2.24855383       3.09290843       3.89460951      -0.00110920       0.00156420      -0.00192282
O        3.66554027       1.08898816       6.34890230       0.00111385      -0.00156602       0.00193197
