9
Lattice="5.879682993789221 4.43147326137767e-08 3.394636703530379 1.9598943469754877 5.543418483674286 3.3946367486813243 3.184815068787058e-08 7.781842595588925e-08 6.789273351898129" Properties=species:S:1:pos:R:3:forces:R:3 energy=-37.50762939453125 free_energy=-37.50762939453125 stress="7.762356835883111e-05 5.932556224053087e-09 -1.2666057536137032e-08 5.932556224053087e-09 7.76062734075822e-05 -2.6117316309637317e-08 -1.2666057536137032e-08 -2.6117316309637317e-08 7.768091018078849e-05" pbc="T T T"
Ti       1.95989431       1.38585374       3.39463698      -0.00000131      -0.00000595       0.00000060
Ti       5.87968273       4.15756435      10.18390885      -0.00000196       0.00000152      -0.00000499
Mn       0.00000012       0.00000013       0.00000013      -0.00000034       0.00000062      -0.00000308
Br       1.95450852       1.38204639       6.78927347       0.00108893       0.00077073      -0.00000082
Br       5.88506867       4.16137227       6.78927385      -0.00108799      -0.00076863       0.00000138
Br       4.90242884       1.38204626       5.08729094      -0.00054519       0.00076996       0.00094302
Br       2.93714886       4.16137236       8.49125607       0.00054494      -0.00076689      -0.00094130
Br       2.93714862       4.16137249       5.08729088       0.00054481      -0.00077011       0.00094563
Br       4.90242881       1.38204645       8.49125607      -0.00054197       0.00076874      -0.00094051
