9
Lattice="5.545882692905764 -5.960670436238895e-08 3.2019171406840785 1.8486274649334469 5.22870933136482 3.201917215457601 -7.393602533056527e-08 3.92979161243003e-08 6.403834409428907" Properties=species:S:1:pos:R:3:forces:R:3 energy=-46.2254753112793 free_energy=-46.2254753112793 stress="0.00045470715849660337 9.935463651800092e-08 6.091004678410172e-08 9.935463651800092e-08 0.0004546217096503824 -9.160910963146307e-08 6.091004678410172e-08 -9.160910963146307e-08 0.0004544885305222124" pbc="T T T"
Ti       1.84862733       1.30717535       3.20191771       0.00000041      -0.00001431       0.00000211
Ti       5.54588460       3.92153094       9.60575097       0.00001118      -0.00001037      -0.00000380
Mo      -0.00000123      -0.00000009       0.00000037       0.00001217      -0.00001550      -0.00001101
Se       1.99671007       1.41189010       6.40383406      -0.00375468      -0.00264761      -0.00000344
Se       5.39779737       3.81682007       6.40383547       0.00375807       0.00265050       0.00000075
Se       4.54752776       1.41188862       4.93111767       0.00186133      -0.00263309      -0.00322995
Se       2.84698461       3.81682175       7.87654757      -0.00187790       0.00266299       0.00325590
Se       2.84698336       3.81682238       4.93112193      -0.00187668       0.00266087      -0.00324807
Se       4.54752641       1.41188845       7.87654924       0.00186589      -0.00265324       0.00323781
