9
Lattice="4.052622309125912 -8.943829336802772e-08 2.339783056606179 1.3508740790227367 3.820848827216995 2.339782952156419 8.346457594710774e-08 -6.890589527467817e-08 4.679565968647365" Properties=species:S:1:pos:R:3:forces:R:3 energy=-64.53594207763672 free_energy=-64.53594207763672 stress="1.3498890439223032e-05 -1.1302985214456385e-09 -2.3702776275058568e-07 -1.1302985214456385e-09 1.3590772141469643e-05 -1.7494596704636933e-07 -2.3702776275058568e-07 -1.7494596704636933e-07 1.4532829482050147e-05" pbc="T T T"
Ti       1.35087400       0.95521508       2.33978318      -0.00000227       0.00000909       0.00000235
Ti       4.05262034       2.86563759       7.01935247      -0.00000887       0.00000533       0.00001376
Mn       0.00000014      -0.00000012      -0.00000006      -0.00000187       0.00000072      -0.00000863
O        1.40521412       0.99363446       4.67956564      -0.00069320      -0.00047317      -0.00000700
O        3.99828461       2.82721114       4.67956466       0.00069508       0.00047463       0.00000365
O        3.35001489       0.99363554       3.55673242       0.00034596      -0.00049621      -0.00060016
O        2.05348106       2.82721272       5.80239790      -0.00034150       0.00049320       0.00060153
O        2.05348173       2.82721346       3.55673334      -0.00034900       0.00048390      -0.00060079
O        3.35001517       0.99363511       5.80239825       0.00035557      -0.00049803       0.00059521
