9
Lattice="6.433282635810694 -6.989037263647934e-08 3.7142574664860457 2.1444274855296928 6.065357158549258 3.714257455829165 -2.500101051944108e-09 -1.4819749850515774e-08 7.428514937302385" Properties=species:S:1:pos:R:3:forces:R:3 energy=-32.893531799316406 free_energy=-32.893531799316406 stress="0.00021351601753849536 7.225615245021189e-11 7.861153505928087e-09 7.225615245021189e-11 0.00021351549366954714 -6.463470647588565e-09 7.861153505928087e-09 -6.463470647588565e-09 0.00021350570023059845" pbc="T T T"
Ti       2.14442777       1.51633941       3.71425647       0.00000176       0.00000030      -0.00000355
Ti       6.43328213       4.54901852      11.14277367      -0.00000233       0.00000304       0.00000451
Mn       0.00000022       0.00000025      -0.00000079      -0.00000026      -0.00000233       0.00000508
I        2.16545772       1.53120958       7.42851506      -0.00373242      -0.00264129       0.00000188
I        6.41225257       4.53414712       7.42851504       0.00373557       0.00264087      -0.00000016
I        5.35055379       1.53120989       5.58959887       0.00186923      -0.00264130      -0.00323552
I        3.22715600       4.53414711       9.26743101      -0.00186711       0.00263719       0.00323387
I        3.22715672       4.53414744       5.58959916      -0.00186759       0.00264365      -0.00323760
I        5.35055356       1.53120898       9.26743094       0.00186310      -0.00264011       0.00323155
