9
Lattice="5.0477366490780975 -1.1160947685841267e-07 2.914311637560499 1.6825786477064562 4.759053360350518 2.914311862888351 -4.0852116062725594e-07 -1.2898829687903702e-08 5.828623982700472" Properties=species:S:1:pos:R:3:forces:R:3 energy=-49.10796356201172 free_energy=-49.10796356201172 stress="-7.9345209087478e-06 -5.161031157996376e-09 -2.3588224706827532e-08 -5.161031157996376e-09 -8.197926945285872e-06 8.0705049754215e-08 -2.3588224706827532e-08 8.0705049754215e-08 -7.846380867704283e-06" pbc="T T T"
Ti       1.68257610       1.18976542       2.91431068      -0.00000734       0.00000855      -0.00000796
Ti       5.04773545       3.56928641       8.74294146      -0.00000176      -0.00001270       0.00002182
Mn      -0.00000006       0.00000023      -0.00000030       0.00000289       0.00000230      -0.00000191
S        1.79806277       1.27142355       5.82862399       0.00064266       0.00045401      -0.00000554
S        4.93225180       3.48763189       5.82862053      -0.00064862      -0.00044382      -0.00000441
S        4.14870652       1.27142452       4.47147932      -0.00031650       0.00044966       0.00055122
S        2.58160948       3.48762718       7.18576837       0.00032163      -0.00046188      -0.00054950
S        2.58161077       3.48763057       4.47147883       0.00031853      -0.00045359       0.00055921
S        4.14870637       1.27142306       7.18576615      -0.00031197       0.00045782      -0.00056273
