9
Lattice="5.3045723161750065 1.410276028946052e-07 3.0625963541488925 1.7681908699807585 5.0011991683533 3.0625964148393265 1.064536077369898e-08 8.185773614482449e-08 6.12519268985951" Properties=species:S:1:pos:R:3:forces:R:3 energy=-51.229652404785156 free_energy=-51.229652404785156 stress="0.00036032829666510224 9.147128388065084e-09 1.0205326361756306e-08 9.147128388065084e-09 0.00036029459442943335 -2.5839764106194707e-08 1.0205326361756306e-08 -2.5839764106194707e-08 0.000360303558409214" pbc="T T T"
Ti       1.76819070       1.25029877       3.06259600      -0.00000125      -0.00000380      -0.00000266
Ti       5.30457197       3.75090006       9.18778942       0.00000039      -0.00000054      -0.00000012
Nb       0.00000038       0.00000055       0.00000055       0.00000005      -0.00000105      -0.00001080
S        1.91625689       1.35499866       6.12519311      -0.00774568      -0.00547922      -0.00000101
S        5.15650706       3.64620094       6.12519222       0.00774062       0.00547832      -0.00000346
S        4.34644471       1.35499828       4.72212319       0.00386795      -0.00547054      -0.00670010
S        2.72631889       3.64620060       7.52826190      -0.00387087       0.00548312       0.00670773
S        2.72631844       3.64620091       4.72212326      -0.00386807       0.00547308      -0.00670147
S        4.34644375       1.35499887       7.52826230       0.00387713      -0.00547934       0.00671202
