9
Lattice="5.464386145994538 -1.2182391604689757e-07 3.1548645615959474 1.8214619178485367 5.151872378334134 3.1548645892388034 -3.131567752989687e-08 1.1711908459642807e-08 6.309729177432225" Properties=species:S:1:pos:R:3:forces:R:3 energy=-41.74509048461914 free_energy=-41.74509048461914 stress="2.7580917958403006e-05 -1.885380562782757e-08 -3.555868488547276e-08 -1.885380562782757e-08 2.7635211154120043e-05 4.005652343153088e-08 -3.555868488547276e-08 4.005652343153088e-08 2.7585529096540995e-05" pbc="T T T"
Ti       1.82146141       1.28796743       3.15486514      -0.00000182      -0.00000337       0.00000170
Ti       5.46438669       3.86390496       9.46459199       0.00000346       0.00000394      -0.00000905
Ni       0.00000000       0.00000002       0.00000021       0.00000084      -0.00000150      -0.00000455
Se       1.88192351       1.33072095       6.30972963      -0.00130877      -0.00092538       0.00000214
Se       5.40392467       3.82115101       6.30973015       0.00130820       0.00092240       0.00000193
Se       4.52342376       1.33072047       4.78465831       0.00065374      -0.00092597      -0.00113171
Se       2.76242429       3.82115197       7.83479948      -0.00065586       0.00093143       0.00113562
Se       2.76242349       3.82115150       4.78465832      -0.00065376       0.00092448      -0.00113091
Se       4.52342432       1.33072080       7.83480001       0.00065383      -0.00092609       0.00113502
