9
Lattice="5.9381739511146705 -1.3563274507919662e-08 3.4284063709139856 1.9793913269991896 5.598563943412243 3.4284063315123725 4.8364537229846465e-08 -1.405802381612232e-08 6.856812658058153" Properties=species:S:1:pos:R:3:forces:R:3 energy=-39.42801284790039 free_energy=-39.42801284790039 stress="-6.943741755094379e-05 -1.555343054349123e-08 -3.1349636220312505e-09 -1.555343054349123e-08 -6.941630999790505e-05 -1.0810804695893239e-08 -3.1349636220312505e-09 -1.0810804695893239e-08 -6.940626917639747e-05" pbc="T T T"
Ti       1.97939115       1.39964033       3.42840635      -0.00000211      -0.00000244      -0.00000013
Ti       5.93817394       4.19892255      10.28521795      -0.00000039      -0.00000155      -0.00000406
Ni      -0.00000006       0.00000003      -0.00000012      -0.00000002      -0.00000125      -0.00000083
Te       2.03678988       1.44022788       6.85681264       0.00310849       0.00219833       0.00000061
Te       5.88077525       4.15833638       6.85681328      -0.00310838      -0.00219661       0.00000039
Te       4.91977904       1.44022797       5.19231829      -0.00155261       0.00219737       0.00269188
Te       2.99778655       4.15833628       8.52130731       0.00155410      -0.00219502      -0.00268959
Te       2.99778625       4.15833600       5.19231832       0.00155459      -0.00219539       0.00269118
Te       4.91977929       1.44022828       8.52130744      -0.00155355       0.00219668      -0.00268958
