9
Lattice="6.22715212226856 5.36275062026176e-08 3.5952479182054997 2.075717409280782 5.8710154047577525 3.5952479448257932 1.6824504229669144e-09 3.3792739312789795e-08 7.190495833496908" Properties=species:S:1:pos:R:3:forces:R:3 energy=-42.986515045166016 free_energy=-42.986515045166016 stress="-8.793968299869448e-05 8.225173431242183e-09 -3.1206630612956587e-09 8.225173431242183e-09 -8.794562018010765e-05 -7.2566002096152715e-09 -3.1206630612956587e-09 -7.2566002096152715e-09 -8.79604704095982e-05" pbc="T T T"
Ti       2.07571713       1.46775410       3.59524826      -0.00000036       0.00000041       0.00000183
Ti       6.22715225       4.40326148      10.78574399       0.00000076       0.00000033       0.00000030
Nb       0.00000002      -0.00000004       0.00000001      -0.00000096      -0.00000113      -0.00000078
Te       2.19520674       1.55224571       7.19049563      -0.00208338      -0.00147316      -0.00000145
Te       6.10766275       4.31876977       7.19049572       0.00208549       0.00147494       0.00000029
Te       5.12954893       1.55224564       5.49635258       0.00104184      -0.00147353      -0.00180456
Te       3.17332063       4.31876992       8.88463908      -0.00104178       0.00147270       0.00180513
Te       3.17332078       4.31876982       5.49635247      -0.00104269       0.00147249      -0.00180536
Te       5.12954893       1.55224556       8.88463903       0.00104111      -0.00147304       0.00180458
