9
Lattice="6.351438139317236 3.197119249467534e-08 3.667004543321977 2.1171460705268306 5.988193325376816 3.6670045538094445 2.903208755093909e-08 3.33732568641135e-08 7.33400903635892" Properties=species:S:1:pos:R:3:forces:R:3 energy=-28.905424118041992 free_energy=-28.905424118041992 stress="8.878536755219102e-05 1.2106560198787975e-09 1.219876089031402e-09 1.2106560198787975e-09 8.879177767084911e-05 -5.988988416305574e-09 1.219876089031402e-09 -5.988988416305574e-09 8.879423694452271e-05" pbc="T T T"
Ti       2.11714622       1.49704860       3.66700458       0.00000114       0.00000150      -0.00000012
Ti       6.35143821       4.49114517      11.00101420       0.00000037       0.00000056       0.00000104
Ni       0.00000014      -0.00000019      -0.00000020       0.00000050       0.00000020      -0.00000055
I        2.12837071       1.50498551       7.33400899      -0.00063798      -0.00045161      -0.00000069
I        6.34021362       4.48320813       7.33400902       0.00063582       0.00045005       0.00000075
I        5.28725275       1.50498536       5.51022747       0.00031827      -0.00045061      -0.00055234
I        3.18133123       4.48320785       9.15779064      -0.00031903       0.00045107       0.00055249
I        3.18133144       4.48320793       5.51022745      -0.00031797       0.00044984      -0.00055330
I        5.28725266       1.50498520       9.15779039       0.00031891      -0.00045097       0.00055272
