9
Lattice="5.101096694475047 3.330905845037517e-08 2.945119599202983 1.700365601578363 4.809359934234471 2.945119589937788 4.153886823198903e-08 1.8024914037739828e-08 5.890239126458535" Properties=species:S:1:pos:R:3:forces:R:3 energy=-45.36488723754883 free_energy=-45.36488723754883 stress="0.00015374459326267242 4.6680639798069024e-08 -7.894300324551295e-09 4.6680639798069024e-08 0.00015370915934909135 1.0745703882264479e-08 -7.894300324551295e-09 1.0745703882264479e-08 0.00015368920867331326" pbc="T T T"
Ti       1.70036542       1.20233891       2.94511902      -0.00000124      -0.00000557      -0.00000383
Ti       5.10109679       3.60702160       8.83536118      -0.00000040       0.00000755       0.00001206
Ni      -0.00000003      -0.00000077      -0.00000126       0.00000285       0.00001506       0.00003637
S        1.75674592       1.24220658       5.89024011      -0.00278223      -0.00196701       0.00000464
S        5.04471638       3.56715391       5.89023829       0.00277126       0.00196323      -0.00000139
S        4.22272383       1.24220688       4.46650587       0.00139645      -0.00197548      -0.00241950
S        2.57873802       3.56715386       7.31397232      -0.00137827       0.00195187       0.00238934
S        2.57873871       3.56715325       4.46650576      -0.00139263       0.00196651      -0.00241178
S        4.22272422       1.24220587       7.31397200       0.00138435      -0.00195640       0.00239354
