9
Lattice="5.696490813106831 -8.327477808825717e-08 3.288870609572301 1.898830179676647 5.370703114912148 3.2888706318235044 -1.3014305140815907e-08 1.8049509808413223e-08 6.577741241686054" Properties=species:S:1:pos:R:3:forces:R:3 energy=-46.46128463745117 free_energy=-46.46128463745117 stress="-1.1375168469385244e-05 -1.0592547283749809e-07 8.783897498254589e-10 -1.0592547283749809e-07 -1.1297984201519284e-05 -2.188366465816216e-08 8.783897498254589e-10 -2.188366465816216e-08 -1.1221123713767156e-05" pbc="T T T"
Ti       1.89883101       1.34267671       3.28887050       0.00000175       0.00000531      -0.00000121
Ti       5.69649046       4.02802789       9.86660997      -0.00000111       0.00000538      -0.00001431
Nb      -0.00000013       0.00000015       0.00000111       0.00000251      -0.00000281      -0.00000912
Se       2.01238872       1.42297343       6.57774142      -0.00522697      -0.00369912       0.00000201
Se       5.58293224       3.94772935       6.57774190       0.00522759       0.00369590       0.00000488
Se       4.69029640       1.42297313       5.03165099       0.00261271      -0.00370035      -0.00452516
Se       2.90502466       3.94772874       8.12383194      -0.00261829       0.00370323       0.00453961
Se       2.90502451       3.94772853       5.03165038      -0.00261691       0.00369672      -0.00453435
Se       4.69029603       1.42297424       8.12383170       0.00261887      -0.00370439       0.00453787
