9
Lattice="5.558311009555381 1.1075745859648576e-08 3.2090923466762673 1.8527703299449476 5.240425945753832 3.209092376148549 -1.8663379545445114e-08 2.28990124579795e-08 6.418184725678468" Properties=species:S:1:pos:R:3:forces:R:3 energy=-36.321346282958984 free_energy=-36.321346282958984 stress="0.00047419557813555 1.2582827224605353e-08 -1.120099391016538e-08 1.2582827224605353e-08 0.0004742674937006086 7.966895587685485e-09 -1.120099391016538e-08 7.966895587685485e-09 0.0004742230230476707" pbc="T T T"
Ti       1.85276948       1.31010722       3.20909198      -0.00000731       0.00000498      -0.00000259
Ti       5.55831109       3.93031895       9.62727792       0.00000071      -0.00000266       0.00000737
Ni       0.00000011      -0.00000007      -0.00000002      -0.00000303       0.00000237      -0.00000063
Cl       1.85499517       1.31167990       6.41818487      -0.00232424      -0.00164133       0.00000054
Cl       5.55608624       3.92874598       6.41818447       0.00232682       0.00164348      -0.00000324
Cl       4.63081377       1.31167982       4.81556570       0.00116495      -0.00164305      -0.00201453
Cl       2.78026760       3.92874603       8.02080393      -0.00116204       0.00164077       0.00201090
Cl       2.78026830       3.92874621       4.81556508      -0.00116026       0.00164174      -0.00201201
Cl       4.63081354       1.31167986       8.02080391       0.00116434      -0.00164623       0.00201406
