9
Lattice="3.9592557988709176 3.0102617070498005e-08 2.2858772951549673 1.3197519290427473 3.732821597582486 2.285877351092073 1.0449665265526362e-07 1.423988938887186e-07 4.571754409316429" Properties=species:S:1:pos:R:3:forces:R:3 energy=-57.06565475463867 free_energy=-57.06565475463867 stress="0.00018276041373610497 5.21075094184198e-07 -1.1000001620686817e-07 5.21075094184198e-07 0.00018299453950021416 1.3624809014345374e-07 -1.1000001620686817e-07 1.3624809014345374e-07 0.00018367415759712458" pbc="T T T"
Ti       1.31976013       0.93320679       2.28587716       0.00007061       0.00001174      -0.00000143
Ti       3.95925246       2.79961711       6.85763306      -0.00003358       0.00000614       0.00000987
Ni      -0.00000037      -0.00000016      -0.00000026       0.00000206      -0.00000191       0.00001473
O        1.37615071       0.97308962       4.57175427       0.00107002       0.00080341      -0.00000199
O        3.90285605       2.75973222       4.57175451      -0.00108331      -0.00080684      -0.00000154
O        3.27117640       0.97308524       3.47766032      -0.00057858       0.00075316       0.00094485
O        2.00783005       2.75973584       5.66584865       0.00056845      -0.00076598      -0.00095710
O        2.00783053       2.75973515       3.47765956       0.00057429      -0.00076878       0.00094247
O        3.27117566       0.97308531       5.66584900      -0.00059071       0.00076887      -0.00094998
