9
Lattice="5.489586257871768 1.7285358972988408e-08 3.169414348107731 1.8298621088277294 5.175631705003022 3.1694143367218057 6.887812884949856e-08 3.475936872277903e-08 6.338828576915001" Properties=species:S:1:pos:R:3:forces:R:3 energy=-46.48615264892578 free_energy=-46.48615264892578 stress="0.00011807525879703462 1.8469718199298768e-08 1.9967794528952254e-08 1.8469718199298768e-08 0.00011805208487203345 -3.42821344645472e-08 1.9967794528952254e-08 -3.42821344645472e-08 0.00011803900997620076" pbc="T T T"
Ti       1.82986189       1.29390924       3.16941347      -0.00000193       0.00000379      -0.00000373
Ti       5.48958557       3.88172353       9.50824134      -0.00000427       0.00000050      -0.00000726
Os      -0.00000014      -0.00000002      -0.00000021       0.00000181      -0.00000044       0.00000224
Se       1.99852188       1.41316856       6.33882885      -0.00122005      -0.00086176       0.00000029
Se       5.32092707       3.76246253       6.33882937       0.00122178       0.00085998      -0.00000007
Se       4.49032571       1.41316740       4.90018556       0.00060868      -0.00086296      -0.00105101
Se       2.82912363       3.76246324       7.77747298      -0.00060722       0.00086093       0.00105679
Se       2.82912281       3.76246356       4.90018492      -0.00060722       0.00086099      -0.00105488
Se       4.49032538       1.41316897       7.77747302       0.00060841      -0.00086099       0.00105768
