9
Lattice="5.192733003526614 -1.3919080295018728e-07 2.9980259067472086 1.7309109917877126 4.895755284219132 2.9980256957097127 1.5758029532200193e-07 -1.4704099365358238e-07 5.996051540557356" Properties=species:S:1:pos:R:3:forces:R:3 energy=-50.40287780761719 free_energy=-50.40287780761719 stress="0.00033869597245939076 -1.2122228554289904e-08 7.401447987831489e-08 -1.2122228554289904e-08 0.00033865569275803864 -1.3337319160200423e-07 7.401447987831489e-08 -1.3337319160200423e-07 0.00033865621662698686" pbc="T T T"
Ti       1.73091092       1.22393861       2.99802600      -0.00000062       0.00000008      -0.00000020
Ti       5.19273302       3.67181663       8.99407814      -0.00000041       0.00000057       0.00000022
Os      -0.00000004      -0.00000008      -0.00000027      -0.00000020       0.00000083       0.00000073
S        1.88191077       1.33071149       5.99605192      -0.00421870      -0.00298285       0.00000254
S        5.04173320       3.56504365       5.99605161       0.00421798       0.00298470       0.00000218
S        4.25177806       1.33071148       4.62780800       0.00210935      -0.00298268      -0.00365186
S        2.67186624       3.56504370       7.36429505      -0.00210822       0.00297970       0.00364935
S        2.67186683       3.56504305       4.62780792      -0.00210977       0.00298512      -0.00365794
S        4.25177784       1.33071148       7.36429449       0.00211120      -0.00298572       0.00365543
