9
Lattice="4.409427796239404 -2.2213493893774078e-08 2.5457842960506945 1.469809272920885 4.157248210594014 2.5457842467723997 -4.902154507572543e-08 -9.5016797218238e-08 5.09156867700918" Properties=species:S:1:pos:R:3:forces:R:3 energy=-65.80252075195312 free_energy=-65.80252075195312 stress="8.878384687704965e-05 8.340178325738634e-09 7.684229785809293e-08 8.340178325738634e-09 8.894276106730103e-05 -6.336681934726585e-08 7.684229785809293e-08 -6.336681934726585e-08 8.88051581569016e-05" pbc="T T T"
Ti       1.46981014       1.03931161       2.54578430       0.00000616      -0.00000317      -0.00000204
Ti       4.40942847       3.11793612       7.63735209       0.00000877      -0.00000103      -0.00000924
Os      -0.00000019      -0.00000012      -0.00000023       0.00000294       0.00000328       0.00001022
O        1.51414964       1.07066613       5.09156912       0.00016935       0.00012492       0.00000730
O        4.36508699       3.08658220       5.09156881      -0.00017643      -0.00012402       0.00000083
O        3.65235128       1.07066609       3.85707604      -0.00009806       0.00012340       0.00014154
O        2.22688467       3.08658189       6.32606107       0.00009300      -0.00013162      -0.00014708
O        2.22688398       3.08658307       3.85707778       0.00007983      -0.00010783       0.00015879
O        3.65235326       1.07066532       6.32605970      -0.00008634       0.00011634      -0.00016015
