9
Lattice="4.355403436121597 -1.3531816762904046e-07 2.5145931894893754 1.4518011228217826 4.106313433119407 2.514593007577079 6.714830994925389e-08 -1.7531512429687274e-07 5.029186262674459" Properties=species:S:1:pos:R:3:forces:R:3 energy=-56.94282150268555 free_energy=-56.94282150268555 stress="5.078859976492822e-05 1.0316546195099363e-07 6.114918793542756e-09 1.0316546195099363e-07 5.058976239524782e-05 -8.61039950450504e-08 6.114918793542756e-09 -8.61039950450504e-08 5.029510793974623e-05" pbc="T T T"
Ti       1.45180192       1.02657647       2.51459367       0.00000926      -0.00001804       0.00000691
Ti       4.35540504       3.07973383       7.54378019       0.00001775      -0.00001425       0.00000859
Pd      -0.00000005      -0.00000013      -0.00000036      -0.00000233       0.00002310       0.00002109
O        1.53720495       1.08696941       5.02918591      -0.00033589      -0.00022120      -0.00000319
O        4.26999887       3.01934528       5.02918635       0.00030861       0.00023312      -0.00000088
O        3.58680030       1.08696883       3.84585131       0.00015884      -0.00022445      -0.00029461
O        2.22040340       3.01934538       6.21252059      -0.00015225       0.00021478       0.00025395
O        2.22040342       3.01934578       3.84585183      -0.00015493       0.00023172      -0.00026178
O        3.58680073       1.08696766       6.21252014       0.00015128      -0.00022429       0.00027003
