9
Lattice="6.354734081190349 4.200401599121006e-08 3.668907451379704 2.1182447046567123 5.991300853881314 3.6689075010465486 -5.610779507489468e-08 2.1155006468255707e-08 7.337814999940932" Properties=species:S:1:pos:R:3:forces:R:3 energy=-33.90044403076172 free_energy=-33.90044403076172 stress="0.00018941023154184222 8.372974313886061e-09 -2.9922124777925774e-09 8.372974313886061e-09 0.00018939145957119763 -5.729853036484656e-09 -2.9922124777925774e-09 -5.729853036484656e-09 0.00018938009452540427" pbc="T T T"
Ti       2.11824451       1.49782539       3.66890763      -0.00000083       0.00000228       0.00000042
Ti       6.35473423       4.49347571      11.00672252       0.00000033      -0.00000069       0.00000091
Pb      -0.00000014      -0.00000000      -0.00000019       0.00000015      -0.00000052       0.00000102
Te       2.36998106       1.67582979       7.33781499      -0.00485736      -0.00343441      -0.00000001
Te       6.10299762       4.31547093       7.33781503       0.00485876       0.00343345      -0.00000038
Te       5.16974351       1.67582993       5.72137123       0.00242849      -0.00343422      -0.00420551
Te       3.30323521       4.31547135       8.95425857      -0.00242770       0.00343272       0.00420479
Te       3.30323537       4.31547095       5.72137125      -0.00242861       0.00343503      -0.00420602
Te       5.16974358       1.67582965       8.95425876       0.00242696      -0.00343380       0.00420497
