9
Lattice="5.203784032202615 -1.7602601399976944e-07 3.0044063655854036 1.7345944459751266 4.9061756410733 3.0044064789772325 -1.4457981921124413e-07 3.6642717521996665e-08 6.008812981590408" Properties=species:S:1:pos:R:3:forces:R:3 energy=-44.989051818847656 free_energy=-44.989051818847656 stress="-0.00011641448509180918 -1.3292060430103447e-07 2.179092817300443e-08 -1.3292060430103447e-07 -0.00011645049380604178 -2.7127164514695323e-08 2.179092817300443e-08 -2.7127164514695323e-08 -0.0001162702901638113" pbc="T T T"
Ti       1.73459437       1.22654532       3.00440717      -0.00000048       0.00000768       0.00000279
Ti       5.20378503       3.67963167       9.01322213       0.00000729      -0.00000036       0.00001213
P       -0.00000009       0.00000019       0.00000008       0.00000269      -0.00000477      -0.00000472
S        1.75754904       1.24277594       6.00881266       0.00780797       0.00552559      -0.00000088
S        5.18082953       3.66339912       6.00881239      -0.00780940      -0.00552833       0.00000107
S        4.32500955       1.24277621       4.52648914      -0.00389892       0.00552148       0.00675869
S        2.61336850       3.66340045       7.49113479       0.00389814      -0.00551093      -0.00676262
S        2.61336974       3.66339859       4.52648889       0.00390166      -0.00552160       0.00675052
S        4.32500764       1.24277441       7.49113577      -0.00390899       0.00551128      -0.00675714
