9
Lattice="4.4404364143370785 3.781986444677688e-08 2.563687240017181 1.4801454940430943 4.186483686949732 2.5636872626369134 -3.977034364027181e-08 -4.18476785425314e-10 5.1273745489186515" Properties=species:S:1:pos:R:3:forces:R:3 energy=-57.96115493774414 free_energy=-57.96115493774414 stress="0.00020378766930662096 -9.991079252813506e-08 -4.740451231555198e-08 -9.991079252813506e-08 0.00020394593593664467 -2.008568600331273e-08 -4.740451231555198e-08 -2.008568600331273e-08 0.00020397090702317655" pbc="T T T"
Ti       1.48014519       1.04662139       2.56368731      -0.00000367       0.00000756       0.00000269
Ti       4.44043673       3.13986293       7.69106241       0.00000379       0.00000289       0.00000737
Pt      -0.00000015       0.00000002       0.00000026       0.00000428      -0.00001727      -0.00002313
O        1.55661229       1.10069148       5.12737431      -0.00016537      -0.00011605      -0.00000360
O        4.36396952       3.08579226       5.12737448       0.00017101       0.00011870       0.00000100
O        3.66213031       1.10069109       3.91175338       0.00008328      -0.00011389      -0.00013605
O        2.25845125       3.08579226       6.34299564      -0.00009577       0.00012486       0.00015299
O        2.25845221       3.08579238       3.91175287      -0.00008053       0.00011700      -0.00014925
O        3.66213014       1.10069106       6.34299564       0.00008340      -0.00012375       0.00014780
