9
Lattice="5.636394147688881 8.667652310207245e-09 3.2541736872012237 1.8787980373444548 5.314043242253724 3.254173721941163 1.1458047804900666e-07 1.235682305802173e-07 6.508347175943247" Properties=species:S:1:pos:R:3:forces:R:3 energy=-37.138301849365234 free_energy=-37.138301849365234 stress="1.4850036677671596e-05 -2.423124589867598e-09 -1.7118667372528762e-08 -2.423124589867598e-09 1.4886310054862406e-05 -6.648495798344811e-08 -1.7118667372528762e-08 -6.648495798344811e-08 1.4844994439044967e-05" pbc="T T T"
Ti       1.87879794       1.32851091       3.25417454      -0.00000034       0.00000050       0.00000433
Ti       5.63639481       3.98553256       9.76251910       0.00000481      -0.00000008      -0.00001146
Pb       0.00000026      -0.00000002       0.00000017      -0.00000172       0.00000204      -0.00000212
Se       2.18207146       1.54295738       6.50834698       0.00024444       0.00017136      -0.00000150
Se       5.33312091       3.77108575       6.50834869      -0.00024158      -0.00017378       0.00000541
Se       4.54535795       1.54295717       5.14390268      -0.00012535       0.00016920       0.00021110
Se       2.96983375       3.77108601       7.87279129       0.00011991      -0.00017172      -0.00020941
Se       2.96983329       3.77108571       5.14390306       0.00011824      -0.00017077       0.00021270
Se       4.54535886       1.54295811       7.87279180      -0.00011854       0.00017312      -0.00020923
