9
Lattice="4.106760181305829 -1.8666694709990167e-07 2.3710391790179797 1.368919969063151 3.8718901300571487 2.371039032453305 3.428304053133289e-08 -1.5526254483371898e-07 4.7420782986559855" Properties=species:S:1:pos:R:3:forces:R:3 energy=-67.77658081054688 free_energy=-67.77658081054688 stress="-0.00032345441286452115 -1.31752415200026e-07 -1.0726231636226657e-07 -1.31752415200026e-07 -0.0003235889016650617 -2.37316356788142e-07 -1.0726231636226657e-07 -2.37316356788142e-07 -0.00032286648638546467" pbc="T T T"
Ti       1.36892020       0.96797340       2.37103923      -0.00000244       0.00000481       0.00000151
Ti       4.10676004       2.90391703       7.11311794      -0.00000009      -0.00000044       0.00000335
P        0.00000010      -0.00000000       0.00000007       0.00000387      -0.00000034       0.00000266
O        1.36227806       0.96327578       4.74207834       0.00448442       0.00316906      -0.00000106
O        4.11340221       2.90861365       4.74207820      -0.00448835      -0.00316846      -0.00000180
O        3.42562126       0.96327602       3.55080644      -0.00224072       0.00317085       0.00387716
O        2.05005887       2.90861378       5.93334990       0.00224400      -0.00317311      -0.00388408
O        2.05005906       2.90861393       3.55080644       0.00224280      -0.00316644       0.00388110
O        3.42562124       0.96327556       5.93334975      -0.00224274       0.00316429      -0.00387907
