9
Lattice="5.2805097197713184 -1.0867987204300596e-07 3.048703729297652 1.7601698085188473 4.978512243772564 3.0487037216891344 -4.917475589727903e-08 -4.409028540356377e-08 6.097407543768495" Properties=species:S:1:pos:R:3:forces:R:3 energy=-43.745201110839844 free_energy=-43.745201110839844 stress="-2.4663127987878397e-05 2.1462447818976216e-08 -2.9719050331777908e-08 2.1462447818976216e-08 -2.468833190505393e-05 2.23626575035496e-08 -2.9719050331777908e-08 2.23626575035496e-08 -2.4691165890544653e-05" pbc="T T T"
Ti       1.76016949       1.24462806       3.04870323      -0.00000016       0.00000061      -0.00000154
Ti       5.28050991       3.73388416       9.14611157      -0.00000019       0.00000078       0.00000074
Pd      -0.00000019      -0.00000016       0.00000029      -0.00000398       0.00000212      -0.00000264
S        1.88912213       1.33581107       6.09740751       0.00419080       0.00296438      -0.00000134
S        5.15155699       3.64270100       6.09740770      -0.00418746      -0.00296134       0.00000113
S        4.33594870       1.33581113       4.68473176      -0.00209475       0.00296175       0.00362867
S        2.70473089       3.64270090       7.51008299       0.00209326      -0.00296360      -0.00362772
S        2.70473116       3.64270139       4.68473170       0.00209790      -0.00296426       0.00363064
S        4.33594865       1.33581083       7.51008313      -0.00209522       0.00295985      -0.00362796
