9
Lattice="5.550454885232599 4.379416851655803e-08 3.204556656138211 1.8501516374653055 5.233018987282182 3.204556711971056 1.0087212197439429e-08 7.551371743620069e-08 6.4091132948048335" Properties=species:S:1:pos:R:3:forces:R:3 energy=-41.056861877441406 free_energy=-41.056861877441406 stress="-0.0002777223999146372 -4.0390592204175846e-08 -2.7045118144997105e-08 -4.0390592204175846e-08 -0.0002776876208372414 1.5949446208196605e-08 -2.7045118144997105e-08 1.5949446208196605e-08 -0.0002776744368020445" pbc="T T T"
Ti       1.85015209       1.30825475       3.20455699       0.00000309       0.00000009       0.00000203
Ti       5.55045467       3.92476443       9.61366961      -0.00000051       0.00000042      -0.00000192
P       -0.00000018      -0.00000002       0.00000011      -0.00000130       0.00000123      -0.00000512
Se       1.87724703       1.32741415       6.40911326      -0.00444657      -0.00314415      -0.00000044
Se       5.52335935       3.90560513       6.40911339       0.00444639       0.00314519       0.00000045
Se       4.61183149       1.32741417       4.83030063       0.00222281      -0.00314504      -0.00385255
Se       2.78877547       3.90560482       7.98792613      -0.00222436       0.00314680       0.00385368
Se       2.78877503       3.90560475       4.83030042      -0.00222373       0.00314099      -0.00385058
Se       4.61183118       1.32741427       7.98792610       0.00222424      -0.00314537       0.00385457
