9
Lattice="5.494000348411399 1.0189845942560691e-07 3.171962776517072 1.831333413026627 5.179793842420481 3.171963006039252 -2.7727898693520117e-07 8.504024282031851e-08 6.34392603329534" Properties=species:S:1:pos:R:3:forces:R:3 energy=-40.794029235839844 free_energy=-40.794029235839844 stress="0.00016707730537746102 -1.8827426728762475e-08 2.8710916311069923e-08 -1.8827426728762475e-08 0.00016700146079529077 3.806374238024546e-08 2.8710916311069923e-08 3.806374238024546e-08 0.00016708423208910972" pbc="T T T"
Ti       1.83133277       1.29494597       3.17196220      -0.00000306      -0.00001100      -0.00000440
Ti       5.49399764       3.88484867       9.51589355      -0.00001175       0.00001461       0.00002232
Pd       0.00000022      -0.00000009      -0.00000014       0.00000165      -0.00000088      -0.00000171
Se       2.02037413       1.42861812       6.34392580       0.00210845       0.00148180      -0.00000268
Se       5.30495993       3.75117531       6.34392515      -0.00210667      -0.00148183      -0.00000226
Se       4.48381453       1.42862128       4.92165717      -0.00104570       0.00149101       0.00181651
Se       2.84151928       3.75117374       7.76619385       0.00104937      -0.00148922      -0.00182238
Se       2.84152136       3.75117495       4.92165715       0.00105625      -0.00148484       0.00182074
Se       4.48381378       1.42861821       7.76619258      -0.00104851       0.00148073      -0.00182635
