9
Lattice="5.638817433976601 -6.425429840648388e-08 3.2555726894519252 1.8796057668397141 5.316327859460995 3.255572661576781 -6.388540262851489e-08 -7.931374725662895e-08 6.511145489556581" Properties=species:S:1:pos:R:3:forces:R:3 energy=-42.47831726074219 free_energy=-42.47831726074219 stress="-0.00010476313764229417 4.490270200108171e-08 2.2974768754124852e-08 4.490270200108171e-08 -0.00010480426135472953 -3.664368808387053e-09 2.2974768754124852e-08 -3.664368808387053e-09 -0.00010483751248102635" pbc="T T T"
Ti       1.87960650       1.32908116       3.25557284       0.00000505      -0.00000379       0.00000019
Ti       5.63881643       3.98724572       9.76671697      -0.00000576      -0.00000054      -0.00000668
Pt      -0.00000003      -0.00000002       0.00000008       0.00000122      -0.00000066       0.00000180
Se       1.95476649       1.38222836       6.51114564       0.00113100       0.00079954       0.00000091
Se       5.56365640       3.93409961       6.51114563      -0.00113335      -0.00079775       0.00000022
Se       4.66143419       1.38222818       4.94844998      -0.00056864       0.00080380       0.00098464
Se       2.85698948       3.93409942       8.07384078       0.00056979      -0.00080284      -0.00098228
Se       2.85698881       3.93409953       4.94845024       0.00056714      -0.00080243       0.00098273
Se       4.66143431       1.38222887       8.07384110      -0.00056645       0.00080463      -0.00098145
