9
Lattice="4.382653427254078 7.686571754315026e-08 2.5303261941111392 1.460884540540887 4.132005325853477 2.5303262074135704 1.1927979509317527e-08 2.4726439165630153e-08 5.060652367562422" Properties=species:S:1:pos:R:3:forces:R:3 energy=-59.95109558105469 free_energy=-59.95109558105469 stress="0.00034752217470668256 -4.225667638024788e-08 -7.866841400527846e-08 -4.225667638024788e-08 0.0003478903090581298 3.5881296156503595e-08 -7.866841400527846e-08 3.5881296156503595e-08 0.0003472329117357731" pbc="T T T"
Ti       1.46088421       1.03300057       2.53032670      -0.00000453      -0.00000787       0.00000584
Ti       4.38265388       3.09900525       7.59097962       0.00000291       0.00001383       0.00001587
Rh       0.00000006      -0.00000005      -0.00000043       0.00000243       0.00000357       0.00001467
O        1.53722020       1.08697852       5.06065242      -0.00303283      -0.00215091      -0.00000116
O        4.30631799       3.04502687       5.06065189       0.00303036       0.00214657      -0.00000842
O        3.61404372       1.08697842       3.86159799       0.00152172      -0.00215325      -0.00262596
O        2.22949425       3.04502720       6.25970652      -0.00151652       0.00214842       0.00261234
O        2.22949451       3.04502661       3.86159732      -0.00151533       0.00214413      -0.00263193
O        3.61404322       1.08697848       6.25970695       0.00151181      -0.00214455       0.00261939
