9
Lattice="5.271681940858285 -1.9659041621874797e-07 3.0436068930039957 1.7572271582790602 4.970189179145028 3.0436068410305963 1.682127768203114e-08 -5.175971735419971e-08 6.08721375687267" Properties=species:S:1:pos:R:3:forces:R:3 energy=-52.743682861328125 free_energy=-52.743682861328125 stress="6.127002052380703e-06 -6.757579029681438e-08 5.1129838141150685e-08 -6.757579029681438e-08 6.165692411741475e-06 -5.375213874003748e-08 5.1129838141150685e-08 -5.375213874003748e-08 6.19940374235739e-06" pbc="T T T"
Ti       1.75722782       1.24254694       3.04360649       0.00000255      -0.00000118      -0.00000239
Ti       5.27168252       3.72764174       9.13082105       0.00000430       0.00000009       0.00000285
Re      -0.00000018       0.00000008       0.00000046       0.00000112      -0.00000078      -0.00000986
S        1.89484410       1.33985725       6.08721394       0.00003505       0.00002432      -0.00000239
S        5.13406450       3.63033214       6.08721359      -0.00003850      -0.00002390      -0.00000162
S        4.32426015       1.33985715       4.68459022      -0.00001776       0.00002724       0.00003272
S        2.70464903       3.63033146       7.48983704       0.00001144      -0.00001937      -0.00002396
S        2.70464918       3.63033163       4.68459050       0.00001532      -0.00002354       0.00002599
S        4.32425923       1.33985736       7.48983712      -0.00001353       0.00001717      -0.00002092
