9
Lattice="5.170446303130701 9.464324295580315e-09 2.9851584586588547 1.7234821009779744 4.874743353344792 2.985158474227616 -2.7839894734249262e-08 -6.179908784739136e-10 5.970316965537813" Properties=species:S:1:pos:R:3:forces:R:3 energy=-48.914146423339844 free_energy=-48.914146423339844 stress="-3.6912526411470026e-05 2.6571559175181392e-08 4.0528824740704295e-09 2.6571559175181392e-08 -3.7052228435641155e-05 1.6885708831182455e-08 4.0528824740704295e-09 1.6885708831182455e-08 -3.707796349772252e-05" pbc="T T T"
Ti       1.72348187       1.21868523       2.98515816      -0.00000005      -0.00000311      -0.00000147
Ti       5.17044627       3.65605841       8.95547571       0.00000111       0.00000330       0.00000140
Ru      -0.00000028      -0.00000027       0.00000023      -0.00000086      -0.00000013       0.00000278
S        1.86388389       1.31796427       5.97031678      -0.00118172      -0.00083464       0.00000010
S        5.03004427       3.55677941       5.97031659       0.00118005       0.00083810      -0.00000032
S        4.23850487       1.31796444       4.59932939       0.00059181      -0.00083590      -0.00102162
S        2.65542378       3.55677857       7.34130520      -0.00058925       0.00082940       0.00102079
S        2.65542405       3.55677884       4.59932887      -0.00059128       0.00083375      -0.00102162
S        4.23850469       1.31796444       7.34130468       0.00059003      -0.00083083       0.00101995
