9
Lattice="6.146128247543039 2.1082502514925964e-08 3.548468800283166 2.0487094374973034 5.794625352524897 3.548468797212504 1.677952105090419e-08 8.104139030366691e-09 7.0969375715033545" Properties=species:S:1:pos:R:3:forces:R:3 energy=-44.90509796142578 free_energy=-44.90509796142578 stress="-6.156306335469708e-05 1.2872779286965397e-08 -8.05594613240146e-09 1.2872779286965397e-08 -6.157426832942292e-05 1.4515972424078427e-08 -8.05594613240146e-09 1.4515972424078427e-08 -6.16061151959002e-05" pbc="T T T"
Ti       2.04870937       1.44865624       3.54846856      -0.00000029      -0.00000073      -0.00000083
Ti       6.14612823       4.34596893      10.64540652      -0.00000094      -0.00000175       0.00000140
Re      -0.00000012       0.00000003       0.00000035      -0.00000171       0.00000132      -0.00000120
Te       2.13788648       1.51171428       7.09693775      -0.00063169      -0.00044565       0.00000079
Te       6.05695113       4.28291105       7.09693742       0.00063312       0.00044781      -0.00000100
Te       5.07718480       1.51171431       5.39993287       0.00031513      -0.00044669      -0.00054750
Te       3.11765298       4.28291132       8.79394213      -0.00031514       0.00044630       0.00054637
Te       3.11765294       4.28291110       5.39993307      -0.00031343       0.00044611      -0.00054477
Te       5.07718498       1.51171426       8.79394198       0.00031513      -0.00044674       0.00054686
