9
Lattice="5.678447748301128 -2.6689873503624815e-08 3.2784533736670003 1.8928159573381456 5.3536916642813654 3.2784532586566253 1.234750213498715e-07 -5.3548268199295706e-08 6.556906533468866" Properties=species:S:1:pos:R:3:forces:R:3 energy=-48.23693084716797 free_energy=-48.23693084716797 stress="4.407570941111771e-06 3.501346412804196e-08 -2.234467899597803e-08 3.501346412804196e-08 4.4292310121818446e-06 8.494606795750315e-09 -2.234467899597803e-08 8.494606795750315e-09 4.42747432316537e-06" pbc="T T T"
Ti       1.89281490       1.33842240       3.27845375      -0.00000773      -0.00000198       0.00000438
Ti       5.67844866       4.01526854       9.83535943       0.00000744      -0.00000213      -0.00000304
Re       0.00000013       0.00000040      -0.00000007       0.00000153      -0.00000366       0.00000099
Se       1.99104762       1.40788319       6.55690624      -0.00614542      -0.00434503       0.00000008
Se       5.58021651       3.94580876       6.55690691       0.00614315       0.00434497       0.00000082
Se       4.68292440       1.40788306       5.00275100       0.00307298      -0.00434098      -0.00531763
Se       2.88833945       3.94580885       8.11106220      -0.00307021       0.00434455       0.00531822
Se       2.88833902       3.94580824       5.00275087      -0.00307295       0.00434422      -0.00531989
Se       4.68292458       1.40788297       8.11106238       0.00307128      -0.00434020       0.00531662
