9
Lattice="5.482441288649944 -5.2993795566446734e-08 3.1652888488053192 1.8274804069627593 5.168895179976485 3.1652888013890577 1.5260293854192685e-08 -4.728218022979379e-08 6.330577671179017" Properties=species:S:1:pos:R:3:forces:R:3 energy=-43.66532897949219 free_energy=-43.66532897949219 stress="9.351976768812165e-05 4.3656932291469275e-08 4.2650918352649114e-09 4.3656932291469275e-08 9.352469351142645e-05 4.747297666085615e-09 4.2650918352649114e-09 4.747297666085615e-09 9.350771142635494e-05" pbc="T T T"
Ti       1.82748121       1.29222289       3.16528758       0.00000314      -0.00000434      -0.00000378
Ti       5.48244108       3.87667050       9.49586503       0.00000009      -0.00000355      -0.00000629
Rh       0.00000002       0.00000017      -0.00000004      -0.00000046      -0.00000146       0.00000205
Se       1.99894522       1.41346814       6.33057675      -0.00070113      -0.00049469      -0.00000110
Se       5.31097621       3.75542694       6.33057829       0.00070518       0.00049752       0.00000269
Se       4.48296877       1.41346774       4.89642685       0.00034982      -0.00049585      -0.00060529
Se       2.82695313       3.75542757       7.76472950      -0.00035065       0.00049517       0.00060767
Se       2.82695329       3.75542814       4.89642718      -0.00035033       0.00049978      -0.00060630
Se       4.48296791       1.41346818       7.76473024       0.00034454      -0.00049278       0.00060993
