9
Lattice="4.374425260160636 7.447567528588521e-09 2.525575546921323 1.4581417733003217 4.12424769757506 2.5255755245920386 -7.547097367766685e-08 -8.07137216498025e-08 5.051151224562219" Properties=species:S:1:pos:R:3:forces:R:3 energy=-63.1275749206543 free_energy=-63.1275749206543 stress="9.484599286224693e-05 4.448736046214208e-09 2.373200125305175e-08 4.448736046214208e-09 9.534964920021594e-05 2.8448820188486934e-08 2.373200125305175e-08 2.8448820188486934e-08 9.517708531348035e-05" pbc="T T T"
Ti       1.45814244       1.03106126       2.52557647       0.00001030      -0.00000888       0.00001154
Ti       4.37442610       3.09318621       7.57672675       0.00000740       0.00000633       0.00000383
Ru       0.00000008      -0.00000016      -0.00000013      -0.00000430       0.00000265      -0.00000464
O        1.51853219       1.07376435       5.05115043      -0.00020912      -0.00014718      -0.00001051
O        4.31403435       3.05048335       5.05115127       0.00020814       0.00014928       0.00000232
O        3.61515873       1.07376469       3.84066256       0.00009958      -0.00014499      -0.00018528
O        2.21740752       3.05048323       6.26163918      -0.00010918       0.00014749       0.00017640
O        2.21740770       3.05048362       3.84066331      -0.00010632       0.00015183      -0.00017577
O        3.61515864       1.07376413       6.26163921       0.00010374      -0.00015694       0.00018293
