9
Lattice="5.232910472812945 -1.084874235113169e-08 3.021222176632025 1.7443034969888103 4.933635193681386 3.0212221484351964 6.377355936969178e-09 -3.002445898240871e-08 6.042444342218114" Properties=species:S:1:pos:R:3:forces:R:3 energy=-47.16233444213867 free_energy=-47.16233444213867 stress="-1.4204058970790356e-05 2.5104473166948083e-08 -6.169459165761282e-09 2.5104473166948083e-08 -1.4163015293888748e-05 7.3764865327063944e-09 -6.169459165761282e-09 7.3764865327063944e-09 -1.4192920389177743e-05" pbc="T T T"
Ti       1.74430315       1.23340867       3.02122218      -0.00000119      -0.00000021       0.00000040
Ti       5.23291178       3.70022602       9.06366617       0.00000285      -0.00000147      -0.00000069
Rh       0.00000003       0.00000029       0.00000007       0.00000034      -0.00000235       0.00000092
S        1.87782053       1.32781946       6.04244438       0.00017977       0.00012445       0.00000068
S        5.09939322       3.60581570       6.04244460      -0.00017834      -0.00012583      -0.00000012
S        4.29400031       1.32781971       4.64746204      -0.00009042       0.00012881       0.00015682
S        2.68321317       3.60581559       7.43742632       0.00008714      -0.00012559      -0.00015384
S        2.68321319       3.60581561       4.64746244       0.00008911      -0.00012577       0.00015420
S        4.29400046       1.32781966       7.43742647      -0.00008982       0.00012785      -0.00015831
