9
Lattice="5.273587291620895 1.2517595806871472e-07 3.044706743914849 1.757862539559456 4.971985744559997 3.0447067594996375 -5.337312928243544e-08 -1.8653191259923372e-08 6.089413580274763" Properties=species:S:1:pos:R:3:forces:R:3 energy=-40.74042510986328 free_energy=-40.74042510986328 stress="0.00013233655772637576 2.094073892067172e-07 2.5331011954676796e-08 2.094073892067172e-07 0.00013225954899098724 -2.5447237650411125e-09 2.5331011954676796e-08 -2.5447237650411125e-09 0.00013206862786319107" pbc="T T T"
Ti       1.75786229       1.24299611       3.04470648      -0.00000106       0.00000030      -0.00000529
Ti       5.27358790       3.72898920       9.13412144       0.00000165      -0.00000128       0.00000369
Se      -0.00000065       0.00000010      -0.00000695       0.00001099       0.00000311       0.00012371
S        1.83858884       1.30007934       6.08941403       0.00447100       0.00316384       0.00000963
S        5.19286138       3.67190747       6.08941242      -0.00448316      -0.00317004       0.00000465
S        4.35429263       1.30007871       4.63697167      -0.00222471       0.00314185       0.00385851
S        2.67715389       3.67190924       7.54185902       0.00226755      -0.00321022      -0.00392392
S        2.67715765       3.67190736       4.63697156       0.00222456      -0.00313869       0.00385487
S        4.35429518       1.30007585       7.54185871      -0.00226675       0.00321135      -0.00392577
