9
Lattice="4.47450307760961 -2.67144296556191e-08 2.5833554471866287 1.4915009937331574 4.218602000439109 2.5833554592245727 4.9924759495705715e-08 5.004555676754008e-08 5.166710807901032" Properties=species:S:1:pos:R:3:forces:R:3 energy=-57.06250762939453 free_energy=-57.06250762939453 stress="0.00019520569185260683 -1.33515911215909e-07 -1.8045587069082103e-07 -1.33515911215909e-07 0.00019514167797751725 1.5622729776509914e-08 -1.8045587069082103e-07 1.5622729776509914e-08 0.00019550335127860308" pbc="T T T"
Ti       1.49150114       1.05465321       2.58335524       0.00000052       0.00003075      -0.00000133
Ti       4.47450311       3.16395153       7.75006791       0.00000018       0.00000340       0.00001660
Sn      -0.00000006       0.00000000      -0.00000000       0.00000871      -0.00000538      -0.00000189
O        1.59673473       1.12906157       5.16671068      -0.00076866      -0.00054961      -0.00000169
O        4.36926935       3.08954013       5.16671023       0.00076640       0.00053716      -0.00000453
O        3.67613582       1.12906279       3.96616741       0.00038716      -0.00053447      -0.00067788
O        2.28986824       3.08953833       6.36725441      -0.00039113       0.00053036       0.00068581
O        2.28986789       3.08953980       3.96616836      -0.00039500       0.00054318      -0.00066954
O        3.67613615       1.12906086       6.36725259       0.00039148      -0.00055557       0.00065386
