9
Lattice="4.336264566931075 -3.365059901688173e-08 2.5035435969027886 1.4454214970734398 4.088269513247687 2.5035435856632424 -2.7630374472964308e-08 -3.330323776729344e-08 5.00708724166279" Properties=species:S:1:pos:R:3:forces:R:3 energy=-59.233238220214844 free_energy=-59.233238220214844 stress="0.00023945140128489584 -3.75972462052232e-08 -4.278951237779438e-08 -3.75972462052232e-08 0.0002394658949924633 -6.239918093342567e-08 -4.278951237779438e-08 -6.239918093342567e-08 0.00023947851150296628" pbc="T T T"
Ti       1.44542178       1.02206768       2.50354361       0.00000075       0.00000286       0.00000136
Ti       4.33626461       3.06620184       7.51063095       0.00000125      -0.00000101       0.00000124
Se      -0.00000014       0.00000000      -0.00000019       0.00000773      -0.00000322       0.00000533
O        1.43538350       1.01496986       5.00708746      -0.00149906      -0.00106114       0.00000178
O        4.34630256       3.07329969       5.00708700       0.00149554       0.00105810      -0.00000172
O        3.61857245       1.01496944       3.74662263       0.00074658      -0.00106192      -0.00130087
O        2.16311352       3.07329986       6.26755184      -0.00074869       0.00106245       0.00129944
O        2.16311330       3.07329970       3.74662254      -0.00075042       0.00106555      -0.00130385
O        3.61857260       1.01496957       6.26755178       0.00074670      -0.00106186       0.00129795
