9
Lattice="5.731113495528813 8.415053956963645e-08 3.308859788575594 1.9103711972013182 5.403345568688967 3.308859870523823 -4.4458382491472494e-08 6.892884454995112e-08 6.617719654155371" Properties=species:S:1:pos:R:3:forces:R:3 energy=-30.920061111450195 free_energy=-30.920061111450195 stress="0.00037885361234657466 2.3258747816612413e-08 2.2840920266276044e-08 2.3258747816612413e-08 0.00037888536462560296 1.9640928883291053e-08 2.2840920266276044e-08 1.9640928883291053e-08 0.0003788950270973146" pbc="T T T"
Ti       1.91037151       1.35083596       3.30885949       0.00000221      -0.00000512      -0.00000183
Ti       5.73111282       4.05250946       9.92657923      -0.00000433       0.00000093      -0.00000223
S        0.00000016       0.00000026       0.00000016      -0.00000088      -0.00000114       0.00000159
Cl       1.93998054       1.37177345       6.61771912      -0.00492102      -0.00347996      -0.00000245
Cl       5.70150368       4.03157236       6.61771963       0.00492185       0.00348178      -0.00000079
Cl       4.76112334       1.37177334       4.98893233       0.00246117      -0.00348008      -0.00426114
Cl       2.88036203       4.03157210       8.24650761      -0.00245729       0.00347987       0.00426537
Cl       2.88036170       4.03157258       4.98893241      -0.00245941       0.00348422      -0.00426120
Cl       4.76112282       1.37177340       8.24650726       0.00245774      -0.00348037       0.00426280
