9
Lattice="5.263564118264751 1.3499369347682943e-08 3.038920489842499 1.7545213990184347 4.962535914130076 3.038920466397103 9.61276860221937e-08 3.9257943504755614e-08 6.077840813187037" Properties=species:S:1:pos:R:3:forces:R:3 energy=-45.59859085083008 free_energy=-45.59859085083008 stress="-6.630871212109923e-05 3.272474558002614e-08 -6.816037068091418e-09 3.272474558002614e-08 -6.622798537136987e-05 4.049077517720434e-08 -6.816037068091418e-09 4.049077517720434e-08 -6.625068635912612e-05" pbc="T T T"
Ti       1.75452196       1.24063310       3.03892025      -0.00000040      -0.00000540      -0.00000226
Ti       5.26356556       3.72190344       9.11676112       0.00000924       0.00000671      -0.00000138
Si      -0.00000019      -0.00000016       0.00000012       0.00000236      -0.00000157      -0.00000141
S        1.78451539       1.26184274       6.07784066      -0.00008994      -0.00006890      -0.00000271
S        5.23357025       3.70069294       6.07784180       0.00009090       0.00006342       0.00000268
S        4.37130668       1.26184242       4.58435631       0.00004247      -0.00006384      -0.00007570
S        2.64677770       3.70069271       7.57132444      -0.00005430       0.00006813       0.00007963
S        2.64677891       3.70069363       4.58435672      -0.00004321       0.00006568      -0.00007761
S        4.37130626       1.26184297       7.57132584       0.00004324      -0.00006467       0.00007874
