9
Lattice="4.22026640674357 6.441147495432181e-08 2.436572137661592 1.4067554941967255 3.978905521062914 2.4365721990550053 1.6899595561030995e-09 7.638625078937916e-08 4.87314427239609" Properties=species:S:1:pos:R:3:forces:R:3 energy=-62.790122985839844 free_energy=-62.790122985839844 stress="-6.254662002902478e-05 6.004089669886525e-09 4.347129234361091e-08 6.004089669886525e-09 -6.269061123020947e-05 -1.7420795916933685e-09 4.347129234361091e-08 -1.7420795916933685e-09 -6.267315620789304e-05" pbc="T T T"
Ti       1.40675562       0.99472656       2.43657207       0.00000026       0.00000049       0.00000060
Ti       4.22026647       2.98417925       7.30971654       0.00000005       0.00000068       0.00000089
S       -0.00000023      -0.00000012       0.00000021       0.00000278       0.00000656      -0.00000097
O        1.34431102       0.95057142       4.87314433      -0.00058138      -0.00041151      -0.00000006
O        4.28271067       3.02833407       4.87314430       0.00059044       0.00041223       0.00000101
O        3.54811087       0.95057154       3.60077978       0.00028855      -0.00041181      -0.00050336
O        2.07891115       3.02833413       6.14550854      -0.00029367       0.00040746       0.00050527
O        2.07891099       3.02833412       3.60077992      -0.00029606       0.00040740      -0.00050682
O        3.54811097       0.95057162       6.14550863       0.00028980      -0.00041062       0.00050288
