9
Lattice="4.086669640383505 -9.419092755989645e-08 2.359439995006428 1.3622231350330423 3.8529493954757905 2.359439977034795 -1.7049739581760832e-07 -1.425705310764051e-07 4.718880285323025" Properties=species:S:1:pos:R:3:forces:R:3 energy=-67.47406768798828 free_energy=-67.47406768798828 stress="-0.00010420316539239138 7.73494246431028e-09 7.10072356469027e-08 7.73494246431028e-09 -0.00010398455196991563 5.0484398883554604e-08 7.10072356469027e-08 5.0484398883554604e-08 -0.00010373463737778366" pbc="T T T"
Ti       1.36222406       0.96323840       2.35944023       0.00000547       0.00000671      -0.00000105
Ti       4.08667003       2.88971124       7.07831949       0.00000579      -0.00000449      -0.00000361
Si      -0.00000025      -0.00000007       0.00000015       0.00001073      -0.00000054      -0.00000782
O        1.39474438       0.98623379       4.71888043       0.00019288       0.00014120      -0.00000317
O        4.05414794       2.86671557       4.71888024      -0.00019813      -0.00014776       0.00000421
O        3.38929675       0.98623357       3.56732465      -0.00010520       0.00013596       0.00017357
O        2.05959555       2.86671558       5.87043544       0.00009447      -0.00013369      -0.00015843
O        2.05959551       2.86671546       3.56732461       0.00009102      -0.00013947       0.00016272
O        3.38929659       0.98623329       5.87043564      -0.00009644       0.00014168      -0.00016654
