9
Lattice="6.537581339724395 -6.396544039452208e-09 3.774474024666502 2.179193804054065 6.163690847410746 3.7744739723990337 -3.0157899678170764e-08 -8.533918953180923e-08 7.548948101568039" Properties=species:S:1:pos:R:3:forces:R:3 energy=-25.02981185913086 free_energy=-25.02981185913086 stress="7.012188871158287e-05 -8.129411810386955e-09 3.2267442051647777e-09 -8.129411810386955e-09 7.014030416030437e-05 -3.2907554459171706e-10 3.2267442051647777e-09 -3.2907554459171706e-10 7.014322181930766e-05" pbc="T T T"
Ti       2.17919308       1.54092256       3.77447402      -0.00000267       0.00000026      -0.00000046
Ti       6.53758059       4.62276746      11.32342263      -0.00000396      -0.00000310       0.00000218
S       -0.00000055      -0.00000011       0.00000013      -0.00000296      -0.00000137       0.00000142
I        2.30414725       1.62927856       7.54894792       0.00349011       0.00246932      -0.00000053
I        6.41262805       4.53441262       7.54894745      -0.00348908      -0.00246885      -0.00000192
I        5.38550801       1.62927818       5.76992384      -0.00174247       0.00246975       0.00302278
I        3.33126804       4.53441267       9.32797236       0.00174712      -0.00246686      -0.00302134
I        3.33126817       4.53441292       5.76992371       0.00174751      -0.00246765       0.00302093
I        5.38550782       1.62927815       9.32797230      -0.00174364       0.00246856      -0.00302309
