9
Lattice="5.521128211185034 2.572824759481601e-08 3.1876246452454304 1.840376046513835 5.205369548861988 3.1876247286228985 -1.2546775704864207e-07 1.3397028083360608e-08 6.37524950780737" Properties=species:S:1:pos:R:3:forces:R:3 energy=-41.78074645996094 free_energy=-41.78074645996094 stress="3.217251651221886e-05 5.331406427444563e-08 1.3985543390049315e-08 5.331406427444563e-08 3.213841046090238e-05 -2.9465079265378336e-09 1.3985543390049315e-08 -2.9465079265378336e-09 3.2069689041236416e-05" pbc="T T T"
Ti       1.84037766       1.30134177       3.18762485       0.00001477      -0.00000482      -0.00000025
Ti       5.52112821       3.90402733       9.56287411       0.00000117      -0.00000050      -0.00000155
Sn      -0.00000008       0.00000003      -0.00000018       0.00000084      -0.00000073       0.00000472
S        1.97253547       1.39479335       6.37524919       0.00007868       0.00005519      -0.00000163
S        5.38896863       3.81057590       6.37524916      -0.00007874      -0.00005734      -0.00000009
S        4.53485986       1.39479362       4.89588966      -0.00004590       0.00005841       0.00006589
S        2.82664398       3.81057670       7.85460831       0.00004324      -0.00005552      -0.00007066
S        2.82664347       3.81057659       4.89589101       0.00003594      -0.00005245       0.00007334
S        4.53485930       1.39479298       7.85460910      -0.00004998       0.00005764      -0.00006986
