9
Lattice="6.100880788699384 1.3501034825510388e-09 3.522345146167978 2.0336269330334455 5.751965520517027 3.5223451423676826 5.697964834331654e-09 -6.253203234341364e-10 7.044690282466803" Properties=species:S:1:pos:R:3:forces:R:3 energy=-37.340171813964844 free_energy=-37.340171813964844 stress="-9.182956273434684e-05 6.705410893204089e-09 8.69262495317713e-10 6.705410893204089e-09 -9.183552901959047e-05 6.632815630069899e-09 8.69262495317713e-10 6.632815630069899e-09 -9.181643690681085e-05" pbc="T T T"
Ti       2.03362708       1.43799195       3.52234525      -0.00000013       0.00000526       0.00000113
Ti       6.10088029       4.31397418      10.56703489      -0.00000470       0.00000009      -0.00000437
Si      -0.00000015      -0.00000013      -0.00000023       0.00000111      -0.00000198       0.00000192
Te       2.09161575       1.47899542       7.04469025       0.00008360       0.00005701       0.00000030
Te       6.04289224       4.27296972       7.04469052      -0.00008133      -0.00005980       0.00000191
Te       5.05507277       1.47899561       5.33373736      -0.00004084       0.00005712       0.00007102
Te       3.07943508       4.27296985       8.75564353       0.00004249      -0.00006022      -0.00006927
Te       3.07943482       4.27296972       5.33373724       0.00004045      -0.00005828       0.00006960
Te       5.05507303       1.47899573       8.75564346      -0.00004058       0.00006079      -0.00007211
