9
Lattice="5.553316891927647 -1.6816098870176307e-08 3.2062090172414894 1.8511056143289883 5.235717337845602 3.206209018036811 -1.3030173415424777e-09 5.27156349271236e-11 6.41241803673985" Properties=species:S:1:pos:R:3:forces:R:3 energy=-41.75564956665039 free_energy=-41.75564956665039 stress="-0.0003957451554015279 4.067382164407718e-08 -4.887278581833243e-09 4.067382164407718e-08 -0.0003957391018047929 2.9447568827833948e-09 -4.887278581833243e-09 2.9447568827833948e-09 -0.00039567783824168146" pbc="T T T"
Ti       1.85110552       1.30892909       3.20620899      -0.00000035      -0.00000171      -0.00000039
Ti       5.55331697       3.92678830       9.61862713       0.00000139       0.00000153       0.00000332
Si      -0.00000021       0.00000006      -0.00000007       0.00000091      -0.00000207       0.00000284
Se       1.88396838       1.33216688       6.41241805      -0.00004631      -0.00003280       0.00000051
Se       5.52045430       3.90355049       6.41241809       0.00004679       0.00003231      -0.00000088
Se       4.61133268       1.33216665       4.83777348       0.00002188      -0.00003178      -0.00003916
Se       2.79308980       3.90355073       7.98706256      -0.00002220       0.00003328       0.00003759
Se       2.79308988       3.90355068       4.83777344      -0.00002154       0.00003358      -0.00004040
Se       4.61133273       1.33216639       7.98706263       0.00001942      -0.00003219       0.00003666
