9
Lattice="5.76603713220473 4.026125846153975e-08 3.3290229968263003 1.9220123563610891 5.436272000800621 3.329023099015869 -1.2732704916981103e-07 3.512234346140659e-08 6.65804621418958" Properties=species:S:1:pos:R:3:forces:R:3 energy=-38.28981018066406 free_energy=-38.28981018066406 stress="0.00013459708134178072 -3.617062205307775e-09 4.8596202617545714e-08 -3.617062205307775e-09 0.0001346148201264441 -2.817048283532131e-08 4.8596202617545714e-08 -2.817048283532131e-08 0.0001345773780485615" pbc="T T T"
Ti       1.92201265       1.35906655       3.32902327       0.00000203      -0.00000898       0.00000076
Ti       5.76603779       4.07720272       9.98706780       0.00000536      -0.00001068      -0.00001039
Sn      -0.00000054      -0.00000049       0.00000037       0.00001452       0.00001216      -0.00000416
Se       2.08844698       1.47675567       6.65804606      -0.00795275      -0.00561789       0.00000087
Se       5.59960254       3.95951758       6.65804699       0.00793211       0.00561497       0.00000535
Se       4.72181334       1.47675562       5.13767067       0.00396938      -0.00561187      -0.00688061
Se       2.96623615       3.95951731       8.17842085      -0.00397126       0.00562023       0.00687714
Se       2.96623519       3.95951747       5.13767195      -0.00397423       0.00561893      -0.00687172
Se       4.72181349       1.47675598       8.17842128       0.00397474      -0.00561699       0.00688305
