9
Lattice="5.4280893475233585 -8.776427672171057e-08 3.133908758292525 1.8093630472727553 5.117651630398011 3.133908733737963 -8.911818657442425e-08 -9.30891772752113e-08 6.267817670942262" Properties=species:S:1:pos:R:3:forces:R:3 energy=-53.409908294677734 free_energy=-53.409908294677734 stress="-2.2709080440108664e-05 6.210880343360259e-08 2.6203839098570825e-08 6.210880343360259e-08 -2.2754577003070153e-05 5.40978506435863e-09 2.6203839098570825e-08 5.40978506435863e-09 -2.2835747586213984e-05" pbc="T T T"
Ti       1.80936247       1.27941270       3.13390887      -0.00000307      -0.00000138       0.00000126
Ti       5.42808953       3.83823810       9.40172712       0.00000272      -0.00000417       0.00000310
Ta       0.00000022       0.00000003      -0.00000014       0.00000105       0.00000190       0.00000195
S        1.93048585       1.36505954       6.26781763      -0.00090978      -0.00064257      -0.00000126
S        5.30696650       3.75259228       6.26781726       0.00090829       0.00064325      -0.00000072
S        4.46284691       1.36505961       4.80575808       0.00045402      -0.00063837      -0.00078163
S        2.77460559       3.75259222       7.72987653      -0.00045325       0.00064060       0.00078064
S        2.77460570       3.75259192       4.80575816      -0.00045338       0.00063968      -0.00078583
S        4.46284638       1.36505946       7.72987701       0.00045314      -0.00063911       0.00078279
