9
Lattice="5.713777390084102 5.474919797478368e-08 3.2988509247386726 1.9045925030366506 5.387001008591074 3.2988509454241055 -8.03079716076459e-10 2.476650823575214e-08 6.597701850868312" Properties=species:S:1:pos:R:3:forces:R:3 energy=-48.66752624511719 free_energy=-48.66752624511719 stress="-6.335870421025902e-05 5.4424904583072475e-09 3.089634503794514e-08 5.4424904583072475e-09 -6.33143718005158e-05 1.6210210063150043e-08 3.089634503794514e-08 1.6210210063150043e-08 -6.328002200461924e-05" pbc="T T T"
Ti       1.90459249       1.34675054       3.29885092       0.00000063       0.00000153       0.00000020
Ti       5.71377765       4.04025094       9.89655297       0.00000099       0.00000033       0.00000320
Ta      -0.00000006      -0.00000014      -0.00000005      -0.00000258       0.00000222      -0.00000106
Se       2.01330258       1.42361992       6.59770176      -0.00116267      -0.00082293      -0.00000090
Se       5.60506729       3.96338108       6.59770176       0.00116249       0.00082300      -0.00000001
Se       4.70712618       1.42362006       5.04242211       0.00058287      -0.00082485      -0.00100948
Se       2.91124362       3.96338094       8.15298167      -0.00058148       0.00082128       0.00100701
Se       2.91124365       3.96338109       5.04242203      -0.00058227       0.00082170      -0.00100762
Se       4.70712619       1.42361999       8.15298170       0.00058201      -0.00082239       0.00100841
