9
Lattice="5.626969245241573 -1.4999062390977571e-07 3.248732156528582 1.875656319266309 5.305157534616101 3.2487320775498856 1.0632006618257307e-07 -2.1548968732525898e-08 6.497464128905379" Properties=species:S:1:pos:R:3:forces:R:3 energy=-36.885345458984375 free_energy=-36.885345458984375 stress="-6.788117752876133e-05 1.5746760340107357e-08 -1.1262319965510414e-08 1.5746760340107357e-08 -6.788305472582579e-05 -2.861374603924105e-08 -1.1262319965510414e-08 -2.861374603924105e-08 -6.768238381482661e-05" pbc="T T T"
Ti       1.87565762       1.32629191       3.24873024       0.00000590       0.00001138      -0.00000873
Ti       5.62696703       3.97886749       9.74619470      -0.00001020      -0.00000485      -0.00000673
Te       0.00000016      -0.00000005      -0.00000070      -0.00000091      -0.00000292       0.00000543
Se       2.22960507       1.57656902       6.49746388      -0.00254744      -0.00180024       0.00000185
Se       5.27302083       3.72858768       6.49746413       0.00255185       0.00179926       0.00000170
Se       4.51216694       1.57656818       5.17962795       0.00127700      -0.00180426      -0.00220615
Se       2.99045996       3.72858755       7.81530297      -0.00127366       0.00179940       0.00221157
Se       2.99045959       3.72858795       5.17962701      -0.00127292       0.00180250      -0.00220960
Se       4.51216565       1.57656964       7.81530329       0.00127020      -0.00180018       0.00221062
