9
Lattice="4.433776165213476 -1.8106606093790818e-08 2.5598416993395268 1.47792535938007 4.180204333812159 2.5598417200433152 -3.510448238946675e-08 5.342506808618322e-10 5.119683459481799" Properties=species:S:1:pos:R:3:forces:R:3 energy=-71.16730499267578 free_energy=-71.16730499267578 stress="1.6175150449271314e-05 -7.60510019404137e-08 4.626445004873858e-08 -7.60510019404137e-08 1.58762231876608e-05 8.475618429315546e-09 4.626445004873858e-08 8.475618429315546e-09 1.5823105059098452e-05" pbc="T T T"
Ti       1.47792441       1.04505188       2.55984170      -0.00000963       0.00001140      -0.00000404
Ti       4.43377485       3.13515383       7.67952503      -0.00001504       0.00000939      -0.00000111
Ta       0.00000017       0.00000006      -0.00000010      -0.00000390      -0.00000335       0.00000140
O        1.56096594       1.10376876       5.11968357       0.00206393       0.00145161       0.00000039
O        4.35073610       3.07643514       5.11968347      -0.00205195      -0.00145948       0.00000052
O        3.65329380       1.10376933       3.91167750      -0.00102450       0.00145406       0.00177947
O        2.25840854       3.07643459       6.32768982       0.00103439      -0.00145933      -0.00177512
O        2.25840808       3.07643473       3.91167730       0.00102830      -0.00145960       0.00178376
O        3.65329395       1.10376897       6.32768912      -0.00102207       0.00145549      -0.00178537
