9
Lattice="4.454826309563132 7.098829938316549e-09 2.571995047565196 1.4849421000540022 4.2000506041260275 2.5719950645853067 4.2709105497204455e-09 2.3865254445861978e-08 5.143990087732982" Properties=species:S:1:pos:R:3:forces:R:3 energy=-58.78802490234375 free_energy=-58.78802490234375 stress="1.9131291992380284e-05 -2.2311697378540885e-08 6.216717451934528e-08 -2.2311697378540885e-08 1.9196406356059015e-05 -5.1579000626134075e-08 6.216717451934528e-08 -5.1579000626134075e-08 1.9150802472722717e-05" pbc="T T T"
Ti       1.48494174       1.05001238       2.57199527      -0.00000021       0.00000041       0.00000134
Ti       4.45482641       3.15003689       7.71598490      -0.00000019      -0.00000867      -0.00000044
Te       0.00000015       0.00000009       0.00000015      -0.00000695       0.00001073      -0.00001155
O        1.52803451       1.08048411       5.14398992       0.00056057       0.00039595      -0.00000062
O        4.41173351       3.11956746       5.14399010      -0.00056681      -0.00039661       0.00000159
O        3.69080932       1.08048403       3.89531177      -0.00027935       0.00039972       0.00048727
O        2.24895936       3.11956685       6.39266855       0.00028384      -0.00039719      -0.00049016
O        2.24895932       3.11956686       3.89531169       0.00028332      -0.00039858       0.00049217
O        3.69080930       1.08048399       6.39266833      -0.00027380       0.00039428      -0.00047940
