9
Lattice="5.434067867767517 -6.180364193238937e-08 3.1373606580609286 1.8113559742062595 5.123287971279495 3.137360525467655 1.5773731326303708e-07 -5.085583162367081e-08 6.274721042912889" Properties=species:S:1:pos:R:3:forces:R:3 energy=-45.63459014892578 free_energy=-45.63459014892578 stress="3.181251304340549e-05 -3.9275345642408865e-08 -2.59931471902064e-08 -3.9275345642408865e-08 3.1897889130050316e-05 -9.340434203863879e-09 -2.59931471902064e-08 -9.340434203863879e-09 3.1867744837654755e-05" pbc="T T T"
Ti       1.81135308       1.28082196       3.13736105      -0.00001261      -0.00000104       0.00000232
Ti       5.43406758       3.84246372       9.41208022      -0.00000157      -0.00000987      -0.00000852
V        0.00000026      -0.00000020       0.00000102       0.00000259       0.00000048      -0.00000610
Se       1.97408944       1.39589186       6.27472097      -0.00422966      -0.00298816       0.00000134
Se       5.27133528       3.72739602       6.27472119       0.00423360       0.00299180      -0.00000129
Se       4.44702443       1.39589196       4.84697266       0.00211877      -0.00299042      -0.00366050
Se       2.79840183       3.72739717       7.70246944      -0.00211492       0.00299862       0.00366610
Se       2.79840042       3.72739594       4.84697205      -0.00211486       0.00298828      -0.00366378
Se       4.44702366       1.39589293       7.70247014       0.00211880      -0.00298980       0.00367087
