9
Lattice="4.731074133343169 -2.990607798124604e-07 2.7314868941104535 1.5770245730098902 4.4604979479081965 2.7314866449502184 -1.1613928425202012e-07 -3.8728057492151147e-07 5.462973989379981" Properties=species:S:1:pos:R:3:forces:R:3 energy=-54.437889099121094 free_energy=-54.437889099121094 stress="4.752369022753555e-06 1.7575413835402287e-07 -7.238966759359755e-08 1.7575413835402287e-07 4.991196874470916e-06 8.050187716435175e-08 -7.238966759359755e-08 8.050187716435175e-08 4.730146429210436e-06" pbc="T T T"
Ti       1.57702626       1.11512135       2.73148505       0.00001225      -0.00002147      -0.00000981
Ti       4.73107253       3.34537480       8.19446010      -0.00001015       0.00001567      -0.00000550
V       -0.00000005       0.00000028       0.00000015      -0.00000226      -0.00000188       0.00000430
F        1.57385217       1.11287970       5.46297282      -0.00015149      -0.00011531       0.00000083
F        4.73424634       3.34761756       5.46297353       0.00015205       0.00011885       0.00000456
F        3.94414815       1.11287987       4.09448209       0.00007206      -0.00010881      -0.00013188
F        2.36395105       3.34761661       6.83146701      -0.00006849       0.00010478       0.00013411
F        2.36395019       3.34761996       4.09448284      -0.00006755       0.00011459      -0.00012100
F        3.94414738       1.11287827       6.83146667       0.00006381      -0.00010666       0.00012463
