9
Lattice="5.117188125842957 3.666662658417453e-08 2.9544104759514584 1.7057294185430034 4.8245315818709305 2.954410460895828 -7.0776055364811785e-09 -2.3443928987145794e-08 5.908820964161605" Properties=species:S:1:pos:R:3:forces:R:3 energy=-49.79836654663086 free_energy=-49.79836654663086 stress="8.748234540689737e-05 -9.716071502907653e-08 2.6192456203943948e-08 -9.716071502907653e-08 8.759006595937535e-05 4.245204721087248e-08 2.6192456203943948e-08 4.245204721087248e-08 8.745581726543605e-05" pbc="T T T"
Ti       1.70572710       1.20613436       2.95440956      -0.00000637       0.00000648      -0.00000444
Ti       5.11718641       3.61839669       8.86323305      -0.00000397      -0.00000851       0.00000425
V       -0.00000081       0.00000023       0.00000013       0.00001513      -0.00000247      -0.00000115
S        1.84174358       1.30230934       5.90882017       0.00005883       0.00003934      -0.00000639
S        4.98117556       3.52222292       5.90882017      -0.00006902      -0.00005084      -0.00000241
S        4.19631804       1.30230871       4.54940734      -0.00002807       0.00004339       0.00006270
S        2.62660090       3.52222150       7.26823483       0.00002795      -0.00004053      -0.00004286
S        2.62660243       3.52222279       4.54940694       0.00003371      -0.00003690       0.00004488
S        4.19631714       1.30230977       7.26823560      -0.00002825       0.00004959      -0.00005430
