9
Lattice="4.216150555460956 -8.880883004505768e-08 2.434195551028145 1.4053835354669764 3.975024216326789 2.4341953765937347 1.4209427497287916e-07 -1.131618078979612e-07 4.868390855941736" Properties=species:S:1:pos:R:3:forces:R:3 energy=-65.36901092529297 free_energy=-65.36901092529297 stress="8.485416765324771e-05 -3.340507248594804e-07 9.760244168433019e-09 -3.340507248594804e-07 8.514915680279955e-05 -1.874179531569098e-07 9.760244168433019e-09 -1.874179531569098e-07 8.532836363883689e-05" pbc="T T T"
Ti       1.40538527       0.99375447       2.43419489       0.00001747      -0.00000909      -0.00000632
Ti       4.21615198       2.98127033       7.30258558       0.00001919       0.00001931      -0.00001126
V       -0.00000048      -0.00000015       0.00000028       0.00000700      -0.00000126      -0.00000748
O        1.47086413       1.04005614       4.86839111       0.00438482       0.00307843       0.00000621
O        4.15067031       2.93496760       4.86839088      -0.00440672      -0.00309497      -0.00000263
O        3.48071884       1.04005771       3.70800012      -0.00219357       0.00310880       0.00379357
O        2.14081492       2.93496616       6.02878139       0.00217953      -0.00309825      -0.00377655
O        2.14081342       2.93496629       3.70800198       0.00217316      -0.00308788       0.00379175
O        3.48071885       1.04005737       6.02878108      -0.00218086       0.00308478      -0.00378692
