9
Lattice="5.895310002494115 -4.203876518627341e-08 3.403658845206168 1.9651033095312636 5.558151547340775 3.4036588192235055 -1.982301421387856e-08 -4.583913487027699e-08 6.807317724746815" Properties=species:S:1:pos:R:3:forces:R:3 energy=-37.98929214477539 free_energy=-37.98929214477539 stress="0.00013871339615434408 -2.7913920064293052e-08 1.6789805101780075e-08 -2.7913920064293052e-08 0.00013876671437174082 -1.49932084525517e-08 1.6789805101780075e-08 -1.49932084525517e-08 0.00013871359988115728" pbc="T T T"
Ti       1.96510338       1.38953783       3.40365880      -0.00000029       0.00000016       0.00000101
Ti       5.89531008       4.16861367      10.21097678      -0.00000024       0.00000024       0.00000099
V       -0.00000008       0.00000004       0.00000015      -0.00000057      -0.00000224       0.00000183
Br       2.00125308       1.41509982       6.80731771      -0.00006201      -0.00004129       0.00000100
Br       5.85916007       4.14305161       6.80731746       0.00006255       0.00004392      -0.00000111
Br       4.89468328       1.41509965       5.13679489       0.00003134      -0.00004589      -0.00005331
Br       2.96572998       4.14305193       8.47784044      -0.00002805       0.00004378       0.00005181
Br       2.96573001       4.14305168       5.13679498      -0.00003317       0.00004530      -0.00005604
Br       4.89468338       1.41509962       8.47784038       0.00003046      -0.00004397       0.00005380
