9
Lattice="6.040740701687373 -8.330716483359263e-09 3.487623263830062 2.0135802469285142 5.695264868041385 3.4876232276527643 4.592566466775667e-08 -1.1833659988573007e-08 6.975246448114599" Properties=species:S:1:pos:R:3:forces:R:3 energy=-42.42147445678711 free_energy=-42.42147445678711 stress="-0.0001262317382497713 3.3258210407893785e-08 -1.3141568722119246e-08 3.3258210407893785e-08 -0.0001262919686269015 3.6417240334429835e-09 -1.3141568722119246e-08 3.6417240334429835e-09 -0.00012631116260308772" pbc="T T T"
Ti       2.01357977       1.42381565       3.48762349      -0.00000157      -0.00000175       0.00000133
Ti       6.04074141       4.27144854      10.46286889       0.00000448      -0.00000022      -0.00000399
V        0.00000024      -0.00000029      -0.00000018      -0.00000292       0.00000026       0.00000106
Te       2.11109762       1.49277157       6.97524660      -0.00361466      -0.00255458       0.00000098
Te       5.94322320       4.20249355       6.97524692       0.00361602       0.00255884       0.00000176
Te       4.98519202       1.49277134       5.31588749       0.00180633      -0.00255681      -0.00312965
Te       3.06912896       4.20249410       8.63460566      -0.00180626       0.00255389       0.00312622
Te       3.06912866       4.20249347       5.31588729      -0.00180765       0.00255398      -0.00312671
Te       4.98519211       1.49277146       8.63460561       0.00180620      -0.00255364       0.00312890
