9
Lattice="5.6155959289606825 -2.6468216210971223e-08 3.2421657605898564 1.8718652813860892 5.29443456823165 3.2421657663281467 -1.292041190473114e-08 -2.1081764318994628e-09 6.48433154355851" Properties=species:S:1:pos:R:3:forces:R:3 energy=-41.677772521972656 free_energy=-41.677772521972656 stress="0.000259776454186067 -4.50310855271141e-09 1.3890442573938344e-08 -4.50310855271141e-09 0.0002598339633550495 1.3881303884133445e-09 1.3890442573938344e-08 1.3881303884133445e-09 0.0002598316641524434" pbc="T T T"
Ti       1.87186533       1.32360921       3.24216567      -0.00000087       0.00000368      -0.00000061
Ti       5.61559622       3.97082561       9.72649605       0.00000378      -0.00000109      -0.00000906
V       -0.00000004       0.00000007      -0.00000001       0.00000030      -0.00000068      -0.00000283
Cl       1.89539684       1.34024805       6.48433165       0.00007745       0.00005541      -0.00000000
Cl       5.59206429       3.95418637       6.48433200      -0.00007828      -0.00005632       0.00000325
Cl       4.66789755       1.34024786       4.88362777      -0.00003954       0.00005443       0.00006924
Cl       2.81956375       3.95418641       8.08503564       0.00003798      -0.00005339      -0.00006372
Cl       2.81956348       3.95418648       4.88362790       0.00003680      -0.00005567       0.00006724
Cl       4.66789735       1.34024805       8.08503559      -0.00003761       0.00005359      -0.00006353
