9
Lattice="5.753286490693981 -9.022212064691859e-08 3.321661372902608 1.9177620598707479 5.424250374902473 3.3216614051736095 -2.329645627637667e-08 2.3050660062350046e-08 6.643322786155775" Properties=species:S:1:pos:R:3:forces:R:3 energy=-48.317195892333984 free_energy=-48.317195892333984 stress="1.99913283722708e-05 -1.5314066459382047e-08 -5.131233749011699e-08 -1.5314066459382047e-08 2.000752829189878e-05 8.902443227043477e-08 -5.131233749011699e-08 8.902443227043477e-08 2.0048595615662634e-05" pbc="T T T"
Ti       1.91776192       1.35606263       3.32166176      -0.00000079       0.00000213       0.00000134
Ti       5.75328648       4.06818757       9.96498260       0.00000072      -0.00000017      -0.00000929
W        0.00000058       0.00000018      -0.00000034      -0.00001040      -0.00000066       0.00000145
Se       1.98055473       1.40046358       6.64332270      -0.00197162      -0.00139375      -0.00000025
Se       5.69049382       4.02378639       6.64332385       0.00198095       0.00140004       0.00000569
Se       4.76300878       1.40046379       5.03687232       0.00099134      -0.00140525      -0.00171815
Se       2.90803966       4.02378676       8.24977362      -0.00099061       0.00139807       0.00171477
Se       2.90803904       4.02378690       5.03687187      -0.00098718       0.00139600      -0.00170714
Se       4.76300913       1.40046341       8.24977393       0.00098751      -0.00139637       0.00171156
