9
Lattice="6.154428804240841 -8.480498382081171e-08 3.553261172566714 2.051476208784884 5.802451166577167 3.553261136783372 2.5190071805195917e-08 -2.6013385389700973e-08 7.106522301502941" Properties=species:S:1:pos:R:3:forces:R:3 energy=-44.600975036621094 free_energy=-44.600975036621094 stress="-2.1741810996900313e-05 -3.868269615736608e-08 1.4006782400599604e-08 -3.868269615736608e-08 -2.1702702724724077e-05 -2.7171198624387216e-08 1.4006782400599604e-08 -2.7171198624387216e-08 -2.167894854210317e-05" pbc="T T T"
Ti       2.05147584       1.45061235       3.55326138      -0.00000160      -0.00000320       0.00000068
Ti       6.15442910       4.35183802      10.65978352       0.00000168      -0.00000101      -0.00000017
W       -0.00000019      -0.00000060      -0.00000001       0.00000199       0.00000285      -0.00000033
Te       2.15649996       1.52487598       7.10652218      -0.00019263      -0.00013400      -0.00000086
Te       6.04940530       4.27757571       7.10652243       0.00018781       0.00013258       0.00000070
Te       5.07617876       1.52487593       5.42084501       0.00009611      -0.00013427      -0.00016647
Te       3.12972629       4.27757549       8.79219924      -0.00009564       0.00013629       0.00016499
Te       3.12972643       4.27757528       5.42084535      -0.00009595       0.00013797      -0.00016688
Te       5.07617865       1.52487608       8.79219935       0.00009817      -0.00013718       0.00016833
