9
Lattice="4.483707737037325 -1.0730067076198516e-07 2.5886697029286414 1.494569176139058 4.227279715909151 2.588669648154328 3.413499902677525e-08 -4.294751684504977e-08 5.1773393467337385" Properties=species:S:1:pos:R:3:forces:R:3 energy=-64.76062774658203 free_energy=-64.76062774658203 stress="0.00012855796376243234 9.006458867588663e-08 -5.332730257379126e-09 9.006458867588663e-08 0.00012873591913376004 1.9611475110536958e-08 -5.332730257379126e-09 1.9611475110536958e-08 0.00012857539695687592" pbc="T T T"
Ti       1.49456976       1.05681975       2.58867003       0.00000591       0.00000173       0.00000640
Ti       4.48370715       3.17046270       7.76600989      -0.00000622       0.00003199       0.00000669
W       -0.00000001      -0.00000008      -0.00000006      -0.00000726      -0.00000385      -0.00000300
O        1.54871027       1.09510233       5.17733926      -0.00090486      -0.00065202      -0.00000363
O        4.42956684       3.13217617       5.17733942       0.00091994       0.00064641      -0.00000069
O        3.70935234       1.09510248       3.92989179       0.00045055      -0.00065285      -0.00078988
O        2.26892409       3.13217634       6.42478659      -0.00045988       0.00064254       0.00079209
O        2.26892469       3.13217630       3.92989132      -0.00044963       0.00064111      -0.00079525
O        3.70935261       1.09510221       6.42478652       0.00045139      -0.00065511       0.00078738
