9
Lattice="6.476086261838829 -5.038902846380079e-10 3.7389701323672577 2.158695434151151 6.105712623099182 3.7389701080955438 1.2884125239440355e-08 -2.0616186700061287e-08 7.4779402424185255" Properties=species:S:1:pos:R:3:forces:R:3 energy=-24.76001739501953 free_energy=-24.76001739501953 stress="6.891322846058756e-05 5.707663675025287e-09 2.0395334310308044e-09 5.707663675025287e-09 6.890261283842847e-05 2.013281097390518e-09 2.0395334310308044e-09 2.013281097390518e-09 6.892126839375123e-05" pbc="T T T"
Ti       2.15869545       1.52642852       3.73897014      -0.00000079       0.00000168      -0.00000181
Ti       6.47608626       4.57928407      11.21691088       0.00000044      -0.00000039       0.00000439
Zn       0.00000008       0.00000001      -0.00000016      -0.00000004       0.00000009      -0.00000024
I        2.20989633       1.56263289       7.47794045       0.00063457       0.00044908       0.00000071
I        6.42488533       4.54307975       7.47793996      -0.00063516      -0.00044986      -0.00000180
I        5.37113802       1.56263277       5.65279655      -0.00031707       0.00045003       0.00054947
I        3.26364362       4.54307991       9.30308372       0.00031754      -0.00045022      -0.00054942
I        3.26364368       4.54307978       5.65279659       0.00031870      -0.00044947       0.00054865
I        5.37113807       1.56263270       9.30308381      -0.00031824       0.00044912      -0.00055010
