9
Lattice="5.594518949453075 -4.029859599186866e-09 3.22999699710363 1.8648396515615793 5.274562878651266 3.2299969875024037 5.623336774731354e-08 2.8003935959386004e-08 6.4599938968082204" Properties=species:S:1:pos:R:3:forces:R:3 energy=-32.502471923828125 free_energy=-32.502471923828125 stress="0.00027911519282497466 -2.21102225417269e-09 1.6339246400320917e-08 -2.21102225417269e-09 0.00027912462246604264 9.783700960497299e-09 1.6339246400320917e-08 9.783700960497299e-09 0.000279127067187801" pbc="T T T"
Ti       1.86483939       1.31864122       3.22999676      -0.00000197       0.00000277       0.00000026
Ti       5.59451882       3.95592199       9.68999167      -0.00000100      -0.00000361       0.00000635
Zn       0.00000006      -0.00000021      -0.00000016       0.00000037       0.00000179      -0.00000120
Cl       1.90693169       1.34840446       6.45999386       0.00134672       0.00095353      -0.00000029
Cl       5.55242712       3.92615804       6.45999371      -0.00134483      -0.00095500      -0.00000284
Cl       4.64105312       1.34840436       4.88144830      -0.00067337       0.00095455       0.00116561
Cl       2.81830548       3.92615861       8.03853937       0.00067156      -0.00095205      -0.00116585
Cl       2.81830583       3.92615881       4.88144825       0.00067785      -0.00095499       0.00116523
Cl       4.64105315       1.34840433       8.03853974      -0.00067541       0.00095300      -0.00116712
