9
Lattice="5.439479691836364 8.189387622608182e-08 3.1404851182781908 1.8131599748379543 5.128390759809587 3.140485117673908 -8.721842880125075e-09 -6.907366822575848e-09 6.280970251663083" Properties=species:S:1:pos:R:3:forces:R:3 energy=-49.55574417114258 free_energy=-49.55574417114258 stress="-1.9085578969679773e-05 5.071549291635336e-10 -2.5825727334449766e-08 5.071549291635336e-10 -1.903912198031321e-05 3.1102082687084476e-08 -2.5825727334449766e-08 3.1102082687084476e-08 -1.9103586964774877e-05" pbc="T T T"
Ti       1.81316069       1.28209790       3.14048470       0.00000445       0.00000094      -0.00000097
Ti       5.43947947       3.84629285       9.42145588      -0.00000174      -0.00000214       0.00000429
Zr      -0.00000004      -0.00000007      -0.00000016       0.00000110       0.00000290       0.00000192
S        1.97154509       1.39409301       6.28097013      -0.00741386      -0.00524306       0.00000077
S        5.28109438       3.73429795       6.28096998       0.00741130       0.00524175      -0.00000167
S        4.45370718       1.39409315       4.84789305       0.00370824      -0.00524050      -0.00642329
S        2.79893222       3.73429764       7.71404766      -0.00370741       0.00523978       0.00641876
S        2.79893243       3.73429802       4.84789319      -0.00370520       0.00524119      -0.00641879
S        4.45370719       1.39409289       7.71404748       0.00370339      -0.00524059       0.00641903
