9
Lattice="5.711530879619692 -1.8414991443807032e-09 3.2975538780849907 1.903843641452562 5.384882855788427 3.2975538492483523 3.964983250038107e-08 -7.280873326091327e-09 6.595107687494437" Properties=species:S:1:pos:R:3:forces:R:3 energy=-45.18647003173828 free_energy=-45.18647003173828 stress="-7.017258030828089e-05 5.10554531985008e-09 2.2613061645415655e-08 5.10554531985008e-09 -7.021968485787511e-05 -2.229841022938217e-08 2.2613061645415655e-08 -2.229841022938217e-08 -7.020855991868302e-05" pbc="T T T"
Ti       1.90384381       1.34622097       3.29755392       0.00000048       0.00000174       0.00000029
Ti       5.71153064       4.03866166       9.89266089      -0.00000093      -0.00000443      -0.00000343
Zr      -0.00000021      -0.00000008       0.00000008      -0.00000024      -0.00000146       0.00000508
Se       2.06187095       1.45796302       6.59510751      -0.00118417      -0.00083546       0.00000121
Se       5.55350357       3.92691976       6.59510790       0.00118458       0.00083740       0.00000195
Se       4.68059547       1.45796307       5.08318664       0.00059313      -0.00083739      -0.00102529
Se       2.93477936       3.92692008       8.10702909      -0.00059004       0.00083569       0.00102311
Se       2.93477934       3.92691976       5.08318644      -0.00059291       0.00083889      -0.00102729
Se       4.68059534       1.45796317       8.10702918       0.00058990      -0.00083499       0.00102429
