9
Lattice="5.891159552710303 2.5046006673098358e-08 3.401262787900435 1.9637198969234793 5.5542385709717985 3.4012627490913276 3.6656348063638915e-08 -2.161128219011978e-08 6.802525512310207" Properties=species:S:1:pos:R:3:forces:R:3 energy=-29.170860290527344 free_energy=-29.170860290527344 stress="0.00029656136757694185 -2.2694218060337334e-08 1.4132105263797712e-08 -2.2694218060337334e-08 0.0002965137828141451 -2.2447113057211254e-09 1.4132105263797712e-08 -2.2447113057211254e-09 0.00029655787511728704" pbc="T T T"
Ti       1.96371994       1.38855886       3.40126321      -0.00000156      -0.00000120       0.00000180
Ti       5.89115961       4.16567865      10.20378786       0.00000034      -0.00000379      -0.00000023
Zn      -0.00000009       0.00000000      -0.00000005       0.00000036      -0.00000039      -0.00000109
Br       2.01469264       1.42460323       6.80252551      -0.00087968      -0.00062147      -0.00000154
Br       5.84018659       4.12963563       6.80252568       0.00087900       0.00062323       0.00000173
Br       4.88381320       1.42460315       5.14603804       0.00043966      -0.00062159      -0.00076269
Br       2.97106627       4.12963588       8.45901296      -0.00043872       0.00062313       0.00076272
Br       2.97106655       4.12963581       5.14603796      -0.00043987       0.00062339      -0.00076303
Br       4.88381319       1.42460308       8.45901302       0.00044060      -0.00062130       0.00076205
