9
Lattice="6.26885387288162 -7.636721656888906e-08 3.6193245563435172 2.0896178980157116 5.910332168015992 3.619324534886515 2.5239821219620372e-08 -8.432101303697012e-09 7.238649068970379" Properties=species:S:1:pos:R:3:forces:R:3 energy=-42.11466979980469 free_energy=-42.11466979980469 stress="-1.9481009076116607e-05 -7.510918997866156e-09 9.257357103109598e-10 -7.510918997866156e-09 -1.9485491066006944e-05 -7.144196789710122e-09 9.257357103109598e-10 -7.144196789710122e-09 -1.946877637237776e-05" pbc="T T T"
Ti       2.08961760       1.47758312       3.61932448      -0.00000285       0.00000112       0.00000006
Ti       6.26885395       4.43274906      10.85797375       0.00000134      -0.00000008       0.00000235
Zr      -0.00000006      -0.00000024      -0.00000026       0.00000068       0.00000291       0.00000762
Te       2.23940125       1.58349583       7.23864911      -0.00055044      -0.00038917       0.00000080
Te       6.11907094       4.32683629       7.23864888       0.00054725       0.00038660       0.00000051
Te       5.14915314       1.58349597       5.55870314       0.00027823      -0.00039143      -0.00047863
Te       3.20931841       4.32683636       8.91859536      -0.00027211       0.00038480       0.00047034
Te       3.20931864       4.32683625       5.55870297      -0.00027566       0.00039173      -0.00047690
Te       5.14915333       1.58349568       8.91859519       0.00027367      -0.00038626       0.00047389
