9
Lattice="4.571232538842689 -4.552973732612407e-08 2.6392021711626623 1.5237441409782653 4.309799119747193 2.63920216373247 -6.160835511646184e-08 -5.266379816918782e-08 5.278404449034196" Properties=species:S:1:pos:R:3:forces:R:3 energy=-46.39503479003906 free_energy=-46.39503479003906 stress="1.2265915756870527e-05 1.9183856725391024e-09 6.0849623118031104e-09 1.9183856725391024e-09 1.2347613846941385e-05 5.173916406420176e-08 6.0849623118031104e-09 5.173916406420176e-08 1.2234735550009646e-05" pbc="T T T"
Ti       1.52374446       1.07744932       2.63920218       0.00000235      -0.00000179       0.00000116
Ti       4.57123275       3.23234955       7.91760645       0.00000277       0.00000263       0.00000208
Zn       0.00000018       0.00000003       0.00000050       0.00000393      -0.00000294      -0.00000024
F        1.56743346       1.10834259       5.27840361       0.00007601       0.00005257      -0.00000142
F        4.52754300       3.20145680       5.27840467      -0.00007969      -0.00005152       0.00000408
F        3.78751578       1.10834280       3.99663911      -0.00003714       0.00005569       0.00006735
F        2.30746019       3.20145642       6.56016990       0.00003594      -0.00005754      -0.00006846
F        2.30746091       3.20145642       3.99663913       0.00003864      -0.00005271       0.00006797
F        3.78751577       1.10834173       6.56016972      -0.00004274       0.00005578      -0.00007308
