9
Lattice="6.539140647431815 -8.427122817257025e-07 3.7753777843172136 2.1797130266926423 6.165163351982922 3.775377313085865 1.628107545809821e-06 5.741077438117747e-07 7.550752748669008" Properties=species:S:1:pos:R:3:forces:R:3 energy=-25.410106658935547 free_energy=-25.410106658935547 stress="-4.611641998053528e-06 -1.1882222139547594e-07 3.9796152151438946e-08 -1.1882222139547594e-07 -4.732692559628049e-06 3.438274376321715e-08 3.9796152151438946e-08 3.438274376321715e-08 -4.713308044301812e-06" pbc="T T T"
Tl       2.17971344       1.54128988       3.77537760      -0.00000262      -0.00000150       0.00000083
Tl       6.53914046       4.62387186      11.32613078      -0.00000365      -0.00000105       0.00000098
C       -0.00001495      -0.00000558       0.00000499      -0.00002223      -0.00000211       0.00001845
Cl       1.76427180       1.24752674       7.55075394       0.00125454       0.00089685      -0.00000569
Cl       6.95459040       4.91764044       7.55075353      -0.00119076      -0.00084898       0.00000116
Cl       5.65700974       1.24752419       5.30327605      -0.00061621       0.00084794       0.00105173
Cl       3.06185380       4.91763855       9.79822721       0.00059488      -0.00087217      -0.00106559
Cl       3.06184927       4.91763907       5.30327709       0.00059460      -0.00087292       0.00105814
Cl       5.65700709       1.24752731       9.79823017      -0.00060848       0.00085391      -0.00106009
