9
Lattice="6.843319716966524 -1.6504761534438805e-07 3.9509926117797725 2.281106522000914 6.451944181546616 3.9509924294171377 4.3551689045494525e-08 -1.9255206970408574e-07 7.901985148125675" Properties=species:S:1:pos:R:3:forces:R:3 energy=-27.874311447143555 free_energy=-27.874311447143555 stress="-5.696843072655611e-05 -5.102288591629645e-10 8.329015810382145e-10 -5.102288591629645e-10 -5.695781146641821e-05 -3.110284252372253e-09 8.329015810382145e-10 -3.110284252372253e-09 -5.697516098734923e-05" pbc="T T T"
Tl       2.28110697       1.61298528       3.95099265       0.00000019      -0.00000057      -0.00000011
Tl       6.84331946       4.83895835      11.85297747      -0.00000054       0.00000038      -0.00000021
Cr       0.00000036      -0.00000086      -0.00000432      -0.00000362       0.00000733       0.00004105
I        2.19201136       1.54998557       7.90198471       0.00157463       0.00111375      -0.00000012
I        6.93241478       4.90195773       7.90198496      -0.00157489      -0.00111255      -0.00000014
I        5.74731328       1.54998713       5.84933144      -0.00078056       0.00110346       0.00135138
I        3.37711138       4.90195883       9.95464184       0.00079377      -0.00112311      -0.00137687
I        3.37711274       4.90195738       5.84933093       0.00078235      -0.00110696       0.00135579
I        5.74731479       1.54998578       9.95464103      -0.00079129       0.00111819      -0.00137084
