9
Lattice="6.103459635159728 -3.4630034137191436e-08 3.523834294318031 2.0344865801277834 5.754397295454808 3.523834177016569 2.1788277735387986e-07 1.0401921987482408e-08 7.047668211252127" Properties=species:S:1:pos:R:3:forces:R:3 energy=-28.97286033630371 free_energy=-28.97286033630371 stress="0.00010862596536753699 -1.5955547993939945e-08 2.0104915066099238e-08 -1.5955547993939945e-08 0.00010863314673770219 7.323310402540528e-09 2.0104915066099238e-08 7.323310402540528e-09 0.0001086042684619315" pbc="T T T"
Tl       2.03448636       1.43859947       3.52383438      -0.00000017       0.00000012       0.00000022
Tl       6.10345981       4.31579791      10.57150262       0.00000013       0.00000016       0.00000007
Co      -0.00000034       0.00000026       0.00000134       0.00000077      -0.00000158      -0.00000882
Cl       1.84955292       1.30783185       7.04766882      -0.00283813      -0.00200772      -0.00000196
Cl       6.28839357       4.44656529       7.04766832       0.00283861       0.00200935       0.00000098
Cl       5.17868364       1.30783225       5.12559416       0.00141694      -0.00200805      -0.00245640
Cl       2.95926361       4.44656452       8.96974168      -0.00142087       0.00201239       0.00246164
Cl       2.95926362       4.44656551       5.12559414      -0.00141968       0.00200699      -0.00245726
Cl       5.17868241       1.30783238       8.96974150       0.00142235      -0.00201163       0.00246179
