9
Lattice="5.099812549122364 1.2579792261321479e-08 2.9443781329429712 1.6999374963926281 4.808149366287571 2.9443781880947033 2.417975201000958e-08 8.464442180870102e-08 5.888756224005393" Properties=species:S:1:pos:R:3:forces:R:3 energy=-37.01860809326172 free_energy=-37.01860809326172 stress="3.204866879968904e-05 4.4614164806944245e-08 1.3133542609011783e-07 4.4614164806944245e-08 3.228284913348034e-05 1.2032721485866205e-07 1.3133542609011783e-07 1.2032721485866205e-07 3.1908635719446465e-05" pbc="T T T"
Tl       1.69993775       1.20203723       2.94437776       0.00000019       0.00000010       0.00000112
Tl       5.09981242       3.60611156       8.83313464       0.00000068       0.00000137      -0.00000054
C        0.00000110      -0.00000000      -0.00000003      -0.00000285       0.00000606      -0.00000174
F        1.30986189       0.92621245       5.88875628      -0.00096107      -0.00068796      -0.00000381
F        5.48988724       3.88193632       5.88875545       0.00096607       0.00068343       0.00001144
F        4.44488176       0.92621257       4.07875148       0.00047460      -0.00068629      -0.00082266
F        2.35486815       3.88193715       7.69876141      -0.00047511       0.00068486       0.00082856
F        2.35486845       3.88193777       4.07875148      -0.00048450       0.00067830      -0.00083023
F        4.44488136       0.92621282       7.69876196       0.00048187      -0.00068063       0.00081891
