9
Lattice="6.6177153980851005 -8.495550586023098e-07 3.820739770138946 2.205904662781859 6.239237179399887 3.8207391967341278 3.143921071769593e-07 -4.79965520118936e-07 7.641478995733901" Properties=species:S:1:pos:R:3:forces:R:3 energy=-23.100662231445312 free_energy=-23.100662231445312 stress="-6.347346061374992e-05 -9.789967059248283e-09 1.9529315054001017e-08 -9.789967059248283e-09 -6.336931983241811e-05 -2.0063023242755662e-08 1.9529315054001017e-08 -2.0063023242755662e-08 -6.334287900244817e-05" pbc="T T T"
Tl       2.20590475       1.55980883       3.82073964      -0.00000023       0.00000059      -0.00000020
Tl       6.61771528       4.67942703      11.46221764       0.00000040      -0.00000064      -0.00000011
C       -0.00000134      -0.00000026       0.00000138       0.00000017      -0.00000015       0.00000103
Br       1.93268812       1.36661634       7.64148031       0.00571227       0.00403583      -0.00000463
Br       6.89093223       4.87261829       7.64148065      -0.00570944      -0.00403166      -0.00000418
Br       5.65137298       1.36661617       5.49449763      -0.00285867       0.00403634       0.00494018
Br       3.17224889       4.87261762       9.78845886       0.00285113      -0.00402936      -0.00493842
Br       3.17224843       4.87261961       5.49449662       0.00285524      -0.00403658       0.00493985
Br       5.65137187       1.36661874       9.78845890      -0.00285098       0.00402558      -0.00493354
