9
Lattice="6.357267212512526 1.0699649350923919e-07 3.6703699631579214 2.119089104076568 5.9936893653806536 3.6703700803107373 -2.807024433322841e-08 1.236335265508219e-07 7.340739974934969" Properties=species:S:1:pos:R:3:forces:R:3 energy=-31.45637321472168 free_energy=-31.45637321472168 stress="-3.6763096431968734e-05 -5.273914194248164e-09 -3.865976427874784e-09 -5.273914194248164e-09 -3.674022082122974e-05 1.5884971560353733e-08 -3.865976427874784e-09 1.5884971560353733e-08 -3.674071922432631e-05" pbc="T T T"
Tl       2.11908895       1.49842256       3.67036992      -0.00000008       0.00000026      -0.00000008
Tl       6.35726721       4.49526702      11.01111006       0.00000004      -0.00000017       0.00000018
Cr       0.00000042       0.00000046      -0.00000045      -0.00000854      -0.00000853       0.00000398
Br       2.02287206       1.43038665       7.34074004       0.00058771       0.00041538      -0.00000001
Br       6.45348410       4.56330249       7.34073970      -0.00057895      -0.00040880       0.00000049
Br       5.34583123       1.43038730       5.42222901      -0.00029046       0.00041007       0.00050279
Br       3.13052493       4.56330270       9.25925150       0.00029158      -0.00041152      -0.00050466
Br       3.13052522       4.56330251       5.42222875       0.00029077      -0.00041044       0.00050375
Br       5.34583121       1.43038675       9.25925154      -0.00029204       0.00041368      -0.00050646
