9
Lattice="6.669842734918235 6.194444701329194e-07 3.8508350121554877 2.2232812404479203 6.288388757946301 3.850835454191208 -2.4576440740360807e-07 3.675992024892363e-07 7.701670449987329" Properties=species:S:1:pos:R:3:forces:R:3 energy=-23.529075622558594 free_energy=-23.529075622558594 stress="9.072559805645142e-06 -1.6879901920674456e-09 2.4610526949686573e-09 -1.6879901920674456e-09 9.069914995052386e-06 1.438078767179718e-09 2.4610526949686573e-09 1.438078767179718e-09 9.051473170984536e-06" pbc="T T T"
Tl       2.22328089       1.57209766       3.85083495      -0.00000006       0.00000022      -0.00000008
Tl       6.66984272       4.71629173      11.55250608       0.00000001       0.00000002       0.00000002
Co       0.00000051       0.00000075      -0.00000115      -0.00000164      -0.00000274       0.00000326
I        2.18796712       1.54712605       7.70167034       0.00066915       0.00047445      -0.00000039
I        6.70515594       4.74126302       7.70167058      -0.00066574      -0.00047234       0.00000102
I        5.57585895       1.54712748       5.74566939      -0.00033352       0.00047186       0.00057933
I        3.31726448       4.74126289       9.65767187       0.00033392      -0.00047350      -0.00058015
I        3.31726654       4.74126252       5.74566874       0.00033201      -0.00047170       0.00057822
I        5.57585784       1.54712689       9.65767281      -0.00033408       0.00047368      -0.00058123
