9
Lattice="5.395836911918096 1.1809522186019352e-07 3.1152878085932105 1.7986121380688214 5.08724466963758 3.115288288795745 -8.506549892648331e-08 5.279751430945374e-07 6.230575764524516" Properties=species:S:1:pos:R:3:forces:R:3 energy=-43.29991912841797 free_energy=-43.29991912841797 stress="-0.0002970967616420239 -3.0635207703966216e-09 -9.172521409084311e-09 -3.0635207703966216e-09 -0.00029700578306801617 5.875686426293214e-08 -9.172521409084311e-09 5.875686426293214e-08 -0.00029707697103731334" pbc="T T T"
Tl       1.79861255       1.27181118       3.11528835      -0.00000024       0.00000014      -0.00000008
Tl       5.39583627       3.81543341       9.34586474      -0.00000076      -0.00000040      -0.00000084
Cr       0.00000004      -0.00000042      -0.00000199      -0.00000386       0.00001998       0.00005984
F        1.53820718       1.08767762       6.23057493       0.00524239       0.00370491      -0.00000041
F        5.65624226       3.99956758       6.23057567      -0.00524847      -0.00370835       0.00000049
F        4.62673078       1.08767951       4.44741700      -0.00260820       0.00368875       0.00451781
F        2.56771497       3.99956768       8.01373721       0.00263225      -0.00372015      -0.00455911
F        2.56771671       3.99956781       4.44741453       0.00261652      -0.00370041       0.00453448
F        4.62673457       1.08767663       8.01373739      -0.00262975       0.00371541      -0.00455214
