9
Lattice="6.3091445175942145 2.747409891517361e-08 3.6425866805238463 2.1030482450568466 5.948319343921833 3.6425865997711333 -1.3756752640875003e-08 -1.0862893903302804e-07 7.285173384875215" Properties=species:S:1:pos:R:3:forces:R:3 energy=-26.266313552856445 free_energy=-26.266313552856445 stress="0.0001869552506832406 8.951916541377614e-09 -4.83370810044903e-09 8.951916541377614e-09 0.00018696083861868829 1.550672479311288e-08 -4.83370810044903e-09 1.550672479311288e-08 0.00018695805920287967" pbc="T T T"
Tl       2.10304831       1.48708002       3.64258657       0.00000001       0.00000010       0.00000076
Tl       6.30914444       4.46123934      10.92776007      -0.00000011      -0.00000002       0.00000050
Co      -0.00000002       0.00000012       0.00000451      -0.00000112       0.00000043      -0.00001775
Br       2.03385627       1.43815374       7.28517352      -0.00086427      -0.00061059      -0.00000112
Br       6.37833602       4.51016504       7.28517283       0.00086603       0.00061230       0.00000009
Br       5.29221686       1.43815262       5.40395716       0.00042924      -0.00060759      -0.00074507
Br       3.11997679       4.51016516       9.16638748      -0.00043503       0.00061502       0.00075310
Br       3.11997627       4.51016674       5.40395711      -0.00042958       0.00060584      -0.00074430
Br       5.29221596       1.43815418       9.16638751       0.00043491      -0.00061554       0.00075375
