9
Lattice="5.087553473478953 -1.6135282966393756e-07 2.937300335039353 1.6958510698683287 4.796591634882522 2.9373002238990034 -5.97181206138247e-08 -1.7834568124181717e-07 5.874600773513596" Properties=species:S:1:pos:R:3:forces:R:3 energy=-37.38978958129883 free_energy=-37.38978958129883 stress="-0.00019941138452850282 -4.996923408384646e-08 2.7639172728299854e-08 -4.996923408384646e-08 -0.00019934058946091682 -2.263052145679012e-08 2.7639172728299854e-08 -2.263052145679012e-08 -0.00019945771782658994" pbc="T T T"
Tl       1.69585138       1.19914830       2.93730010       0.00000062       0.00000153      -0.00000017
Tl       5.08755362       3.59744314       8.81190091      -0.00000011      -0.00000121      -0.00000083
Co       0.00000006      -0.00000013       0.00000016       0.00000012       0.00000707      -0.00000723
F        1.52047464       1.07513876       5.87460080       0.00334775       0.00236598      -0.00000052
F        5.26293074       3.72145259       5.87460098      -0.00335556      -0.00237059      -0.00000182
F        4.32731600       1.07513800       4.25406928      -0.00167698       0.00237091       0.00290487
F        2.45608864       3.72145281       7.49513185       0.00167610      -0.00236574      -0.00290322
F        2.45608791       3.72145310       4.25406973       0.00167879      -0.00236870       0.00290541
F        4.32731504       1.07513892       7.49513122      -0.00167027       0.00236093      -0.00289630
