9
Lattice="6.459451786960146 1.0574848638002908e-06 3.7293667447530434 2.1531514961661125 6.090026813123855 3.729366911884271 -3.879959542950422e-07 -6.9661124924125e-08 7.45873416153454" Properties=species:S:1:pos:R:3:forces:R:3 energy=-28.89706802368164 free_energy=-28.89706802368164 stress="-3.17558842652943e-05 1.9884977575657103e-07 -1.2907590019040072e-07 1.9884977575657103e-07 -3.197618207195774e-05 9.29902554958062e-08 -1.2907590019040072e-07 9.29902554958062e-08 -3.1883268093224615e-05" pbc="T T T"
Tl       2.15315092       1.52250687       3.72936681       0.00000006       0.00000036       0.00000019
Tl       6.45945257       4.56752120      11.18810050      -0.00000006      -0.00000021       0.00000026
Fe      -0.00000007      -0.00000007      -0.00000148      -0.00001050      -0.00001547       0.00002790
Br       1.86534132       1.31899564       7.45873371       0.00320344       0.00226693      -0.00000008
Br       6.74725925       4.77103112       7.45873564      -0.00317825      -0.00225200      -0.00000687
Br       5.52678103       1.31899491       5.34480104      -0.00160205       0.00226840       0.00276744
Br       3.08582248       4.77103269       9.57266567       0.00159869      -0.00227287      -0.00277114
Br       3.08582186       4.77103380       5.34479989       0.00160723      -0.00227755       0.00277498
Br       5.52678187       1.31899485       9.57266843      -0.00161855       0.00228232      -0.00279266
