9
Lattice="6.1679698887392025 3.348393975635762e-07 3.5610782684634352 2.055990158036773 5.815218126541294 3.5610784772897985 -2.7016187712475194e-08 2.366556270960819e-07 7.122156583720481" Properties=species:S:1:pos:R:3:forces:R:3 energy=-31.12029266357422 free_energy=-31.12029266357422 stress="5.1240607717772946e-05 -1.4675744175463024e-08 5.895940091704688e-08 -1.4675744175463024e-08 5.121453432366252e-05 4.713700718639302e-08 5.895940091704688e-08 4.713700718639302e-08 5.112527287565172e-05" pbc="T T T"
Tl       2.05598982       1.45380455       3.56107834      -0.00000026       0.00000013       0.00000041
Tl       6.16797040       4.36141429      10.68323491       0.00000020       0.00000005      -0.00000028
Fe       0.00000004      -0.00000098      -0.00000153      -0.00000130       0.00000604       0.00001229
Cl       1.88720942       1.33445898       7.12215810      -0.00079876      -0.00056234      -0.00000411
Cl       6.33674998       4.48075943       7.12215506       0.00079930       0.00056267       0.00000460
Cl       5.22436476       1.33446002       5.19544916       0.00040025      -0.00057080      -0.00069162
Cl       2.99959530       4.48075899       9.04886529      -0.00039753       0.00056374       0.00068223
Cl       2.99959662       4.48075972       5.19544887      -0.00040495       0.00056416      -0.00068846
Cl       5.22436348       1.33445939       9.04886508       0.00040314      -0.00056371       0.00068480
