9
Lattice="5.268590787772424 2.400125894491765e-07 3.0418223110090867 1.7561970651374281 4.9672754723865875 3.041822467597103 -7.41216059572996e-08 1.3936849342544426e-07 6.083644750400441" Properties=species:S:1:pos:R:3:forces:R:3 energy=-39.993526458740234 free_energy=-39.993526458740234 stress="-5.189225248614093e-06 1.3456410208334546e-08 -7.073496455234363e-09 1.3456410208334546e-08 -5.16627733304631e-06 1.0530749605663914e-08 -7.073496455234363e-09 1.0530749605663914e-08 -5.194150617171545e-06" pbc="T T T"
Tl       1.75619721       1.24181907       3.04182254       0.00000065      -0.00000068      -0.00000131
Tl       5.26859085       3.72545675       9.12546671      -0.00000022       0.00000041      -0.00000021
Fe      -0.00000002       0.00000012      -0.00000045      -0.00000457      -0.00000062       0.00000104
F        1.57040302       1.11044304       6.08364563       0.00149608       0.00105944      -0.00000259
F        5.45438479       3.85683242       6.08364500      -0.00149494      -0.00105646      -0.00000114
F        4.48338961       1.11044234       4.40183077      -0.00075147       0.00106210       0.00129962
F        2.54139868       3.85683310       7.76545853       0.00074935      -0.00105745      -0.00129902
F        2.54139814       3.85683351       4.40183051       0.00075191      -0.00106332       0.00130022
F        4.48338866       1.11044313       7.76545861      -0.00074673       0.00105712      -0.00129607
