9
Lattice="6.264163654689022 -3.178430191859676e-07 3.6166163638341775 2.088054204363158 5.905909434590963 3.6166164461663803 -9.331809575394738e-08 3.4850070898104356e-08 7.233232889299988" Properties=species:S:1:pos:R:3:forces:R:3 energy=-28.834503173828125 free_energy=-28.834503173828125 stress="-7.156178617151454e-05 -1.0192928101560028e-07 -1.2245960689938329e-08 -1.0192928101560028e-07 -7.162949623307213e-05 1.3103659490809605e-08 -1.2245960689938329e-08 1.3103659490809605e-08 -7.152537727961317e-05" pbc="T T T"
Tl       2.08805436       1.47647724       3.61661641       0.00000041      -0.00000023      -0.00000009
Tl       6.26416315       4.42943169      10.84984928      -0.00000047       0.00000018       0.00000005
Ge       0.00000077      -0.00000049      -0.00000031      -0.00001136       0.00000873       0.00000335
Cl       1.89078574       1.33698621       7.23323274       0.00755081       0.00534433      -0.00000004
Cl       6.46143178       4.56892319       7.23323281      -0.00754786      -0.00534084       0.00000003
Cl       5.31876951       1.33698787       5.25408559      -0.00376567       0.00532928       0.00652660
Cl       3.03344816       4.56892215       9.21238047       0.00377102      -0.00533792      -0.00653662
Cl       3.03344784       4.56892185       5.25408529       0.00377113      -0.00533725       0.00653708
Cl       5.31876968       1.33698688       9.21238077      -0.00376792       0.00533368      -0.00653026
