9
Lattice="6.455128210973324 4.94430802296918e-08 3.7268699482337486 2.1517093356611436 6.08595344815461 3.7268701467472756 -3.069336583738753e-08 2.214251135082359e-07 7.453739949629701" Properties=species:S:1:pos:R:3:forces:R:3 energy=-25.220678329467773 free_energy=-25.220678329467773 stress="-0.0002657598233781755 -4.431480515876274e-09 8.794705408377013e-09 -4.431480515876274e-09 -0.0002657693112269044 -4.819710408554556e-09 8.794705408377013e-09 -4.819710408554556e-09 -0.0002657559816725552" pbc="T T T"
Tl       2.15170924       1.52148815       3.72686983       0.00000023      -0.00000005      -0.00000018
Tl       6.45512858       4.56446539      11.18061022       0.00000015       0.00000012       0.00000022
Ge      -0.00000052      -0.00000059      -0.00000121       0.00000482       0.00000444       0.00000965
Br       2.05573467       1.45362438       7.45373978       0.00762565       0.00539234       0.00000152
Br       6.55110309       4.63233029       7.45373949      -0.00763190      -0.00539774       0.00000133
Br       5.42726054       1.45362422       5.50718878      -0.00381109       0.00539115       0.00660388
Br       3.17957633       4.63233008       9.40029224       0.00381611      -0.00539713      -0.00660929
Br       3.17957717       4.63232939       5.50718910       0.00381144      -0.00539017       0.00660267
Br       5.42726094       1.45362363       9.40029211      -0.00381566       0.00539706      -0.00660981
