9
Lattice="5.399773619481293 -2.5997141838611378e-08 3.1175606574671377 1.7999245341042505 5.090955328477941 3.1175606249263517 -3.842847032303181e-08 -6.702721182983506e-08 6.235121381494494" Properties=species:S:1:pos:R:3:forces:R:3 energy=-40.97034454345703 free_energy=-40.97034454345703 stress="1.5359470353359939e-06 -3.818762905893891e-08 -5.0103945881119216e-08 -3.818762905893891e-08 1.5691539374529384e-06 -2.7162577964645607e-08 -5.0103945881119216e-08 -2.7162577964645607e-08 1.4486033705907175e-06" pbc="T T T"
Tl       1.79992441       1.27273867       3.11756078       0.00000020      -0.00000011      -0.00000012
Tl       5.39977368       3.81821618       9.35268230      -0.00000013      -0.00000006      -0.00000011
Ge       0.00000013       0.00000011      -0.00000016       0.00000279       0.00000230       0.00000248
F        1.49778479       1.05909377       6.23512071      -0.00089970      -0.00063604       0.00000335
F        5.70191365       4.03186166       6.23512168       0.00089377       0.00063246      -0.00000229
F        4.65088089       1.05909379       4.41468011       0.00045247      -0.00063616      -0.00077656
F        2.54881710       4.03186158       8.05556274      -0.00045013       0.00063443       0.00077400
F        2.54881675       4.03186146       4.41468003      -0.00044785       0.00063893      -0.00077620
F        4.65088121       1.05909379       8.05556272       0.00044854      -0.00063610       0.00077501
