9
Lattice="6.893046418709246 -2.634493483511934e-07 3.9797022890438227 2.2976817806575904 6.498826550438589 3.979702480486957 -9.16349683557032e-08 1.6967328592422636e-07 7.95940473680415" Properties=species:S:1:pos:R:3:forces:R:3 energy=-22.01244354248047 free_energy=-22.01244354248047 stress="-3.0741619411855936e-05 8.694121866881233e-09 1.1001969113522136e-08 8.694121866881233e-09 -3.073870902881026e-05 -2.108175500836751e-08 1.1001969113522136e-08 -2.108175500836751e-08 -3.073938933084719e-05" pbc="T T T"
Tl       2.29768172       1.62470658       3.97970170      -0.00000072       0.00000002      -0.00000047
Tl       6.89304637       4.87411986      11.93910750       0.00000069       0.00000009       0.00000028
Ge       0.00000012      -0.00000010      -0.00000034       0.00000009       0.00000018       0.00000032
I        2.37119011       1.67668562       7.95940502      -0.00545120      -0.00385560       0.00000062
I        6.81953798       4.82214083       7.95940459       0.00545117       0.00385514      -0.00000073
I        5.70745070       1.67668485       6.03321424       0.00272575      -0.00385344      -0.00471996
I        3.48327731       4.82214160       9.88559548      -0.00272567       0.00385350       0.00472055
I        3.48327722       4.82214173       6.03321394      -0.00272631       0.00385487      -0.00472169
I        5.70745090       1.67668491       9.88559584       0.00272616      -0.00385483       0.00472102
