9
Lattice="5.486433234427786 -8.931187493732316e-08 3.1675933074381306 1.8288110622853597 5.172658334755456 3.167593189057934 7.80007675412699e-08 -8.983064611332896e-08 6.3351864797749196" Properties=species:S:1:pos:R:3:forces:R:3 energy=-52.300819396972656 free_energy=-52.300819396972656 stress="-6.769123501726426e-06 8.035638821013436e-09 8.954773811353789e-09 8.035638821013436e-09 -6.803533779020654e-06 3.322058184096477e-09 8.954773811353789e-09 3.322058184096477e-09 -6.82988411426777e-06" pbc="T T T"
Tl       1.82881140       1.29316504       3.16759299       0.00000006      -0.00000042      -0.00000028
Tl       5.48643311       3.87949378       9.50277999       0.00000044      -0.00000000      -0.00000067
Hf      -0.00000002      -0.00000025      -0.00000020      -0.00000085       0.00000291      -0.00000161
F        1.64113236       1.16045549       6.33518656       0.00028232       0.00019963       0.00000015
F        5.67411205       4.01220255       6.33518633      -0.00028373      -0.00020122       0.00000046
F        4.66586730       1.16045543       4.58885538      -0.00014227       0.00020196       0.00024713
F        2.64937721       4.01220245       8.08151771       0.00014268      -0.00020157      -0.00024728
F        2.64937709       4.01220272       4.58885520       0.00014321      -0.00020247       0.00024866
F        4.66586700       1.16045544       8.08151794      -0.00014184       0.00020123      -0.00024664
