9
Lattice="7.105267628724255 3.798266018009151e-09 4.1022281602914035 2.3684225496119975 6.698910555220455 4.102228154882427 -1.5032833933924085e-09 -7.687611217489028e-09 8.204456323186559" Properties=species:S:1:pos:R:3:forces:R:3 energy=-31.245685577392578 free_energy=-31.245685577392578 stress="5.262043487164192e-05 4.897939276382601e-10 -6.276534292304348e-10 4.897939276382601e-10 5.262087142909877e-05 7.565095772044117e-10 -6.276534292304348e-10 7.565095772044117e-10 5.2621453505707905e-05" pbc="T T T"
Tl       2.36842257       1.67472762       4.10222816      -0.00000005       0.00000017      -0.00000008
Tl       7.10526762       5.02418291      12.30668448      -0.00000008      -0.00000025      -0.00000004
Hf      -0.00000002      -0.00000001       0.00000003       0.00000012      -0.00000016       0.00000010
I        2.32393371       1.64326927       8.20445633       0.00073485       0.00051939      -0.00000001
I        7.14975646       5.05564127       8.20445633      -0.00073487      -0.00051941       0.00000001
I        5.94330082       1.64326925       6.11481371      -0.00036732       0.00051956       0.00063623
I        3.53038938       5.05564130      10.29409892       0.00036735      -0.00051944      -0.00063623
I        3.53038937       5.05564132       6.11481371       0.00036740      -0.00051939       0.00063625
I        5.94330079       1.64326927      10.29409888      -0.00036750       0.00051951      -0.00063618
