9
Lattice="6.287616617270729 1.1608210802690652e-07 3.630157121753814 2.0958723437411177 5.928021604318542 3.6301570723194803 3.883936614847567e-08 -3.3080882001311246e-08 7.260314176235857" Properties=species:S:1:pos:R:3:forces:R:3 energy=-39.53881072998047 free_energy=-39.53881072998047 stress="-1.2785991202690639e-05 7.01064166719334e-08 2.2641525987410205e-08 7.01064166719334e-08 -1.2867602890764829e-05 -2.772741858336758e-08 2.2641525987410205e-08 -2.772741858336758e-08 -1.2890777725260705e-05" pbc="T T T"
Tl       2.09587231       1.48200559       3.63015705       0.00000021      -0.00000014      -0.00000025
Tl       6.28761676       4.44601619      10.89047142      -0.00000023       0.00000018       0.00000007
Hf       0.00000054      -0.00000011      -0.00000109      -0.00001129       0.00000204       0.00001535
Cl       2.00575683       1.41828403       7.26031427       0.00355976       0.00251807      -0.00000010
Cl       6.37773176       4.50973728       7.26031427      -0.00355262      -0.00251241      -0.00000023
Cl       5.28473851       1.41828378       5.36719316      -0.00177970       0.00251721       0.00308241
Cl       3.09875027       4.50973826       9.15343575       0.00178594      -0.00252733      -0.00309400
Cl       3.09875059       4.50973775       5.36719337       0.00178004      -0.00251836       0.00308341
Cl       5.28473853       1.41828394       9.15343533      -0.00178230       0.00252079      -0.00308690
