9
Lattice="6.748560702175873 2.474682041147303e-07 3.896283201737048 2.249520435404365 6.362603998701285 3.896283257109676 -1.2090115696206859e-07 -1.7672633040453735e-08 7.792566612880895" Properties=species:S:1:pos:R:3:forces:R:3 energy=-25.90201759338379 free_energy=-25.90201759338379 stress="-3.0388357117772102e-05 -3.4430616580038986e-08 -6.398058194356793e-10 -3.4430616580038986e-08 -3.0376198992598802e-05 -3.7345726511262e-09 -6.398058194356793e-10 -3.7345726511262e-09 -3.0337721909745596e-05" pbc="T T T"
Tl       2.24951970       1.59065074       3.89628421       0.00000013      -0.00000030       0.00000009
Tl       6.74856148       4.77195329      11.68884883      -0.00000033       0.00000021      -0.00000016
Ir      -0.00000046      -0.00000094      -0.00000042       0.00000439       0.00001231       0.00000042
I        2.19570947       1.55260053       7.79256650       0.00502956       0.00355757       0.00000051
I        6.80237220       4.81000415       7.79256683      -0.00503763      -0.00356346      -0.00000030
I        5.65070556       1.55260099       5.79782328      -0.00251372       0.00355588       0.00435500
I        3.34737521       4.81000366       9.78731009       0.00251598      -0.00355962      -0.00435876
I        3.34737533       4.81000351       5.79782311       0.00251577      -0.00355904       0.00435856
I        5.65070554       1.55260096       9.78730982      -0.00251420       0.00355640      -0.00435538
