9
Lattice="5.483038861915252 -1.1630506141305189e-07 3.1656338391654884 1.8276795555223226 5.16945852415423 3.1656337620242305 -1.095365899858086e-07 -1.7193229462666874e-07 6.331267868053748" Properties=species:S:1:pos:R:3:forces:R:3 energy=-40.1256103515625 free_energy=-40.1256103515625 stress="1.7863694665720686e-06 1.195880994231402e-08 -5.135059311101031e-08 1.195880994231402e-08 1.7856857539300108e-06 4.7586990348236213e-08 -5.135059311101031e-08 4.7586990348236213e-08 1.7694900407150271e-06" pbc="T T T"
Tl       1.82767936       1.29236432       3.16563368      -0.00000020      -0.00000000       0.00000041
Tl       5.48303844       3.87709392       9.49690253       0.00000002      -0.00000004       0.00000041
Ir       0.00000007      -0.00000020       0.00000050      -0.00000329       0.00000003      -0.00001720
F        1.61113891       1.13924692       6.33126725      -0.00058188      -0.00041143       0.00000149
F        5.69957913       4.03021097       6.33126701       0.00058597       0.00041380       0.00000164
F        4.67746933       1.13924734       4.56092102       0.00029173      -0.00041291      -0.00050350
F        2.63324895       4.03021147       8.10161442      -0.00029400       0.00041509       0.00051070
F        2.63324928       4.03021142       4.56092077      -0.00028990       0.00040834      -0.00049998
F        4.67746982       1.13924676       8.10161467       0.00029146      -0.00041284       0.00050608
