9
Lattice="6.398867227777519 -6.834348912607678e-08 3.6943876536257583 2.1329557077256895 6.032909831783017 3.6943876024125437 2.1822020821501672e-08 -4.729271709585253e-08 7.388775269454709" Properties=species:S:1:pos:R:3:forces:R:3 energy=-28.636337280273438 free_energy=-28.636337280273438 stress="-5.394011168391444e-05 -9.690880986568118e-09 1.8842126081608512e-08 -9.690880986568118e-09 -5.393013634602539e-05 -2.0691693691787805e-08 1.8842126081608512e-08 -2.0691693691787805e-08 -5.3918563935440034e-05" pbc="T T T"
Tl       2.13295580       1.50822749       3.69438750       0.00000003      -0.00000001      -0.00000003
Tl       6.39886714       4.52468203      11.08316303      -0.00000006      -0.00000006       0.00000001
Ir       0.00000008       0.00000046      -0.00000014       0.00000075      -0.00000827      -0.00000696
Br       2.04355860       1.44501412       7.38877533       0.00114446       0.00080959      -0.00000031
Br       6.48826458       4.58789565       7.38877517      -0.00114247      -0.00080790      -0.00000009
Br       5.37708799       1.44501399       5.46416113      -0.00057326       0.00081148       0.00099348
Br       3.15473483       4.58789569       9.31338916       0.00057019      -0.00080594      -0.00098651
Br       3.15473514       4.58789539       5.46416159       0.00057047      -0.00080615       0.00098768
Br       5.37708764       1.44501409       9.31338921      -0.00057015       0.00080734      -0.00098720
