9
Lattice="5.481857375488153 -5.176089012045265e-08 3.164951685894855 1.8272857810261247 5.1683445249733415 3.164951620081483 -6.333754833541195e-08 -1.2539100054441567e-07 6.3299034814935045" Properties=species:S:1:pos:R:3:forces:R:3 energy=-43.364017486572266 free_energy=-43.364017486572266 stress="6.785242590012786e-07 2.9342839269475007e-09 2.71208335789197e-08 2.9342839269475007e-09 6.738704314557253e-07 -4.4252704611835725e-08 2.71208335789197e-08 -4.4252704611835725e-08 6.612957577090128e-07" pbc="T T T"
Tl       1.82728558       1.29208581       3.16495129      -0.00000002      -0.00000024       0.00000029
Tl       5.48185722       3.87625870       9.49485586       0.00000028      -0.00000044      -0.00000064
Mo       0.00000011      -0.00000016       0.00000007      -0.00000636       0.00000197      -0.00000189
F        1.64267413       1.16154558       6.32990344      -0.00006530      -0.00004590       0.00000028
F        5.66646883       4.00679850       6.32990310       0.00007060       0.00004956       0.00000023
F        4.66052069       1.16154574       4.58754917       0.00003257      -0.00004664      -0.00005692
F        2.64862298       4.00679853       8.07225770      -0.00003275       0.00004509       0.00005564
F        2.64862292       4.00679890       4.58754907      -0.00003432       0.00004765      -0.00005880
F        4.66051992       1.16154600       8.07225755       0.00003542      -0.00005093       0.00006178
