9
Lattice="6.488560977226513 -1.6239891509902694e-09 3.7461723974549455 2.162853653875499 6.117473969659711 3.746172403809657 -2.273884590830494e-09 6.175025245330282e-09 7.492344798848368" Properties=species:S:1:pos:R:3:forces:R:3 energy=-31.678966522216797 free_energy=-31.678966522216797 stress="0.00029310915851965547 7.876181484789413e-09 7.541727242710294e-10 7.876181484789413e-09 0.0002931237395387143 -3.637548706691973e-09 7.541727242710294e-10 -3.637548706691973e-09 0.0002931131748482585" pbc="T T T"
Tl       2.16285364       1.52936851       3.74617243       0.00000003       0.00000016      -0.00000002
Tl       6.48856100       4.58810549      11.23851718       0.00000007      -0.00000019      -0.00000004
Mo      -0.00000009      -0.00000007      -0.00000033      -0.00000097       0.00000014       0.00000253
Br       2.09766846       1.48327562       7.49234476       0.00158836       0.00112365       0.00000008
Br       6.55374625       4.63419842       7.49234477      -0.00158790      -0.00112280       0.00000031
Br       5.43972669       1.48327562       5.56280650      -0.00079428       0.00112250       0.00137563
Br       3.21168781       4.63419845       9.42188330       0.00079530      -0.00112487      -0.00137755
Br       3.21168792       4.63419832       5.56280648       0.00079399      -0.00112242       0.00137529
Br       5.43972682       1.48327553       9.42188330      -0.00079461       0.00112386      -0.00137632
