9
Lattice="6.2146972784806955 2.295362226783609e-08 3.5880569928471697 2.0715657407647416 5.8592732353364 3.5880570627694377 -2.4641662157945762e-08 6.82127138647087e-08 7.1761140283747205" Properties=species:S:1:pos:R:3:forces:R:3 energy=-35.24727249145508 free_energy=-35.24727249145508 stress="3.886783815687522e-05 -3.6456249574712274e-08 -9.026845937398775e-09 -3.6456249574712274e-08 3.896268390235491e-05 1.260851334450308e-08 -9.026845937398775e-09 1.260851334450308e-08 3.8928355934331194e-05" pbc="T T T"
Tl       2.07156575       1.46481835       3.58805691      -0.00000002       0.00000040       0.00000006
Tl       6.21469735       4.39445502      10.76417126      -0.00000006      -0.00000017      -0.00000006
Mo      -0.00000104       0.00000038      -0.00000104       0.00002219      -0.00000454       0.00001718
Cl       1.96153756       1.38701708       7.17611353      -0.00069292      -0.00049046       0.00000118
Cl       6.32472637       4.47225677       7.17611371       0.00067919       0.00048108       0.00000136
Cl       5.23392807       1.38701734       5.28679843       0.00034685      -0.00049172      -0.00059944
Cl       3.05233451       4.47225627       9.06543032      -0.00034454       0.00048913       0.00059611
Cl       3.05233492       4.47225561       5.28679851      -0.00035115       0.00049831      -0.00060554
Cl       5.23392864       1.38701651       9.06543069       0.00034047      -0.00048214       0.00058894
