9
Lattice="6.451811739199892 -6.43131124497133e-08 3.7249552301973345 2.1506038629166166 6.082826330052745 3.724955212037371 1.1539885653863129e-07 5.935802144701027e-08 7.449910260517722" Properties=species:S:1:pos:R:3:forces:R:3 energy=-30.560070037841797 free_energy=-30.560070037841797 stress="5.795207107439637e-05 6.858514201013577e-09 6.0561640147227536e-09 6.858514201013577e-09 5.8010733482660726e-05 -2.471784409097122e-11 6.0561640147227536e-09 -2.471784409097122e-11 5.798204074380919e-05" pbc="T T T"
Tl       2.15060391       1.52070687       3.72495527      -0.00000003      -0.00000004       0.00000013
Tl       6.45181158       4.56211955      11.17486562      -0.00000001      -0.00000026       0.00000012
Mn       0.00000082       0.00000165      -0.00000085      -0.00000439      -0.00001489       0.00001416
Br       1.95550113       1.38274930       7.44991012      -0.00111675      -0.00079208       0.00000071
Br       6.64691500       4.70007705       7.44990978       0.00112125       0.00079645       0.00000136
Br       5.47406119       1.38274881       5.41846939       0.00056176      -0.00079450      -0.00097268
Br       3.12835326       4.70007753       9.48135201      -0.00055573       0.00079227       0.00096834
Br       3.12835430       4.70007671       5.41846968      -0.00056254       0.00080010      -0.00097720
Br       5.47406189       1.38274801       9.48135171       0.00055635      -0.00078704       0.00096517
