9
Lattice="5.332630279408317 -3.87278552465757e-08 3.078795704916425 1.7775434343295555 5.027651893413518 3.078795628060173 2.615313179263071e-08 -7.563635660135898e-08 6.157591364534391" Properties=species:S:1:pos:R:3:forces:R:3 energy=-42.63182830810547 free_energy=-42.63182830810547 stress="-6.631969154113904e-05 -7.506439203552873e-08 4.935098996128318e-09 -7.506439203552873e-08 -6.627576658502221e-05 -8.35659896836205e-09 4.935098996128318e-09 -8.35659896836205e-09 -6.623565423069522e-05" pbc="T T T"
Tl       1.77754366       1.25691314       3.07879561      -0.00000075      -0.00000016       0.00000037
Tl       5.33263013       3.77073883       9.23638724       0.00000038       0.00000054      -0.00000007
Mn       0.00000001      -0.00000012       0.00000006       0.00000247       0.00000469      -0.00000478
F        1.51255537       1.06953746       6.15759164       0.00063527       0.00044934      -0.00000067
F        5.59761880       3.95811414       6.15759156      -0.00063798      -0.00045268      -0.00000055
F        4.57635229       1.06953813       4.38870681      -0.00031632       0.00044836       0.00054979
F        2.53382110       3.95811375       7.92647534       0.00031632      -0.00044803      -0.00054696
F        2.53382133       3.95811374       4.38870715       0.00031580      -0.00044848       0.00054844
F        4.57635251       1.06953802       7.92647560      -0.00031515       0.00044645      -0.00054578
