9
Lattice="6.202416211617633 2.3497034677878197e-08 3.5809666716233712 2.0674721909313085 5.847694158077072 3.580966501468646 1.269220602312826e-07 -1.1864845437109455e-07 7.1619331234109875" Properties=species:S:1:pos:R:3:forces:R:3 energy=-33.471466064453125 free_energy=-33.471466064453125 stress="2.3782344214851037e-05 2.191385206629093e-08 9.285952451421053e-09 2.191385206629093e-08 2.379100442340132e-05 -2.3436577123447933e-08 9.285952451421053e-09 -2.3436577123447933e-08 2.3731074179522693e-05" pbc="T T T"
Tl       2.06747208       1.46192355       3.58096651      -0.00000013      -0.00000009      -0.00000000
Tl       6.20241655       4.38577057      10.74289991       0.00000003       0.00000013       0.00000002
Mn      -0.00000000       0.00000014       0.00000028      -0.00000283      -0.00000026      -0.00000112
Cl       1.87908006       1.32871119       7.16193308       0.00048789       0.00034299       0.00000065
Cl       6.39080746       4.51898269       7.16193328      -0.00048217      -0.00033979      -0.00000011
Cl       5.26287649       1.32871114       5.20829712      -0.00024471       0.00034288       0.00042342
Cl       3.00701233       4.51898320       9.11556886       0.00024378      -0.00034484      -0.00042492
Cl       3.00701263       4.51898275       5.20829757       0.00024214      -0.00034206       0.00042251
Cl       5.26287647       1.32871096       9.11556859      -0.00024405       0.00034091      -0.00042041
