9
Lattice="6.892347789430408 -2.5161260207475603e-07 3.9792989260890126 2.29744912925988 6.498167955776216 3.979298747100644 5.9196065722632296e-08 -1.7735718492313107e-07 7.9585977496474225" Properties=species:S:1:pos:R:3:forces:R:3 energy=-28.14504623413086 free_energy=-28.14504623413086 stress="2.2005058781360276e-05 -2.959216161002587e-08 2.4221211702979417e-08 -2.959216161002587e-08 2.20315414480865e-05 -2.8201259993920758e-08 2.4221211702979417e-08 -2.8201259993920758e-08 2.205622695328202e-05" pbc="T T T"
Tl       2.29744902       1.62454173       3.97929954      -0.00000019       0.00000007       0.00000051
Tl       6.89234790       4.87362597      11.93789580       0.00000014       0.00000023      -0.00000075
Mo      -0.00000001       0.00000050      -0.00000236       0.00000285      -0.00000420       0.00002516
I        2.27860546       1.61121742       7.95859737      -0.00585803      -0.00414304       0.00000073
I        6.91119124       4.88694984       7.95859737       0.00585794       0.00414254       0.00000042
I        5.75304458       1.61121775       5.95262979       0.00293320      -0.00414856      -0.00507997
I        3.43675141       4.88695078       9.96456700      -0.00292596       0.00413933       0.00506938
I        3.43675282       4.88694912       5.95263054      -0.00293730       0.00415383      -0.00508718
I        5.75304534       1.61121693       9.96456670       0.00292741      -0.00414029       0.00507160
