9
Lattice="6.55710567623789 2.71602614237381e-07 3.7857464799526066 2.1857020760962698 6.182098811628132 3.7857466047511874 -1.493198361265555e-07 4.7261158906851896e-08 7.571493218534727" Properties=species:S:1:pos:R:3:forces:R:3 energy=-32.7971076965332 free_energy=-32.7971076965332 stress="0.00015152612468227744 9.641805576166007e-08 -2.6821460608061898e-09 9.641805576166007e-08 0.00015149560931604356 2.820951472415345e-09 -2.6821460608061898e-09 2.820951472415345e-09 0.0001514282776042819" pbc="T T T"
Tl       2.18570188       1.54552464       3.78574651      -0.00000053      -0.00000023      -0.00000011
Tl       6.55710564       4.63657445      11.35723963       0.00000028      -0.00000017      -0.00000005
Nb       0.00000128       0.00000123       0.00000106      -0.00001903      -0.00001881      -0.00001457
Br       2.11029323       1.49220360       7.57149310      -0.00573535      -0.00405725      -0.00000044
Br       6.63251211       4.68989450       7.57149316       0.00576025       0.00407405      -0.00000019
Br       5.50195989       1.49220285       5.61331411       0.00286467      -0.00405402      -0.00496487
Br       3.24084883       4.68989540       9.52967163      -0.00287235       0.00406211       0.00497513
Br       3.24084847       4.68989649       5.61331423      -0.00286731       0.00405473      -0.00496690
Br       5.50195918       1.49220337       9.52967180       0.00286943      -0.00406042       0.00497200
