9
Lattice="5.412633610631328 2.2671398302322513e-07 3.124985618069192 1.8042115242473298 5.103080256132113 3.1249854328166533 -1.3651673336814431e-08 -2.3654027134211497e-07 6.249971259783676" Properties=species:S:1:pos:R:3:forces:R:3 energy=-47.9940299987793 free_energy=-47.9940299987793 stress="0.00032464705873280764 6.340237490576328e-08 2.3322597186847815e-08 6.340237490576328e-08 0.00032464091782458127 -2.097868190276131e-08 2.3322597186847815e-08 -2.097868190276131e-08 0.000324585591442883" pbc="T T T"
Tl       1.80421089       1.27576993       3.12498540      -0.00000017       0.00000005       0.00000042
Tl       5.41263426       3.82731053       9.37495604      -0.00000058      -0.00000075       0.00000029
Nb      -0.00000007      -0.00000009       0.00000015       0.00000793       0.00000074      -0.00000452
F        1.64104061       1.16039118       6.24997095      -0.00375861      -0.00265744       0.00000030
F        5.57580449       3.94268901       6.24997120       0.00375351       0.00265452       0.00000034
F        4.59211364       1.16039078       4.54616841       0.00187428      -0.00265071      -0.00324669
F        2.62473157       3.94268943       7.95377431      -0.00187604       0.00265333       0.00324959
F        2.62473136       3.94268947       4.54616854      -0.00187725       0.00265458      -0.00325096
F        4.59211376       1.16039089       7.95377410       0.00187695      -0.00265431       0.00325143
