9
Lattice="6.609972699644978 -1.6250756163124422e-07 3.8162695010409973 2.203324115052933 6.231941963329693 3.8162694403294495 3.673183226055963e-08 -4.838236369094386e-08 7.6325389384602405" Properties=species:S:1:pos:R:3:forces:R:3 energy=-22.383087158203125 free_energy=-22.383087158203125 stress="-0.00019297853577882051 -3.903080969536177e-09 -2.324104908524305e-09 -3.903080969536177e-09 -0.00019296992104500532 4.801835817858091e-09 -2.324104908524305e-09 4.801835817858091e-09 -0.0001929701684275642" pbc="T T T"
Tl       2.20332367       1.55798551       3.81626945       0.00000004       0.00000001       0.00000004
Tl       6.60997320       4.67395599      11.44880857      -0.00000015      -0.00000010      -0.00000010
Ni      -0.00000013      -0.00000006      -0.00000035       0.00000114       0.00000044       0.00000092
I        2.21296638       1.56480276       7.63253925       0.00181934       0.00128758       0.00000026
I        6.60033092       4.66713900       7.63253880      -0.00182141      -0.00128809       0.00000004
I        5.50348942       1.56480275       5.73275428      -0.00090992       0.00128722       0.00157624
I        3.30980750       4.66713938       9.53232378       0.00091101      -0.00128803      -0.00157742
I        3.30980704       4.66713889       5.73275395       0.00090987      -0.00128670       0.00157672
I        5.50348940       1.56480273       9.53232389      -0.00091000       0.00128762      -0.00157681
