9
Lattice="7.0321333835370865 3.2883728893825726e-07 4.06000397628647 2.3440447606467556 6.629958984530789 4.0600039945822965 5.384747368100546e-08 6.0483597165409e-08 8.120007859306382" Properties=species:S:1:pos:R:3:forces:R:3 energy=-28.96516990661621 free_energy=-28.96516990661621 stress="1.24578627946903e-05 4.392247276996386e-08 3.2214968470611893e-09 4.392247276996386e-08 1.243080259882845e-05 1.3720889979751405e-09 3.2214968470611893e-09 1.3720889979751405e-09 1.2383593457343522e-05" pbc="T T T"
Tl       2.34404458       1.65748906       4.06000377       0.00000040      -0.00000045      -0.00000074
Tl       7.03213370       4.97247021      12.18001161      -0.00000032       0.00000032       0.00000048
Nb      -0.00000002      -0.00000012      -0.00000013      -0.00000216      -0.00000055       0.00000462
I        2.28869423       1.61835126       8.12000779      -0.00217335      -0.00153700       0.00000006
I        7.08748406       5.01160822       8.12000784       0.00217460       0.00153787       0.00000045
I        5.88778636       1.61835116       6.04207054       0.00108490      -0.00153481      -0.00187812
I        3.48839095       5.01160853      10.19794585      -0.00108254       0.00153189       0.00187563
I        3.48839185       5.01160828       6.04207062      -0.00108530       0.00153516      -0.00187867
I        5.88778704       1.61835093      10.19794561       0.00108380      -0.00153238       0.00187629
