9
Lattice="4.908941780228401 8.00882602936619e-09 2.8341787735910393 1.6363140135648502 4.628194614967468 2.8341786362892134 5.709351227504284e-08 -1.2778851264746662e-07 5.668357448293224" Properties=species:S:1:pos:R:3:forces:R:3 energy=-34.231834411621094 free_energy=-34.231834411621094 stress="-1.0624091373756528e-05 1.1660103105270991e-08 -9.21096976469471e-09 1.1660103105270991e-08 -1.0616851795930415e-05 6.5735754617435305e-09 -9.21096976469471e-09 6.5735754617435305e-09 -1.0596624633762985e-05" pbc="T T T"
Tl       1.63631356       1.15704854       2.83417822      -0.00000072       0.00000003      -0.00000189
Tl       4.90894190       3.47114602       8.50253529      -0.00000059       0.00000001      -0.00000238
Ni       0.00000008      -0.00000000      -0.00000033      -0.00000046      -0.00000685       0.00001941
F        1.51466043       1.07102664       5.66835765       0.00242162       0.00171129      -0.00000064
F        5.03059483       3.55716766       5.66835765      -0.00241385      -0.00170706      -0.00000093
F        4.15161186       1.07102647       4.14591346      -0.00120993       0.00170889       0.00209334
F        2.39364458       3.55716799       7.19080177       0.00120925      -0.00171135      -0.00209565
F        2.39364427       3.55716792       4.14591366       0.00120740      -0.00170849       0.00208898
F        4.15161194       1.07102683       7.19080187      -0.00121248       0.00171337      -0.00210017
