9
Lattice="6.251148692750141 3.522507693165984e-08 3.6091025069423837 2.083716195045722 5.89363947550899 3.609102626595172 -1.114596427891143e-07 6.773015823162045e-08 7.218205206938528" Properties=species:S:1:pos:R:3:forces:R:3 energy=-24.949935913085938 free_energy=-24.949935913085938 stress="-4.8754693125374615e-05 1.2303080776376873e-09 6.616322600905278e-09 1.2303080776376873e-09 -4.876828461419791e-05 1.0032755959343831e-08 6.616322600905278e-09 1.0032755959343831e-08 -4.875733793596737e-05" pbc="T T T"
Tl       2.08371605       1.47340987       3.60910256       0.00000000      -0.00000002       0.00000013
Tl       6.25114874       4.42022966      10.82730755      -0.00000028       0.00000006       0.00000024
Ni       0.00000046      -0.00000069       0.00000006      -0.00000526       0.00000711      -0.00000106
Br       2.00208698       1.41568924       7.21820552       0.00168547       0.00119144      -0.00000108
Br       6.33277778       4.47795016       7.21820530      -0.00168544      -0.00119111      -0.00000042
Br       5.25010472       1.41568976       5.34296165      -0.00084122       0.00118884       0.00145587
Br       3.08475976       4.47795028       9.09344891       0.00084288      -0.00119171      -0.00145885
Br       3.08475981       4.47795038       5.34296116       0.00084381      -0.00119355       0.00146037
Br       5.25010465       1.41568975       9.09344875      -0.00084020       0.00118852      -0.00145507
