9
Lattice="6.095384274508674 -1.8555158184580515e-07 3.5191722138631203 2.0317946866269803 5.746783267747818 3.5191720347740096 2.573628666270789e-07 -3.735542227519802e-08 7.0383439819606455" Properties=species:S:1:pos:R:3:forces:R:3 energy=-27.252235412597656 free_energy=-27.252235412597656 stress="-2.2109594283392653e-05 2.253467989987712e-08 1.4264369241345776e-08 2.253467989987712e-08 -2.2172569515532814e-05 -1.2454182574117567e-08 1.4264369241345776e-08 -1.2454182574117567e-08 -2.2111333237262443e-05" pbc="T T T"
Tl       2.03179434       1.43669535       3.51917225       0.00000048       0.00000036       0.00000021
Tl       6.09538472       4.31008763      10.55751636       0.00000044       0.00000008      -0.00000055
Ni       0.00000055      -0.00000025       0.00000091      -0.00000741       0.00000207      -0.00001045
Cl       1.90944943       1.35018473       7.03834414       0.00189322       0.00133952      -0.00000088
Cl       6.21772920       4.39659824       7.03834387      -0.00188887      -0.00133643       0.00000125
Cl       5.14066002       1.35018376       5.17280393      -0.00094828       0.00134039       0.00163865
Cl       2.98651939       4.39659913       8.90388365       0.00094697      -0.00133967      -0.00163662
Cl       2.98652004       4.39659948       5.17280436       0.00094716      -0.00134185       0.00163993
Cl       5.14065922       1.35018427       8.90388345      -0.00094363       0.00133526      -0.00163135
