9
Lattice="6.236430801004936 8.253163220251342e-08 3.6006052459159203 2.078810320605 5.879763502500993 3.600605287845286 9.636167149457131e-08 1.1949091721862938e-07 7.201210324928286" Properties=species:S:1:pos:R:3:forces:R:3 energy=-36.53096008300781 free_energy=-36.53096008300781 stress="4.989621811546385e-05 -4.9723325901140925e-08 7.204645768865703e-09 -4.9723325901140925e-08 4.9962414777837694e-05 1.2974328278403391e-08 7.204645768865703e-09 1.2974328278403391e-08 5.000297096557915e-05" pbc="T T T"
Tl       2.07881034       1.46994086       3.60060530      -0.00000031       0.00000012       0.00000001
Tl       6.23643097       4.40982286      10.80181559      -0.00000008      -0.00000031       0.00000022
Nb       0.00000082       0.00000063      -0.00000117      -0.00000852      -0.00000882       0.00001449
Cl       1.97666654       1.39771467       7.20121055      -0.00091627      -0.00064903      -0.00000016
Cl       6.33857389       4.48204872       7.20121012       0.00092788       0.00065690       0.00000119
Cl       5.24809719       1.39771531       5.31244980       0.00046552      -0.00066048      -0.00080827
Cl       3.06714361       4.48204873       9.08997155      -0.00046192       0.00065444       0.00080165
Cl       3.06714433       4.48204850       5.31244989      -0.00046734       0.00066009      -0.00080894
Cl       5.24809734       1.39771456       9.08997193       0.00046112      -0.00065285       0.00079976
