9
Lattice="6.789153515727093 9.520533434006792e-08 3.9197193865616318 2.263051230415029 6.400875035362808 3.9197194406960327 8.327853135004404e-09 7.218939446559782e-08 7.839438758698823" Properties=species:S:1:pos:R:3:forces:R:3 energy=-27.047475814819336 free_energy=-27.047475814819336 stress="-2.8912028938066214e-05 4.1905529046815104e-10 -1.5296921063168156e-08 4.1905529046815104e-10 -2.8916834708070382e-05 2.2653306785969107e-08 -1.5296921063168156e-08 2.2653306785969107e-08 -2.88975552393822e-05" pbc="T T T"
Tl       2.26305093       1.60021866       3.91971949       0.00000011       0.00000017      -0.00000006
Tl       6.78915364       4.80065663      11.75915822      -0.00000019       0.00000002      -0.00000016
Os       0.00000005       0.00000023       0.00000013       0.00000138      -0.00000538       0.00000090
I        2.21257546       1.56452697       7.83943877       0.00190783       0.00134857      -0.00000025
I        6.83962925       4.83634820       7.83943875      -0.00190583      -0.00134827      -0.00000005
I        5.68286556       1.56452762       5.83586584      -0.00095334       0.00134840       0.00165109
I        3.36933926       4.83634764       9.84301134       0.00095207      -0.00134667      -0.00164702
I        3.36933886       4.83634829       5.83586626       0.00095316      -0.00134799       0.00164935
I        5.68286600       1.56452660       9.84301155      -0.00095520       0.00135112      -0.00165391
