9
Lattice="6.423652669585743 -2.3590534289786945e-07 3.7086978751386166 2.1412173981255775 6.056277467141152 3.708697764268735 1.2107208897741992e-07 -5.017634257147668e-08 7.417395540574156" Properties=species:S:1:pos:R:3:forces:R:3 energy=-30.310754776000977 free_energy=-30.310754776000977 stress="-0.0001235027302755043 -5.1929887945334485e-08 2.2269928123819227e-08 -5.1929887945334485e-08 -0.00012350174074526876 -3.3461187598504694e-08 2.2269928123819227e-08 -3.3461187598504694e-08 -0.00012343305570539087" pbc="T T T"
Tl       2.14121726       1.51406928       3.70869789      -0.00000004      -0.00000006       0.00000014
Tl       6.42365270       4.54220809      11.12609308      -0.00000009       0.00000007      -0.00000022
Os      -0.00000055      -0.00000002       0.00000190       0.00000844      -0.00000111      -0.00002407
Br       2.04469838       1.44581965       7.41739582       0.00400299       0.00283132       0.00000037
Br       6.52017235       4.61045800       7.41739593      -0.00400819      -0.00283533      -0.00000026
Br       5.40130336       1.44581929       5.47945852      -0.00200471       0.00283666       0.00347354
Br       3.16356733       4.61045680       9.35533128       0.00199669      -0.00282466      -0.00345799
Br       3.16356706       4.61045716       5.47945913       0.00200137      -0.00283097       0.00346641
Br       5.40130289       1.44582049       9.35533118      -0.00199662       0.00282419      -0.00345811
