9
Lattice="6.157038094035394 3.227730886634411e-08 3.554767474319308 2.052346066279171 5.804911352344071 3.554767466520423 -3.3137758291312264e-08 -3.298357780427952e-08 7.109535006034897" Properties=species:S:1:pos:R:3:forces:R:3 energy=-33.6524543762207 free_energy=-33.6524543762207 stress="6.0704542192979716e-06 2.575190727327481e-08 -3.861335251542641e-09 2.575190727327481e-08 6.0610859691223595e-06 -1.3979038371303432e-08 -3.861335251542641e-09 -1.3979038371303432e-08 6.041609594831243e-06" pbc="T T T"
Tl       2.05234615       1.45122789       3.55476772       0.00000004      -0.00000008       0.00000016
Tl       6.15703817       4.35368355      10.66430256       0.00000005       0.00000006      -0.00000007
Os      -0.00000014       0.00000080      -0.00000083       0.00000161      -0.00001506       0.00001688
Cl       1.92692335       1.36254063       7.10953500       0.00096434       0.00068256      -0.00000052
Cl       6.28246079       4.44237037       7.10953476      -0.00096017      -0.00067827      -0.00000106
Cl       5.19357647       1.36254032       5.22353145      -0.00048231       0.00068298       0.00083601
Cl       3.01580748       4.44237067       8.99553861       0.00048353      -0.00068271      -0.00083899
Cl       3.01580761       4.44237075       5.22353161       0.00047913      -0.00067699       0.00083029
Cl       5.19357657       1.36254028       8.99553861      -0.00048615       0.00068739      -0.00084281
