9
Lattice="5.464069507757269 1.4357753241868853e-07 3.1546819349796635 1.8213566189152297 5.151574256096889 3.154681967952208 -4.8568629094862417e-08 6.039855527381043e-09 6.309363954082637" Properties=species:S:1:pos:R:3:forces:R:3 energy=-43.181949615478516 free_energy=-43.181949615478516 stress="-1.732072269078344e-05 1.0741538147840402e-07 -3.039544171912212e-10 1.0741538147840402e-07 -1.7393185771652497e-05 -2.318346581375863e-08 -3.039544171912212e-10 -2.318346581375863e-08 -1.7489122910774313e-05" pbc="T T T"
Tl       1.82135676       1.28789409       3.15468132      -0.00000028      -0.00000076       0.00000122
Tl       5.46406961       3.86368096       9.46404683      -0.00000062      -0.00000097      -0.00000058
Os      -0.00000005      -0.00000027       0.00000008      -0.00000510       0.00000487       0.00000831
F        1.62119988       1.14636156       6.30936372      -0.00075220      -0.00053313       0.00000040
F        5.66422578       4.00521267       6.30936334       0.00075653       0.00053379       0.00000055
F        4.65346981       1.14636144       4.55868186       0.00037320      -0.00052859      -0.00064712
F        2.63195626       4.00521301       8.06004607      -0.00037061       0.00052387       0.00064095
F        2.63195669       4.00521299       4.55868203      -0.00037336       0.00052749      -0.00064699
F        4.65346955       1.14636125       8.06004624       0.00037237      -0.00052652       0.00064331
