9
Lattice="5.403436203832023 2.8470991521299388e-08 3.1196751238720717 1.8011453941243993 5.0944085340022305 3.1196751827541642 -7.331391812214024e-09 6.693150773523108e-08 6.239350260442559" Properties=species:S:1:pos:R:3:forces:R:3 energy=-37.23374557495117 free_energy=-37.23374557495117 stress="-2.124041384377051e-05 6.902887861315321e-08 -3.1027898028668233e-09 6.902887861315321e-08 -2.130765642505139e-05 1.3465953685454224e-08 -3.1027898028668233e-09 1.3465953685454224e-08 -2.1374844436650164e-05" pbc="T T T"
Tl       1.80114552       1.27360215       3.11967502       0.00000014       0.00000013       0.00000051
Tl       5.40343671       3.82080665       9.35902555      -0.00000038       0.00000009       0.00000016
Pt       0.00000000      -0.00000000       0.00000039      -0.00000513       0.00000056      -0.00002577
F        1.61236461       1.14011377       6.23934986      -0.00078127      -0.00055240       0.00000221
F        5.59221714       3.95429481       6.23935002       0.00078247       0.00055277       0.00000280
F        4.59725364       1.14011408       4.51602337       0.00038730      -0.00054684      -0.00066680
F        2.60732726       3.95429477       7.96267744      -0.00038920       0.00055125       0.00067568
F        2.60732757       3.95429458       4.51602324      -0.00038521       0.00054559      -0.00066514
F        4.59725388       1.14011367       7.96267727       0.00039127      -0.00055124       0.00067641
