9
Lattice="6.15488828012377 6.234135659239757e-08 3.5535267561927526 2.0516294608886656 5.802884626249555 3.5535267987929235 -5.801393627671974e-08 1.1152290800576485e-08 7.1070536128685164" Properties=species:S:1:pos:R:3:forces:R:3 energy=-28.92521858215332 free_energy=-28.92521858215332 stress="4.510308372118743e-06 -3.803147308190091e-08 -4.053258173541963e-09 -3.803147308190091e-08 4.5678234528168105e-06 -4.814580734091578e-09 -4.053258173541963e-09 -4.814580734091578e-09 4.674466254073195e-06" pbc="T T T"
Tl       2.05162938       1.45072109       3.55352676      -0.00000019      -0.00000011       0.00000003
Tl       6.15488830       4.35216366      10.66058018       0.00000026       0.00000004      -0.00000007
Pt       0.00000014       0.00000019       0.00000079      -0.00000394      -0.00000311      -0.00002598
Cl       1.91899185       1.35693261       7.10705406       0.00104719       0.00073898       0.00000032
Cl       6.28752551       4.44595190       7.10705410      -0.00104295      -0.00073648      -0.00000025
Cl       5.19539268       1.35693255       5.21542361      -0.00052378       0.00073965       0.00090432
Cl       3.01112558       4.44595205       8.99868278       0.00051742      -0.00073130      -0.00089116
Cl       3.01112514       4.44595209       5.21542366       0.00052395      -0.00073906       0.00090405
Cl       5.19539212       1.35693262       8.99868270      -0.00051785       0.00073138      -0.00089128
