9
Lattice="6.688578432135224 1.481597824242261e-07 3.86165257441742 2.229526459467576 6.306052144928953 3.8616522700334954 2.2015290064034352e-07 -2.1712106277279934e-07 7.723304767518874" Properties=species:S:1:pos:R:3:forces:R:3 energy=-22.365440368652344 free_energy=-22.365440368652344 stress="-8.625009650131688e-05 -8.59372217831833e-09 4.373139628199851e-09 -8.59372217831833e-09 -8.62503147800453e-05 -4.163724032224536e-09 4.373139628199851e-09 -4.163724032224536e-09 -8.623794565210119e-05" pbc="T T T"
Tl       2.22952598       1.57651307       3.86165244      -0.00000006      -0.00000024      -0.00000025
Tl       6.68857905       4.72953900      11.58495716       0.00000007       0.00000021      -0.00000001
Pd      -0.00000013      -0.00000040      -0.00000089      -0.00000019       0.00000334       0.00000840
I        2.23453409       1.58005309       7.72330438      -0.00139672      -0.00098721      -0.00000013
I        6.68357150       4.72599907       7.72330494       0.00139520       0.00098564       0.00000026
I        5.57131186       1.58005388       5.79681645       0.00070001      -0.00098887      -0.00121247
I        3.34679285       4.72599890       9.64979396      -0.00069693       0.00098458       0.00120696
I        3.34679360       4.72599889       5.79681603      -0.00069923       0.00098802      -0.00121138
I        5.57131171       1.58005273       9.64979391       0.00069782      -0.00098546       0.00120858
