9
Lattice="5.270931817482247 6.3303151304196e-08 3.043173965919487 1.7569773102241386 4.969482281020877 3.04317400394274 -3.4075500299830466e-08 2.2473753796521015e-08 6.086347990859418" Properties=species:S:1:pos:R:3:forces:R:3 energy=-41.81618881225586 free_energy=-41.81618881225586 stress="-0.00026896464987657964 1.1097668561887986e-08 -3.2832712548724885e-08 1.1097668561887986e-08 -0.00026887570857070386 2.4541693122159813e-08 -3.2832712548724885e-08 2.4541693122159813e-08 -0.0002688237000256777" pbc="T T T"
Tl       1.75697702       1.24237060       3.04317421       0.00000071       0.00000005      -0.00000106
Tl       5.27093151       3.72711139       9.12952210       0.00000010       0.00000135      -0.00000055
P        0.00000009      -0.00000015      -0.00000008       0.00000007      -0.00000291      -0.00001439
F        1.34887441       0.95379840       6.08634818       0.00026169       0.00018249       0.00000030
F        5.67903461       4.01568416       6.08634824      -0.00025779      -0.00018136      -0.00000036
F        4.59649469       0.95379859       4.21133344      -0.00013089       0.00018224       0.00022678
F        2.43141443       4.01568416       7.96136207       0.00012837      -0.00017963      -0.00021544
F        2.43141465       4.01568399       4.21133342       0.00013047      -0.00018494       0.00022756
F        4.59649495       0.95379840       7.96136220      -0.00013274       0.00018255      -0.00022282
