9
Lattice="6.5038693066773 1.8831949082391362e-07 3.7550107842576934 2.1679572483254796 6.131905900912693 3.7550096840290137 6.587810026176628e-07 -8.81670829594504e-07 7.5100204274732425" Properties=species:S:1:pos:R:3:forces:R:3 energy=-27.403240203857422 free_energy=-27.403240203857422 stress="5.39613802175154e-06 3.3122694276244147e-07 1.2772336788202665e-07 3.3122694276244147e-07 5.1033184718107805e-06 -1.369994464539559e-07 1.2772336788202665e-07 -1.369994464539559e-07 5.00043279316742e-06" pbc="T T T"
Tl       2.16795724       1.53297662       3.75500952       0.00000017      -0.00000027      -0.00000054
Tl       6.50387067       4.59892970      11.26503094       0.00000058       0.00000024      -0.00000016
P        0.00000101      -0.00000133      -0.00000340      -0.00001780       0.00001626       0.00005824
Cl       1.86061691       1.31565459       7.51001886      -0.00079989      -0.00057177      -0.00000353
Cl       6.81121010       4.81625296       7.51001930       0.00080349       0.00055760      -0.00000031
Cl       5.57356379       1.31564992       5.36634912       0.00038136      -0.00053295      -0.00066303
Cl       3.09826061       4.81625603       9.65369511      -0.00036341       0.00051983       0.00063641
Cl       3.09826547       4.81625314       5.36634962      -0.00038781       0.00054718      -0.00068354
Cl       5.57356414       1.31564834       9.65369434       0.00038328      -0.00053613       0.00065650
