9
Lattice="6.640548338506547 -6.741364085517741e-09 3.8339222260340913 2.2135162277525615 6.260768774514601 3.8339220159833243 1.958650286922176e-07 -1.1876122558009523e-07 7.667844112820206" Properties=species:S:1:pos:R:3:forces:R:3 energy=-24.313629150390625 free_energy=-24.313629150390625 stress="8.139941928675398e-05 3.828474426370576e-09 1.104369307114439e-08 3.828474426370576e-09 8.139057899825275e-05 -1.758910528337765e-08 1.104369307114439e-08 -1.758910528337765e-08 8.139456622302532e-05" pbc="T T T"
Tl       2.21351604       1.56519222       3.83392224      -0.00000016      -0.00000049       0.00000033
Tl       6.64054874       4.69557636      11.50176614       0.00000031       0.00000033      -0.00000026
Pb       0.00000087       0.00000103      -0.00000033      -0.00000594      -0.00001020       0.00000085
Br       2.31943418       1.64008831       7.66784380      -0.00443404      -0.00313573      -0.00000013
Br       6.53462936       4.62067998       7.66784449       0.00444233       0.00314101      -0.00000043
Br       5.48083113       1.64008728       5.84261102       0.00221723      -0.00313556      -0.00384039
Br       3.37323407       4.62068078       9.49307675      -0.00221877       0.00313850       0.00384372
Br       3.37323376       4.62068090       5.84261190      -0.00221942       0.00313917      -0.00384550
Br       5.48083087       1.64008779       9.49307739       0.00221848      -0.00313704       0.00384188
