9
Lattice="6.360755168460971 -1.294446788284097e-07 3.6723838122512187 2.1202517162100216 5.996977354805589 3.672383612318139 1.2225250087650476e-07 -1.5842126091741522e-07 7.344767412754811" Properties=species:S:1:pos:R:3:forces:R:3 energy=-26.03413963317871 free_energy=-26.03413963317871 stress="-4.500877548707649e-05 6.772524208109587e-10 1.4560307626254598e-08 6.772524208109587e-10 -4.5005144784227014e-05 -1.990407128005245e-08 1.4560307626254598e-08 -1.990407128005245e-08 -4.500428622122854e-05" pbc="T T T"
Tl       2.12025166       1.49924420       3.67238372      -0.00000002       0.00000009      -0.00000001
Tl       6.36075519       4.49773294      11.01715110      -0.00000000      -0.00000005      -0.00000005
Pt      -0.00000011       0.00000006       0.00000023       0.00000378      -0.00000204       0.00000248
Br       2.04097212       1.44318514       7.34476748       0.00093335       0.00066012      -0.00000049
Br       6.44003470       4.55379176       7.34476749      -0.00093459      -0.00066102       0.00000009
Br       5.34026941       1.44318495       5.43991705      -0.00046843       0.00066214       0.00081069
Br       3.14073785       4.55379217       9.24961754       0.00046742      -0.00066088      -0.00080958
Br       3.14073799       4.55379193       5.43991742       0.00046562      -0.00065904       0.00080646
Br       5.34026925       1.44318511       9.24961733      -0.00046710       0.00066074      -0.00080954
