9
Lattice="6.386991024314493 9.204518478919502e-08 3.687531072931297 2.1289970726201504 6.0217130018180285 3.6875311114966705 -2.003719608142802e-08 3.306435266847862e-08 7.375062180568012" Properties=species:S:1:pos:R:3:forces:R:3 energy=-27.18311309814453 free_energy=-27.18311309814453 stress="0.00010898693290073425 -3.1593597071832846e-08 -8.438932885823647e-10 -3.1593597071832846e-08 0.00010900607594521716 1.2192355569595748e-08 -8.438932885823647e-10 1.2192355569595748e-08 0.00010903709335252643" pbc="T T T"
Tl       2.12899722       1.50542829       3.68753104       0.00000030      -0.00000043      -0.00000026
Tl       6.38699113       4.51628492      11.06259346      -0.00000012      -0.00000022       0.00000006
Pb       0.00000008      -0.00000022      -0.00000135      -0.00000615       0.00000081       0.00002042
Cl       2.11104094       1.49273143       7.37506193      -0.00062925      -0.00044583       0.00000044
Cl       6.40494650       4.52898160       7.37506181       0.00063509       0.00044824       0.00000005
Cl       5.33146996       1.49273235       5.51574717       0.00032178      -0.00045486      -0.00055682
Cl       3.18451759       4.52898159       9.23437794      -0.00031417       0.00044373       0.00054538
Cl       3.18451795       4.52898103       5.51574719      -0.00032036       0.00045256      -0.00055438
Cl       5.33147092       1.49273153       9.23437823       0.00031292      -0.00044402       0.00054509
