9
Lattice="6.41531730917857 -2.6160758982464286e-07 3.703885264399019 2.138438927990654 6.048419169200558 3.7038851404237687 2.50642701404668e-07 2.5392915685841585e-08 7.407770094672223" Properties=species:S:1:pos:R:3:forces:R:3 energy=-24.42044448852539 free_energy=-24.42044448852539 stress="5.97364705754444e-05 -9.888083241094137e-09 2.3456053099835117e-08 -9.888083241094137e-09 5.972856524749659e-05 -5.7453113377903264e-09 2.3456053099835117e-08 -5.7453113377903264e-09 5.9720154240494594e-05" pbc="T T T"
Tl       2.13843900       1.51210471       3.70388530       0.00000014       0.00000031      -0.00000031
Tl       6.41531763       4.53631428      11.11165515       0.00000004      -0.00000033       0.00000004
P       -0.00000001       0.00000073       0.00000004      -0.00000058      -0.00000036       0.00000027
Br       2.09100337       1.47856245       7.40777028      -0.00132483      -0.00093630      -0.00000052
Br       6.46275222       4.56985609       7.40776984       0.00132583       0.00093694       0.00000118
Br       5.36981559       1.47856276       5.51474807       0.00066228      -0.00093725      -0.00114726
Br       3.18394115       4.56985531       9.30079249      -0.00066231       0.00093740       0.00114739
Br       3.18394198       4.56985569       5.51474874      -0.00066483       0.00093785      -0.00114940
Br       5.36981499       1.47856352       9.30079222       0.00066425      -0.00093818       0.00114879
