9
Lattice="6.756999970070148 5.545819227523829e-07 3.901155485263031 2.252333718246777 6.370560490770347 3.9011557069219087 -8.473471555383421e-08 2.115591108941979e-07 7.802311117290945" Properties=species:S:1:pos:R:3:forces:R:3 energy=-23.315637588500977 free_energy=-23.315637588500977 stress="-8.877840627974365e-06 2.393956588520041e-09 -1.4325958197503041e-08 2.393956588520041e-09 -8.839668225846253e-06 1.195685506161226e-08 -1.4325958197503041e-08 1.195685506161226e-08 -8.844979674904607e-06" pbc="T T T"
Tl       2.25233321       1.59264032       3.90115681       0.00000019       0.00000006       0.00000029
Tl       6.75700034       4.77792090      11.70346519       0.00000000       0.00000002       0.00000040
Pt       0.00000110       0.00000103       0.00000538      -0.00001126      -0.00001078      -0.00004673
I        2.21833139       1.56859908       7.80231083       0.00081867       0.00057659       0.00000120
I        6.79100045       4.80196110       7.80231116      -0.00080574      -0.00056827       0.00000061
I        5.64783386       1.56859880       5.82228706      -0.00041201       0.00058133       0.00071277
I        3.36150128       4.80196054       9.78233270       0.00039923      -0.00056303      -0.00068873
I        3.36149860       4.80196329       5.82228815       0.00041214      -0.00058129       0.00071254
I        5.64783426       1.56860007       9.78233203      -0.00040119       0.00056542      -0.00069232
