9
Lattice="5.553359382645303 -4.356127633827985e-09 3.2062334670165678 1.8511198083199687 5.235757358712581 3.2062334354726407 -9.230598610508249e-10 -3.9285961904433004e-08 6.412466935631899" Properties=species:S:1:pos:R:3:forces:R:3 energy=-37.114341735839844 free_energy=-37.114341735839844 stress="-1.7699208854082826e-07 2.524833320194375e-08 2.1410708761493424e-09 2.524833320194375e-08 -2.2494521090266062e-07 -1.9062914802248088e-08 2.1410708761493424e-09 -1.9062914802248088e-08 -2.657764071045676e-07" pbc="T T T"
Tl       1.85111975       1.30893907       3.20623354       0.00000035       0.00000058      -0.00000008
Tl       5.55335936       3.92681782       9.61870022      -0.00000081      -0.00000097       0.00000076
Pb      -0.00000007      -0.00000004       0.00000014      -0.00000161       0.00000268       0.00001073
F        1.72478474       1.21960683       6.41246636      -0.00000824      -0.00000542       0.00000001
F        5.67969425       4.01615030       6.41246664       0.00000881       0.00000643       0.00000098
F        4.69096708       1.21960743       4.69994074       0.00000490      -0.00000705      -0.00000711
F        2.71351205       4.01615102       8.12499370       0.00000046      -0.00000060      -0.00000057
F        2.71351231       4.01615012       4.69994072      -0.00000553       0.00000688      -0.00000742
F        4.69096729       1.21960681       8.12499321       0.00000161      -0.00000245       0.00000286
