9
Lattice="6.815734703639224 -8.517459874160962e-08 3.9350660830853257 2.2719115333322075 6.425936274967727 3.9350660038344034 4.4805462713695375e-08 -6.537989621566103e-08 7.870132088565272" Properties=species:S:1:pos:R:3:forces:R:3 energy=-21.716407775878906 free_energy=-21.716407775878906 stress="1.7725207726471126e-05 6.484453418664771e-09 1.3940664178591078e-09 6.484453418664771e-09 1.771269307937473e-05 -5.17902787322555e-09 1.3940664178591078e-09 -5.17902787322555e-09 1.7707330698613077e-05" pbc="T T T"
Tl       2.27191179       1.60648403       3.93506588       0.00000031       0.00000068      -0.00000000
Tl       6.81573471       4.81945221      11.80519799      -0.00000007      -0.00000066      -0.00000015
P        0.00000020       0.00000022      -0.00000003      -0.00000016      -0.00000003       0.00000011
I        2.27318823       1.60738675       7.87013209       0.00023317       0.00016549       0.00000001
I        6.81445770       4.81854910       7.87013216      -0.00023320      -0.00016527      -0.00000007
I        5.67914077       1.60738677       5.90370474      -0.00011647       0.00016568       0.00020238
I        3.40850571       4.81854936       9.83655951       0.00011646      -0.00016548      -0.00020244
I        3.40850550       4.81854910       5.90370465       0.00011680      -0.00016539       0.00020260
I        5.67914047       1.60738688       9.83655970      -0.00011678       0.00016497      -0.00020243
