9
Lattice="6.097212737054997 -2.275713338108038e-08 3.5202273829064383 2.0324042246931238 5.748507242090703 3.520227382103179 5.616926192296403e-11 -9.440654046437459e-10 7.040454765715582" Properties=species:S:1:pos:R:3:forces:R:3 energy=-27.43584442138672 free_energy=-27.43584442138672 stress="-0.0003380492562428117 -1.3702623924416457e-08 4.94184382304752e-09 -1.3702623924416457e-08 -0.00033806744613684714 -5.474295683427499e-09 4.94184382304752e-09 -5.474295683427499e-09 -0.00033805303974077106" pbc="T T T"
Tl       2.03240423       1.43712680       3.52022740       0.00000011       0.00000037       0.00000016
Tl       6.09721273       4.31138042      10.56068215       0.00000013       0.00000013       0.00000017
Pd      -0.00000015      -0.00000003       0.00000002       0.00000443       0.00000303      -0.00000377
Cl       1.92559672       1.36160239       7.04045476      -0.00622176      -0.00439863       0.00000003
Cl       6.20402041       4.38690485       7.04045477       0.00621672       0.00439553      -0.00000044
Cl       5.13441437       1.36160240       5.18784299       0.00311045      -0.00439790      -0.00538644
Cl       2.99520258       4.38690479       8.89306654      -0.00311105       0.00439894       0.00538817
Cl       2.99520257       4.38690479       5.18784296      -0.00311004       0.00439790      -0.00538623
Cl       5.13441436       1.36160241       8.89306655       0.00311084      -0.00439933       0.00538827
