9
Lattice="5.498059318639079 4.9829923635064926e-08 3.174305970724799 1.8326864693113163 5.183620309354844 3.174306000542197 -1.5734244058961102e-07 -7.473910179469075e-08 6.348612213974615" Properties=species:S:1:pos:R:3:forces:R:3 energy=-41.76237869262695 free_energy=-41.76237869262695 stress="3.64022416761145e-05 -1.9848219068308026e-08 -8.577961452260752e-09 -1.9848219068308026e-08 3.645660763140768e-05 1.1406719124806841e-08 -8.577961452260752e-09 1.1406719124806841e-08 3.645694596343674e-05" pbc="T T T"
Tl       1.83268691       1.29590517       3.17430588      -0.00000115      -0.00000002      -0.00000004
Tl       5.49805888       3.88771504       9.52291830       0.00000076       0.00000006      -0.00000057
Ru      -0.00000017      -0.00000020      -0.00000032       0.00000048       0.00000038       0.00000396
F        1.60202067       1.13280012       6.34861235       0.00076200       0.00053772      -0.00000088
F        5.72872442       4.05082023       6.34861212      -0.00076059      -0.00053753      -0.00000069
F        4.69704892       1.13280026       4.56169677      -0.00037963       0.00053512       0.00065608
F        2.63369682       4.05082041       8.13552738       0.00037917      -0.00053667      -0.00065750
F        2.63369715       4.05082030       4.56169667       0.00037967      -0.00053659       0.00065789
F        4.69704886       1.13279977       8.13552743      -0.00038070       0.00053757      -0.00065848
