9
Lattice="5.452314270186865 -8.592434307510659e-08 3.1478950175227793 1.8174380480067276 5.140490885168967 3.1478949500513336 3.2125772977019165e-08 -5.991888438928582e-08 6.2957899794021435" Properties=species:S:1:pos:R:3:forces:R:3 energy=-46.236698150634766 free_energy=-46.236698150634766 stress="-4.568645454128273e-05 -6.585275258430556e-08 -6.917056261102061e-09 -6.585275258430556e-08 -4.5662640332011506e-05 -7.770404764073646e-09 -6.917056261102061e-09 -7.770404764073646e-09 -4.5592940296046436e-05" pbc="T T T"
Tl       1.81743773       1.28512281       3.14789487       0.00000071      -0.00000017       0.00000019
Tl       5.45231469       3.85536806       9.44368557      -0.00000085      -0.00000041      -0.00000078
Re       0.00000016      -0.00000016      -0.00000012      -0.00000273       0.00000072      -0.00001365
F        1.61541821       1.14227324       6.29578991      -0.00037047      -0.00026213       0.00000016
F        5.65433394       3.99821756       6.29578993       0.00037259       0.00026314       0.00000035
F        4.64460518       1.14227341       4.54688843       0.00018672      -0.00026380      -0.00032337
F        2.62514714       3.99821744       8.04469145      -0.00019014       0.00026876       0.00032969
F        2.62514733       3.99821749       4.54688838      -0.00018620       0.00026342      -0.00032285
F        4.64460507       1.14227307       8.04469137       0.00019048      -0.00026941       0.00033033
