9
Lattice="6.75002258240956 -2.547582603935168e-07 3.8971275049344616 2.250007331313414 6.363982180762857 3.897127428668705 9.784581829117519e-08 -2.4218808836748963e-08 7.794254840395054" Properties=species:S:1:pos:R:3:forces:R:3 energy=-24.969741821289062 free_energy=-24.969741821289062 stress="-9.418923582416028e-06 -1.814622407891875e-08 8.341588753069118e-09 -1.814622407891875e-08 -9.389920705871191e-06 -4.853472290733407e-09 8.341588753069118e-09 -4.853472290733407e-09 -9.379044058732688e-06" pbc="T T T"
Tl       2.25000752       1.59099592       3.89712799      -0.00000019      -0.00000015       0.00000016
Tl       6.75002242       4.77298609      11.69138184       0.00000026      -0.00000000       0.00000017
Rh      -0.00000028      -0.00000018       0.00000215       0.00000269       0.00000189      -0.00002403
I        2.19710490       1.55358847       7.79425510       0.00069368       0.00048991      -0.00000045
I        6.80292532       4.81039335       7.79425509      -0.00069560      -0.00049143      -0.00000007
I        5.65147058       1.55358767       5.79987647      -0.00035037       0.00049417       0.00060565
I        3.34856039       4.81039319       9.78863209       0.00034252      -0.00048412      -0.00059386
I        3.34856006       4.81039446       5.79987632       0.00034957      -0.00049402       0.00060450
I        5.65146916       1.55358870       9.78863210      -0.00034250       0.00048378      -0.00059202
