9
Lattice="6.16876601893311 2.057529360969833e-09 3.561538561744155 2.0562552914345145 5.815968425789756 3.56153864860595 -2.8635798754140582e-08 8.613499738584816e-08 7.123077173086949" Properties=species:S:1:pos:R:3:forces:R:3 energy=-30.484176635742188 free_energy=-30.484176635742188 stress="1.238463846675586e-05 -3.6746385934094405e-09 -1.1307456304621155e-08 -3.6746385934094405e-09 1.2419373888405971e-05 1.4862806985149746e-08 -1.1307456304621155e-08 1.4862806985149746e-08 1.2391034033498727e-05" pbc="T T T"
Tl       2.05625517       1.45399222       3.56153851      -0.00000002      -0.00000002      -0.00000005
Tl       6.16876594       4.36197636      10.68461589       0.00000004       0.00000008       0.00000007
Rh      -0.00000034       0.00000019      -0.00000095       0.00000593      -0.00000269       0.00001820
Cl       1.92331883       1.35999256       7.12307697       0.00103143       0.00072798       0.00000020
Cl       6.30170249       4.45597591       7.12307691      -0.00103390      -0.00072947       0.00000028
Cl       5.20710650       1.35999261       5.22718199      -0.00051387       0.00072505       0.00088945
Cl       3.01791472       4.45597612       9.01897321       0.00051709      -0.00073043      -0.00089686
Cl       3.01791500       4.45597611       5.22718170       0.00051342      -0.00072449       0.00088926
Cl       5.20710677       1.35999194       9.01897345      -0.00052026       0.00073397      -0.00090075
