9
Lattice="6.448126749128535 -1.0269612159080562e-07 3.7228276557866113 2.1493754039008133 6.079352232491561 3.722827798367654 -1.6418562886910232e-07 5.852860754581815e-08 7.445655595951003" Properties=species:S:1:pos:R:3:forces:R:3 energy=-32.310546875 free_energy=-32.310546875 stress="-7.817120786057785e-05 -3.206303134106747e-08 -1.888060729982044e-08 -3.206303134106747e-08 -7.813703996362165e-05 2.4958799471619386e-08 -1.888060729982044e-08 2.4958799471619386e-08 -7.811550312908366e-05" pbc="T T T"
Tl       2.14937549       1.51983811       3.72282777      -0.00000003      -0.00000010       0.00000007
Tl       6.44812652       4.55951411      11.16848345      -0.00000013       0.00000004      -0.00000010
Re       0.00000056      -0.00000039      -0.00000002      -0.00000639       0.00000544      -0.00000432
Br       2.06046364       1.45696790       7.44565540       0.00276967       0.00195858       0.00000041
Br       6.53703793       4.62238418       7.44565545      -0.00276748      -0.00195684      -0.00000012
Br       5.41789419       1.45696844       5.50724259      -0.00138103       0.00195304       0.00239135
Br       3.17960765       4.62238391       9.38406868       0.00138219      -0.00195532      -0.00239418
Br       3.17960746       4.62238425       5.50724193       0.00138507      -0.00195881       0.00239896
Br       5.41789445       1.45696822       9.38406895      -0.00138184       0.00195393      -0.00239217
