9
Lattice="6.7218931121079235 2.8543010216372907e-07 3.88088691287598 2.2406311930348206 6.337462062178372 3.880887109360988 -4.541785677493264e-08 2.0852861465560967e-07 7.761773904418075" Properties=species:S:1:pos:R:3:forces:R:3 energy=-25.763347625732422 free_energy=-25.763347625732422 stress="-3.5655248211696744e-05 1.946684236031615e-08 -5.507559297512898e-09 1.946684236031615e-08 -3.566980376490392e-05 1.8309341598410356e-08 -5.507559297512898e-09 1.8309341598410356e-08 -3.567303792806342e-05" pbc="T T T"
Tl       2.24063117       1.58436569       3.88088669       0.00000023       0.00000001      -0.00000027
Tl       6.72189302       4.75309702      11.64266111      -0.00000035       0.00000012       0.00000011
Ru      -0.00000089      -0.00000042      -0.00000096       0.00000812       0.00000479       0.00000871
I        2.21073193       1.56322384       7.76177417       0.00614844       0.00434847       0.00000091
I        6.75179359       4.77423948       7.76177390      -0.00615893      -0.00435569       0.00000047
I        5.61652725       1.56322303       5.79543692      -0.00307505       0.00435077       0.00532812
I        3.34599639       4.77423994       9.72811130       0.00307981      -0.00435459      -0.00533245
I        3.34599708       4.77423892       5.79543646       0.00307753      -0.00435101       0.00532918
I        5.61652750       1.56322279       9.72811217      -0.00307985       0.00435707      -0.00533484
