9
Lattice="5.381790853243255 8.557782116383172e-09 3.1071782230572493 1.7939302689370296 5.074001043954604 3.1071782638395176 -6.152577476112139e-08 6.442631485081343e-09 6.214356552680272" Properties=species:S:1:pos:R:3:forces:R:3 energy=-39.045570373535156 free_energy=-39.045570373535156 stress="-7.559209279861534e-06 3.432487716281685e-08 1.9028144393473667e-08 3.432487716281685e-08 -7.618985364388209e-06 -4.152075661068011e-08 1.9028144393473667e-08 -4.152075661068011e-08 -7.61194769438589e-06" pbc="T T T"
Tl       1.79393011       1.26850048       3.10717760      -0.00000064      -0.00000004       0.00000009
Tl       5.38179086       3.80550097       9.32153522       0.00000014       0.00000116      -0.00000037
Rh      -0.00000021       0.00000007       0.00000023       0.00000949      -0.00000272       0.00000528
F        1.60211835       1.13286839       6.21435594       0.00021736       0.00015482       0.00000115
F        5.57360292       3.94113265       6.21435588      -0.00022231      -0.00015776       0.00000136
F        4.58073177       1.13286827       4.49465315      -0.00011209       0.00015946       0.00019367
F        2.59498915       3.94113264       7.93406045       0.00011208      -0.00015967      -0.00019495
F        2.59498947       3.94113252       4.49465347       0.00010864      -0.00015482       0.00018878
F        4.58073181       1.13286823       7.93406025      -0.00011264       0.00015958      -0.00019483
