9
Lattice="6.898186338583257 6.18192778988267e-08 3.9826697210225563 2.299395571740318 6.503672409869508 3.982669604521275 4.878308390241083e-08 -1.0818955283800475e-07 7.965339357550324" Properties=species:S:1:pos:R:3:forces:R:3 energy=-28.805511474609375 free_energy=-28.805511474609375 stress="-7.132297469070181e-05 1.9375837823076836e-08 2.4320382152609454e-08 1.9375837823076836e-08 -7.131905294954777e-05 -1.9288799890659902e-08 2.4320382152609454e-08 -1.9288799890659902e-08 -7.134048064472154e-05" pbc="T T T"
Tl       2.29939591       1.62591852       3.98266883      -0.00000028       0.00000011      -0.00000012
Tl       6.89818622       4.87775382      11.94801009       0.00000038      -0.00000024       0.00000025
Re      -0.00000052      -0.00000032      -0.00000134       0.00000354       0.00000296       0.00001168
I        2.23275469       1.57879621       7.96533942       0.00184922       0.00130720      -0.00000058
I        6.96482757       4.92487644       7.96533920      -0.00185259      -0.00130959       0.00000031
I        5.78180910       1.57879622       5.91629215      -0.00092604       0.00130820       0.00160261
I        3.41577252       4.92487665      10.01438708       0.00092893      -0.00131334      -0.00160885
I        3.41577281       4.92487631       5.91629197       0.00092394      -0.00130652       0.00160029
I        5.78180954       1.57879563      10.01438729      -0.00092718       0.00131126      -0.00160562
