9
Lattice="6.169101479432711 2.480474008957916e-07 3.5617323719789016 2.056367356003336 5.816284914460916 3.5617324372234465 1.0541923840078748e-07 1.5445053983342873e-07 7.123464561366334" Properties=species:S:1:pos:R:3:forces:R:3 energy=-32.280548095703125 free_energy=-32.280548095703125 stress="8.575739229854662e-06 7.890533026966295e-08 -1.422516948679231e-08 7.890533026966295e-08 8.542087016394362e-06 1.8558971248694434e-08 -1.422516948679231e-08 1.8558971248694434e-08 8.466126928396989e-06" pbc="T T T"
Tl       2.05636734       1.45407154       3.56173239       0.00000001       0.00000024      -0.00000011
Tl       6.16910168       4.36221378      10.68519692       0.00000015       0.00000009      -0.00000014
Ru       0.00000011       0.00000058      -0.00000056      -0.00000349      -0.00000850       0.00001613
Cl       1.92354353       1.36015086       7.12346454       0.00104520       0.00073908       0.00000116
Cl       6.30192557       4.45613437       7.12346470      -0.00104040      -0.00073530       0.00000077
Cl       5.20732995       1.36015083       5.22756935      -0.00052239       0.00073874       0.00090557
Cl       3.01813863       4.45613488       9.01936036       0.00052685      -0.00074446      -0.00091296
Cl       3.01813878       4.45613437       5.22756943       0.00052242      -0.00073777       0.00090539
Cl       5.20733018       1.36015018       9.01936017      -0.00052838       0.00074768      -0.00091588
