9
Lattice="6.157730663896585 4.885311261370746e-07 3.5551671676538326 2.052577287273217 5.805564205156863 3.555167273800662 -5.5452591563235894e-08 9.07918674967678e-08 7.11033443135442" Properties=species:S:1:pos:R:3:forces:R:3 energy=-35.91523361206055 free_energy=-35.91523361206055 stress="-3.61262536898721e-05 1.8644122690147924e-07 1.3287125177896542e-08 1.8644122690147924e-07 -3.6231438571121544e-05 -9.63024415767677e-09 1.3287125177896542e-08 -9.63024415767677e-09 -3.635313987615518e-05" pbc="T T T"
Tl       2.05257709       1.45139115       3.55516739      -0.00000005       0.00000002      -0.00000009
Tl       6.15773088       4.35417365      10.66550148       0.00000025       0.00000002       0.00000007
Re       0.00000191       0.00000045      -0.00000022      -0.00003454      -0.00001237      -0.00000119
Cl       1.94167267       1.37297014       7.11033436       0.00395268       0.00279412      -0.00000024
Cl       6.26863388       4.43259375       7.11033441      -0.00392422      -0.00277528      -0.00000002
Cl       5.18689514       1.37296909       5.23670367      -0.00197835       0.00279775       0.00342566
Cl       3.02341239       4.43259596       8.98396528       0.00198032      -0.00279990      -0.00342840
Cl       3.02341248       4.43259579       5.23670385       0.00198042      -0.00280002       0.00342792
Cl       5.18689501       1.37296929       8.98396505      -0.00197639       0.00279567      -0.00342354
