9
Lattice="6.3776438031284135 -1.6241761278661482e-08 3.682134493171864 2.125881234073572 6.012900300884108 3.682134524908156 -9.912246971926864e-09 3.185996636116134e-08 7.364269003511911" Properties=species:S:1:pos:R:3:forces:R:3 energy=-27.665395736694336 free_energy=-27.665395736694336 stress="-2.8229398594703525e-05 -3.1969985769819687e-08 4.510471107721514e-09 -3.1969985769819687e-08 -2.8202020985190757e-05 8.28619750592452e-09 4.510471107721514e-09 8.28619750592452e-09 -2.8184624170535244e-05" pbc="T T T"
Tl       2.12588099       1.50322500       3.68213431      -0.00000002      -0.00000021      -0.00000008
Tl       6.37764388       4.50967525      11.04640367      -0.00000009       0.00000013       0.00000002
Rh       0.00000008       0.00000008       0.00000018       0.00000192       0.00000059       0.00000156
Br       2.04099583       1.44320180       7.36426907       0.00042294       0.00029988      -0.00000062
Br       6.46252959       4.56969849       7.36426893      -0.00042593      -0.00030072       0.00000036
Br       5.35714549       1.44320245       5.44968893      -0.00020942       0.00029626       0.00036382
Br       3.14637931       4.56969799       9.27884915       0.00021064      -0.00029716      -0.00036526
Br       3.14637942       4.56969800       5.44968886       0.00020993      -0.00029710       0.00036544
Br       5.35714549       1.44320223       9.27884905      -0.00020998       0.00029832      -0.00036517
