9
Lattice="7.0259197183343725 9.306084874796865e-08 4.0564163573385414 2.3419732899748733 6.624100549284309 4.05641642178567 -8.330779899968908e-08 2.002386216235146e-08 8.112832858970451" Properties=species:S:1:pos:R:3:forces:R:3 energy=-22.096508026123047 free_energy=-22.096508026123047 stress="-4.1559786041034386e-05 2.933066012289487e-09 2.073240912281449e-09 2.933066012289487e-09 -4.1569055611034855e-05 -8.397469386522971e-10 2.073240912281449e-09 -8.397469386522971e-10 -4.158246156293899e-05" pbc="T T T"
Tl       2.34197358       1.65602459       4.05641682       0.00000018      -0.00000023      -0.00000094
Tl       7.02591945       4.96807598      12.16924895      -0.00000016       0.00000017       0.00000079
Sn       0.00000022       0.00000022      -0.00000028      -0.00000107      -0.00000081       0.00000024
I        2.42499083       1.71472630       8.11283262      -0.00228725      -0.00161756      -0.00000081
I        6.94290170       4.90937388       8.11283286       0.00228855       0.00161850       0.00000030
I        5.81342463       1.71472695       6.15651951       0.00114441      -0.00161666      -0.00198172
I        3.55446833       4.90937397      10.06914636      -0.00114484       0.00161684       0.00198197
I        3.55446884       4.90937382       6.15651944      -0.00114363       0.00161772      -0.00197993
I        5.81342413       1.71472689      10.06914621       0.00114380      -0.00161803       0.00198014
