9
Lattice="6.3324882491338705 -2.9818015232260135e-07 3.6560632989206145 2.110829036890725 5.9703276216112044 3.656063469285618 -1.2480044108233241e-07 1.2040634084261066e-07 7.312126814002285" Properties=species:S:1:pos:R:3:forces:R:3 energy=-30.491436004638672 free_energy=-30.491436004638672 stress="-6.064321041776566e-06 -7.890699293966463e-08 4.300641620602619e-08 -7.890699293966463e-08 -6.013749043631833e-06 4.515029772278467e-08 4.300641620602619e-08 4.515029772278467e-08 -6.181605385791045e-06" pbc="T T T"
Tl       2.11082878       1.49258116       3.65606284       0.00000017      -0.00000012       0.00000015
Tl       6.33248823       4.47774590      10.96818967       0.00000001       0.00000008       0.00000001
Si      -0.00000075      -0.00000027      -0.00000179       0.00001875       0.00001077       0.00004867
Cl       1.81350886       1.28234417       7.31212687       0.00035209       0.00025024      -0.00000032
Cl       6.62980967       4.68798394       7.31212596      -0.00037522      -0.00026505       0.00000499
Cl       5.42573293       1.28234543       5.22660772      -0.00016900       0.00023873       0.00030309
Cl       3.01758339       4.68798298       9.39764767       0.00018748      -0.00026008      -0.00033043
Cl       3.01758451       4.68798292       5.22660771       0.00016898      -0.00024026       0.00030519
Cl       5.42573330       1.28234367       9.39764814      -0.00018319       0.00026558      -0.00033179
