9
Lattice="5.294791141015789 -1.599909281405767e-07 3.0569489795594738 1.7649302566645826 4.991976984369379 3.0569489325049495 -1.2730758831007074e-07 -1.4764976617582363e-07 6.113898179622065" Properties=species:S:1:pos:R:3:forces:R:3 energy=-45.2115364074707 free_energy=-45.2115364074707 stress="-5.612848326563835e-05 -4.726518909592414e-08 2.0268415834578946e-09 -4.726518909592414e-08 -5.6115408369805664e-05 -8.66208171856897e-09 2.0268415834578946e-09 -8.66208171856897e-09 -5.630550003843382e-05" pbc="T T T"
Tl       1.76493034       1.24799393       3.05694849       0.00000025       0.00000053       0.00000033
Tl       5.29479108       3.74398298       9.17084804      -0.00000002      -0.00000007      -0.00000110
Si       0.00000035       0.00000000      -0.00000053      -0.00000885      -0.00000628       0.00001684
F        1.40583689       0.99407637       6.11389784      -0.00276095      -0.00195166       0.00000072
F        5.65388466       3.99790075       6.11389744       0.00275940       0.00194779       0.00000193
F        4.59187260       0.99407621       4.27443897       0.00138533      -0.00195163      -0.00238723
F        2.46784839       3.99790007       7.95335738      -0.00137737       0.00195190       0.00238287
F        2.46784867       3.99790012       4.27443928      -0.00138199       0.00195774      -0.00239438
F        4.59187215       0.99407643       7.95335751       0.00138423      -0.00194865       0.00238031
