9
Lattice="6.684283376711033 1.363616858408751e-07 3.8591725903769944 2.228094608156816 6.30200292466142 3.859172554540448 1.922710001219548e-08 -3.0294581489692216e-08 7.7183451474512665" Properties=species:S:1:pos:R:3:forces:R:3 energy=-19.11404800415039 free_energy=-19.11404800415039 stress="4.9240807129535824e-05 -5.77942094182049e-09 1.8605219587186639e-09 -5.77942094182049e-09 4.924301174469292e-05 3.97486710213002e-09 1.8605219587186639e-09 3.97486710213002e-09 4.9225844122702256e-05" pbc="T T T"
Tl       2.22809487       1.57550027       3.85917221       0.00000018       0.00000003       0.00000004
Tl       6.68428319       4.72650286      11.57751836       0.00000015      -0.00000002      -0.00000010
S        0.00000012      -0.00000072       0.00000012       0.00000027      -0.00000107      -0.00000052
I        2.34622165       1.65902840       7.71834514       0.00233704       0.00165246       0.00000004
I        6.56615618       4.64297492       7.71834480      -0.00233664      -0.00165208       0.00000020
I        5.51117324       1.65902943       5.89105917      -0.00116843       0.00165226       0.00202414
I        3.40120485       4.64297401       9.54563110       0.00116799      -0.00165173      -0.00202322
I        3.40120491       4.64297327       5.89105904       0.00116802      -0.00165197       0.00202376
I        5.51117301       1.65902972       9.54563127      -0.00116858       0.00165214      -0.00202437
