9
Lattice="6.554014279111943 2.3430841243411296e-07 3.783961772125409 2.184671626354091 6.1791839436199725 3.783961808368044 4.686933085084733e-08 7.752961329746452e-08 7.567923463070742" Properties=species:S:1:pos:R:3:forces:R:3 energy=-25.607608795166016 free_energy=-25.607608795166016 stress="5.8042671298608184e-05 3.663668834974487e-08 -1.3233514728483442e-08 3.663668834974487e-08 5.8027209888678044e-05 1.6471904729087328e-08 -1.3233514728483442e-08 1.6471904729087328e-08 5.798834536108188e-05" pbc="T T T"
Tl       2.18467168       1.54479635       3.78396185      -0.00000016      -0.00000016      -0.00000001
Tl       6.55401426       4.63438813      11.35188513      -0.00000006      -0.00000001      -0.00000004
Sn       0.00000089       0.00000032      -0.00000074      -0.00000945      -0.00000608       0.00001122
Br       2.17131232       1.53534963       7.56792325      -0.00162519      -0.00114930       0.00000076
Br       6.56737245       4.64383367       7.56792314       0.00163672       0.00115741       0.00000126
Br       5.46835843       1.53534998       5.66437299       0.00081513      -0.00115461      -0.00141236
Br       3.27032727       4.64383518       9.47147497      -0.00081195       0.00114748       0.00140571
Br       3.27032753       4.64383497       5.66437239      -0.00081535       0.00115190      -0.00141039
Br       5.46835904       1.53534883       9.47147518       0.00081037      -0.00114666       0.00140385
