9
Lattice="6.864821618302093 -1.3853376892397156e-08 3.9634066023912413 2.28827389253809 6.472215813388904 3.96340654552518 3.93859700036513e-08 -4.179644537498893e-08 7.926813136563969" Properties=species:S:1:pos:R:3:forces:R:3 energy=-19.42278289794922 free_energy=-19.42278289794922 stress="1.5737718058517203e-05 -1.0285484464134242e-08 -1.5010448439767288e-09 -1.0285484464134242e-08 1.574083034938667e-05 -2.586642289248431e-10 -1.5010448439767288e-09 -2.586642289248431e-10 1.57501817739103e-05" pbc="T T T"
Tl       2.28827400       1.61805377       3.96340709       0.00000000      -0.00000002      -0.00000023
Tl       6.86482149       4.85416183      11.89021916      -0.00000007      -0.00000012       0.00000025
Se       0.00000018       0.00000016      -0.00000026       0.00000021      -0.00000021       0.00000060
I        2.36559824       1.67273032       7.92681318      -0.00042349      -0.00029945      -0.00000011
I        6.78749734       4.79948535       7.92681293       0.00042375       0.00029987      -0.00000007
I        5.68202200       1.67273091       6.01207552       0.00021192      -0.00030002      -0.00036749
I        3.47107333       4.79948511       9.84155105      -0.00021202       0.00029984       0.00036714
I        3.47107329       4.79948469       6.01207536      -0.00021242       0.00029990      -0.00036743
I        5.68202236       1.67273082       9.84155109       0.00021210      -0.00029974       0.00036731
