9
Lattice="6.233926121294643 -1.4972334855887627e-07 3.5991588992795607 2.0779752068498643 5.8774020843515675 3.599158943887832 -7.278362509267462e-08 3.1677908365185067e-09 7.198317924623958" Properties=species:S:1:pos:R:3:forces:R:3 energy=-25.29029655456543 free_energy=-25.29029655456543 stress="-3.62284918082878e-05 -2.739723647948722e-08 -3.0539748507862896e-09 -2.739723647948722e-08 -3.6200850445311517e-05 1.4612472121200426e-08 -3.0539748507862896e-09 1.4612472121200426e-08 -3.620741699705832e-05" pbc="T T T"
Tl       2.07797527       1.46935033       3.59915895      -0.00000026       0.00000028       0.00000005
Tl       6.23392594       4.40805149      10.79747692       0.00000040       0.00000013       0.00000009
Se       0.00000146       0.00000017      -0.00000013      -0.00001941      -0.00000144      -0.00000066
Cl       1.98515977       1.40371996       7.19831778       0.00501208       0.00354330       0.00000006
Cl       6.32674099       4.47368147       7.19831759      -0.00500276      -0.00353774       0.00000064
Cl       5.24134543       1.40372089       5.31835860      -0.00249928       0.00353595       0.00433211
Cl       3.07055536       4.47368149       9.07827761       0.00250411      -0.00353866      -0.00433519
Cl       3.07055530       4.47368145       5.31835808       0.00250484      -0.00353993       0.00433666
Cl       5.24134553       1.40372046       9.07827763      -0.00249974       0.00353806      -0.00433379
