9
Lattice="6.382897958044171 1.8393099507315302e-08 3.6851674291623375 2.127632589577065 6.017853681929127 3.685167568497961 -2.1329471088056297e-07 1.982854485517784e-08 7.370335227762074" Properties=species:S:1:pos:R:3:forces:R:3 energy=-21.755922317504883 free_energy=-21.755922317504883 stress="0.00011125471792183816 4.212321602636848e-09 -3.2300708774357645e-09 4.212321602636848e-09 0.00011126569734187797 6.086930515181166e-09 -3.2300708774357645e-09 6.086930515181166e-09 0.00011125551100121811" pbc="T T T"
Tl       2.12763286       1.50446337       3.68516754      -0.00000010       0.00000001       0.00000011
Tl       6.38289746       4.51339057      11.05550254       0.00000002       0.00000006      -0.00000031
S       -0.00000011      -0.00000099       0.00000160       0.00000019       0.00000148      -0.00000300
Br       2.09699022       1.48279680       7.37033467      -0.00598968      -0.00423709       0.00000126
Br       6.41353974       4.53505752       7.37033472       0.00599037       0.00423618       0.00000153
Br       5.33440192       1.48279726       5.50121438       0.00299649      -0.00423863      -0.00518851
Br       3.17612657       4.53505769       9.23945569      -0.00299410       0.00423556       0.00518891
Br       3.17612878       4.53505712       5.50121423      -0.00299648       0.00423706      -0.00518782
Br       5.33440382       1.48279562       9.23945541       0.00299319      -0.00423462       0.00518785
