9
Lattice="5.175827082201484 -5.432280246950972e-09 2.9882651900665422 1.7252756703762853 4.879816500994213 2.9882652222293817 -2.5563646176245652e-08 2.1315053804112378e-08 5.97653042441061" Properties=species:S:1:pos:R:3:forces:R:3 energy=-34.98728942871094 free_energy=-34.98728942871094 stress="0.00011470381286926568 -1.8533285128796706e-08 -2.06690788928654e-08 -1.8533285128796706e-08 0.00011470870231278241 1.7801530916017327e-08 -2.06690788928654e-08 1.7801530916017327e-08 0.00011464070848887786" pbc="T T T"
Tl       1.72527579       1.21995417       2.98826514      -0.00000005      -0.00000037       0.00000061
Tl       5.17582683       3.65986235       8.96479616      -0.00000001       0.00000018      -0.00000077
S       -0.00000011      -0.00000015      -0.00000006       0.00000327       0.00000393      -0.00000238
F        1.52615885       1.07915731       5.97653049      -0.00160539      -0.00113653       0.00000107
F        5.37494386       3.80065942       5.97653024       0.00160626       0.00113462       0.00000158
F        4.41274771       1.07915736       4.30995781       0.00080299      -0.00113852      -0.00139356
F        2.48835553       3.80065894       7.64310292      -0.00080576       0.00113706       0.00139329
F        2.48835521       3.80065920       4.30995771      -0.00080394       0.00113601      -0.00139122
F        4.41274735       1.07915748       7.64310299       0.00080279      -0.00113636       0.00139143
