9
Lattice="6.45439176384646 -2.2549488671642402e-07 3.7264445540212456 2.1514637600315925 6.085258412051686 3.7264444650834787 2.1606503753076595e-08 -9.364773091511799e-08 7.452889070618871" Properties=species:S:1:pos:R:3:forces:R:3 energy=-26.473188400268555 free_energy=-26.473188400268555 stress="-9.178552136290818e-05 -1.0715830889296285e-08 -9.44599287677761e-10 -1.0715830889296285e-08 -9.182048233924434e-05 1.2576854002688265e-09 -9.44599287677761e-10 1.2576854002688265e-09 -9.185546514345333e-05" pbc="T T T"
Tl       2.15146341       1.52131449       3.72644464       0.00000038       0.00000001       0.00000020
Tl       6.45439187       4.56394358      11.17933362      -0.00000040       0.00000016      -0.00000009
Si       0.00000032       0.00000035       0.00000073      -0.00000296      -0.00000271      -0.00000520
Br       1.99934034       1.41374643       7.45288918       0.00667866       0.00472422      -0.00000046
Br       6.60651513       4.67151129       7.45288925      -0.00667469      -0.00472077      -0.00000050
Br       5.45472132       1.41374658       5.45792284      -0.00333878       0.00472312       0.00578651
Br       3.15113411       4.67151139       9.44785495       0.00333673      -0.00472096      -0.00578366
Br       3.15113409       4.67151154       5.45792235       0.00333903      -0.00472424       0.00578754
Br       5.45472167       1.41374646       9.44785483      -0.00333782       0.00472130      -0.00578459
