9
Lattice="6.334648738002915 -6.783892033661418e-08 3.6573112854155223 2.111549492757556 5.972363813889913 3.657311324590365 3.727001849718069e-08 7.433309250408177e-08 7.314622506277437" Properties=species:S:1:pos:R:3:forces:R:3 energy=-29.05284309387207 free_energy=-29.05284309387207 stress="0.00018857402028515935 -9.420199065246493e-10 -1.8366089094001836e-08 -9.420199065246493e-10 0.00018855738744605333 1.6091830090658732e-08 -1.8366089094001836e-08 1.6091830090658732e-08 0.0001885978999780491" pbc="T T T"
Tl       2.11154970       1.49309110       3.65731125      -0.00000011      -0.00000037       0.00000025
Tl       6.33464866       4.47927291      10.97193376       0.00000005       0.00000046       0.00000015
Sn       0.00000077       0.00000024       0.00000237      -0.00001428      -0.00000040      -0.00003596
Cl       2.01974222       1.42817310       7.31462262      -0.00289191      -0.00204414      -0.00000067
Cl       6.42645487       4.54418944       7.31462266       0.00290494       0.00205420      -0.00000101
Cl       5.32477772       1.42817325       5.40645988       0.00144481      -0.00204454      -0.00250532
Cl       3.12142151       4.54418973       9.22278447      -0.00145582       0.00205654       0.00251910
Cl       3.12142055       4.54419119       5.40645920      -0.00144262       0.00203777      -0.00249863
Cl       5.32477712       1.42817429       9.22278428       0.00145493      -0.00205952       0.00252196
