9
Lattice="6.60031267944986 -1.3204283936386324e-07 3.810692373883717 2.200104225498158 6.222834043258496 3.810692159964829 1.414570893533645e-07 -1.6197071340065112e-07 7.621384502756542" Properties=species:S:1:pos:R:3:forces:R:3 energy=-22.159765243530273 free_energy=-22.159765243530273 stress="6.560982001246884e-05 -7.526651302214304e-09 -9.84546999482916e-10 -7.526651302214304e-09 6.560207839356735e-05 -7.780601940510223e-09 -9.84546999482916e-10 -7.780601940510223e-09 6.560594192706048e-05" pbc="T T T"
Tl       2.20010380       1.55570824       3.81069175      -0.00000015      -0.00000011       0.00000048
Tl       6.60031274       4.66712508      11.43207736      -0.00000042       0.00000007      -0.00000022
Se       0.00000117      -0.00000094       0.00000082      -0.00000579       0.00000431      -0.00000443
Br       2.13906343       1.51254586       7.62138407      -0.00111277      -0.00078672       0.00000071
Br       6.66135317       4.71028770       7.62138452       0.00111547       0.00078789       0.00000008
Br       5.53078039       1.51254655       5.66317622       0.00055841      -0.00078889      -0.00096571
Br       3.26963660       4.71028797       9.57959393      -0.00055715       0.00078708       0.00096440
Br       3.26963645       4.71028752       5.66317506      -0.00055662       0.00078712      -0.00096356
Br       5.53078042       1.51254697       9.57959243       0.00055901      -0.00079073       0.00096826
