9
Lattice="5.4293832350256155 1.0595654825468858e-07 3.1346559392575113 1.8097944790866556 5.11887186322398 3.1346559955237696 7.824282972625743e-08 1.2423786070742585e-07 6.2693117429943985" Properties=species:S:1:pos:R:3:forces:R:3 energy=-35.77752685546875 free_energy=-35.77752685546875 stress="1.7853111785370857e-05 -6.58497967265248e-08 1.5047387336153406e-08 -6.58497967265248e-08 1.7891061361297034e-05 -3.994357733461129e-09 1.5047387336153406e-08 -3.994357733461129e-09 1.7926531654666178e-05" pbc="T T T"
Tl       1.80979429       1.27971829       3.13465604      -0.00000014      -0.00000058       0.00000002
Tl       5.42938353       3.83915389       9.40396730      -0.00000020       0.00000029       0.00000082
Se       0.00000002       0.00000002       0.00000021       0.00000317       0.00000425      -0.00000697
F        1.59567524       1.12831316       6.26931195       0.00615442       0.00435132       0.00000022
F        5.64350266       3.99055906       6.26931214      -0.00615680      -0.00435397      -0.00000018
F        4.63154573       1.12831288       4.51655132      -0.00307581       0.00434929       0.00532761
F        2.60763228       3.99055901       8.02207218       0.00307450      -0.00434929      -0.00532526
F        2.60763186       3.99055892       4.51655137       0.00307503      -0.00434840       0.00532630
F        4.63154556       1.12831315       8.02207217      -0.00307414       0.00434697      -0.00532275
