9
Lattice="6.860253460098756 -2.1985726768708348e-07 3.96076943650541 2.2867510483963294 6.467908634215556 3.960769259293202 1.1644865423471034e-07 -1.346980417556276e-07 7.921538671315913" Properties=species:S:1:pos:R:3:forces:R:3 energy=-22.83820343017578 free_energy=-22.83820343017578 stress="-0.00013465012307278812 7.31856530933328e-09 -6.58655041618772e-09 7.31856530933328e-09 -0.0001346507779089734 2.576585333979864e-10 -6.58655041618772e-09 2.576585333979864e-10 -0.0001346507779089734" pbc="T T T"
Tl       2.28675149       1.61697702       3.96076919       0.00000012       0.00000013       0.00000009
Tl       6.86025297       4.85093119      11.88230803      -0.00000028      -0.00000018       0.00000011
Si       0.00000052       0.00000009       0.00000004      -0.00000027      -0.00000023       0.00000006
I        2.21807798       1.56841755       7.92153875       0.00443196       0.00313292      -0.00000005
I        6.92892709       4.89949111       7.92153878      -0.00443259      -0.00313361      -0.00000022
I        5.75121475       1.56841693       5.88168078      -0.00221547       0.00313488       0.00383831
I        3.39578943       4.89949110       9.96139649       0.00221591      -0.00313424      -0.00383758
I        3.39578937       4.89949125       5.88168045       0.00221687      -0.00313487       0.00383853
I        5.75121489       1.56841680       9.96139695      -0.00221629       0.00313520      -0.00383931
