9
Lattice="5.486737255353945 -9.603042470851394e-08 3.167769360916997 1.8289123764825057 5.172945448504593 3.16776927679202 1.4963687703105404e-08 -9.245064322185433e-08 6.335538695916024" Properties=species:S:1:pos:R:3:forces:R:3 energy=-40.07564163208008 free_energy=-40.07564163208008 stress="7.56114095565863e-05 -7.258875456273017e-08 -3.169641971112469e-08 -7.258875456273017e-08 7.574793562525883e-05 1.1889419226918108e-08 -3.169641971112469e-08 1.1889419226918108e-08 7.576755888294429e-05" pbc="T T T"
Tl       1.82891246       1.29323616       3.16776906      -0.00000019      -0.00000000      -0.00000033
Tl       5.48673712       3.87970901       9.50330821      -0.00000007      -0.00000005      -0.00000067
Sn      -0.00000027      -0.00000015       0.00000021       0.00000948       0.00000736      -0.00000268
F        1.63860517       1.15866878       6.33553857      -0.00249150      -0.00176197       0.00000054
F        5.67704464       4.01427638       6.33553844       0.00248176       0.00175673       0.00000025
F        4.66743472       1.15866896       4.58684339       0.00124648      -0.00176352      -0.00216004
F        2.64821506       4.01427644       8.08423434      -0.00124654       0.00176331       0.00215957
F        2.64821487       4.01427657       4.58684302      -0.00124545       0.00176236      -0.00215739
F        4.66743474       1.15866882       8.08423433       0.00124615      -0.00176385       0.00216037
