9
Lattice="6.656424096755783 2.6852886980300074e-07 3.8430880897785036 2.218808240477844 6.275736919600836 3.8430881676264814 -9.220849324588858e-08 3.014270485317091e-08 7.686176339266777" Properties=species:S:1:pos:R:3:forces:R:3 energy=-23.205778121948242 free_energy=-23.205778121948242 stress="-1.5227044059429318e-05 3.7972437638700285e-08 3.6423841720534256e-09 3.7972437638700285e-08 -1.5244974747474771e-05 -4.310962253839534e-09 3.6423841720534256e-09 -4.310962253839534e-09 -1.5273202734533697e-05" pbc="T T T"
Tl       2.21880804       1.56893449       3.84308781       0.00000022      -0.00000008      -0.00000019
Tl       6.65642418       4.70680294      11.52926460       0.00000014       0.00000014      -0.00000023
Te      -0.00000009       0.00000095      -0.00000116      -0.00000110      -0.00000910       0.00000982
Br       2.23779754       1.58236220       7.68617631       0.00259715       0.00183641      -0.00000025
Br       6.63743444       4.69337469       7.68617620      -0.00259346      -0.00183360      -0.00000015
Br       5.53752584       1.58236162       5.78107735      -0.00129975       0.00183810       0.00225084
Br       3.33770643       4.69337544       9.59127568       0.00130049      -0.00183826      -0.00225186
Br       3.33770672       4.69337501       5.78107777       0.00129786      -0.00183471       0.00224656
Br       5.53752588       1.58236156       9.59127587      -0.00130157       0.00184108      -0.00225456
