9
Lattice="6.9849610814322896 -9.127457135757491e-08 4.032769647422687 2.3283203378148305 6.585484429785032 4.032769537624642 1.789042179027693e-07 -7.970167650921632e-09 8.065538984973847" Properties=species:S:1:pos:R:3:forces:R:3 energy=-28.056371688842773 free_energy=-28.056371688842773 stress="-0.00012923593749292195 5.459930729756479e-09 8.66569660473715e-09 5.459930729756479e-09 -0.00012923569011036307 -1.147356876174399e-08 8.66569660473715e-09 -1.147356876174399e-08 -0.0001292391971219331" pbc="T T T"
Tl       2.32831934       1.64637055       4.03276974      -0.00000063      -0.00000012       0.00000043
Tl       6.98496244       4.93911389      12.09830828       0.00000066       0.00000011      -0.00000064
Ti       0.00000087       0.00000028       0.00000111      -0.00000763      -0.00000262      -0.00000729
I        2.25096883       1.59167482       8.06553915       0.00455630       0.00322226      -0.00000051
I        7.06231186       4.99380843       8.06553908      -0.00454909      -0.00321595      -0.00000054
I        5.85947706       1.59167487       5.98216595      -0.00227853       0.00322178       0.00394545
I        3.45380492       4.99380877      10.14891208       0.00227581      -0.00321896      -0.00394317
I        3.45380471       4.99380975       5.98216578       0.00227726      -0.00322227       0.00394576
I        5.85947646       1.59167605      10.14891149      -0.00227424       0.00321574      -0.00393945
