9
Lattice="6.469981691076822 -5.9148802861201815e-08 3.735445700354889 2.1566605123932896 6.099957268254007 3.735445692617772 -2.9328968395819165e-09 -1.1549874191662465e-08 7.470891405789717" Properties=species:S:1:pos:R:3:forces:R:3 energy=-31.895479202270508 free_energy=-31.895479202270508 stress="-0.0002455819339957088 -8.59247284434872e-10 -1.8407786406271498e-09 -8.59247284434872e-10 -0.00024557654978707433 1.8271918422740896e-09 -1.8407786406271498e-09 1.8271918422740896e-09 -0.0002455939829815179" pbc="T T T"
Tl       2.15666056       1.52498928       3.73544568       0.00000019      -0.00000000       0.00000023
Tl       6.46998163       4.57496788      11.20633711      -0.00000019      -0.00000007      -0.00000034
Ti       0.00000007       0.00000013       0.00000012       0.00000054      -0.00000093       0.00000047
Br       2.07337608       1.46609826       7.47089139      -0.00516585      -0.00365251      -0.00000008
Br       6.55326623       4.63385894       7.47089135       0.00516502       0.00365239      -0.00000002
Br       5.43329355       1.46609829       5.53104211       0.00258309      -0.00365278      -0.00447379
Br       3.19334858       4.63385884       9.41074067      -0.00258289       0.00365327       0.00447413
Br       3.19334856       4.63385886       5.53104212      -0.00258283       0.00365311      -0.00447400
Br       5.43329353       1.46609830       9.41074063       0.00258295      -0.00365242       0.00447346
