9
Lattice="6.37963769762542 1.7625519723231693e-07 3.683285331099173 2.1265460142485852 6.014779949541829 3.68328541966724 -1.1982386872249258e-07 2.37450724823089e-08 7.366570869739299" Properties=species:S:1:pos:R:3:forces:R:3 energy=-26.274391174316406 free_energy=-26.274391174316406 stress="0.00011558085680007935 3.1388761811967925e-08 -2.875034965654777e-08 3.1388761811967925e-08 0.00011555209493963048 4.364407146795202e-08 -2.875034965654777e-08 4.364407146795202e-08 0.00011555183300515637" pbc="T T T"
Tl       2.12654611       1.50369524       3.68328517      -0.00000040      -0.00000001       0.00000019
Tl       6.37963772       4.51108500      11.04985636       0.00000010       0.00000017      -0.00000027
Te      -0.00000177       0.00000219       0.00000188       0.00002009      -0.00002483      -0.00002125
Cl       2.08766425       1.47620129       7.36657074      -0.00439021      -0.00310190       0.00000113
Cl       6.41851938       4.53857856       7.36657089       0.00438752       0.00310449       0.00000073
Cl       5.33580657       1.47620020       5.49125477       0.00218756      -0.00309356      -0.00379030
Cl       3.17037885       4.53857792       9.24188487      -0.00220113       0.00311097       0.00380994
Cl       3.17037744       4.53857955       5.49125503      -0.00219271       0.00310057      -0.00379455
Cl       5.33580584       1.47620065       9.24188676       0.00218916      -0.00309589       0.00379438
