9
Lattice="7.097702423648414 1.5057404472557063e-07 4.097860265048922 2.365900915419782 6.691777865414681 4.097860324675752 -1.9044234892509054e-08 5.956141668995301e-08 8.19572056308343" Properties=species:S:1:pos:R:3:forces:R:3 energy=-20.186967849731445 free_energy=-20.186967849731445 stress="-4.76307241115137e-06 2.8677591412673564e-09 -7.136280899544545e-09 2.8677591412673564e-09 -4.7477865336986724e-06 6.157481635682416e-09 -7.136280899544545e-09 6.157481635682416e-09 -4.74695434604655e-06" pbc="T T T"
Tl       2.36590071       1.67294464       4.09786007      -0.00000040      -0.00000005      -0.00000005
Tl       7.09770256       5.01883332      12.29358097      -0.00000005      -0.00000015      -0.00000003
Te       0.00000062       0.00000005      -0.00000032      -0.00000440       0.00000039       0.00000166
I        2.42468247       1.71451053       8.19572048      -0.00220376      -0.00156041       0.00000013
I        7.03892049       4.97726732       8.19572057       0.00220699       0.00156214      -0.00000022
I        5.88536121       1.71451043       6.19769757       0.00110268      -0.00156090      -0.00191156
I        3.57824188       4.97726785      10.19374386      -0.00110144       0.00155950       0.00190987
I        3.57824184       4.97726771       6.19769741      -0.00110240       0.00156002      -0.00191021
I        5.88536151       1.71451046      10.19374399       0.00110281      -0.00156052       0.00191038
