9
Lattice="6.220115256922502 -3.5190921116985173e-07 3.591185299731478 2.0733714775282754 5.8643802693778255 3.5911852009978147 -5.925102884924915e-09 -1.2511326369555018e-07 7.182370609725742" Properties=species:S:1:pos:R:3:forces:R:3 energy=-35.67686462402344 free_energy=-35.67686462402344 stress="1.3698771908821072e-05 -4.4511327956797686e-08 -1.1381151132638934e-08 -4.4511327956797686e-08 1.3649260836245958e-05 3.060104702967692e-08 -1.1381151132638934e-08 3.060104702967692e-08 1.3764119103143457e-05" pbc="T T T"
Tl       2.07337162       1.46609470       3.59118531      -0.00000028      -0.00000017       0.00000002
Tl       6.22011502       4.39828505      10.77355584       0.00000018       0.00000003      -0.00000006
Ti      -0.00000019      -0.00000086       0.00000048       0.00000222       0.00000929      -0.00000717
Cl       1.93531527       1.36847382       7.18237045       0.00121331       0.00085901       0.00000050
Cl       6.35817143       4.49590611       7.18237031      -0.00121558      -0.00086255       0.00000054
Cl       5.25245737       1.36847392       5.26721780      -0.00060520       0.00085671       0.00104916
Cl       3.04102944       4.49590621       9.09752312       0.00060447      -0.00085866      -0.00104724
Cl       3.04102947       4.49590622       5.26721762       0.00060640      -0.00086130       0.00105159
Cl       5.25245744       1.36847371       9.09752342      -0.00060540       0.00085784      -0.00104767
