9
Lattice="5.449553462201242 1.0783865425739263e-07 3.1463017407560083 1.8165178995684248 5.137889279364747 3.146301780310153 4.681476952521766e-08 8.154668888049316e-08 6.2926034004265405" Properties=species:S:1:pos:R:3:forces:R:3 energy=-50.84629821777344 free_energy=-50.84629821777344 stress="6.788977771066129e-05 -7.589359363180392e-09 -4.838493605774374e-09 -7.589359363180392e-09 6.793567445129156e-05 -2.2028491031278463e-08 -4.838493605774374e-09 -2.2028491031278463e-08 6.796412344556302e-05" pbc="T T T"
Tl       1.81651790       1.28447276       3.14630237      -0.00000016      -0.00000016      -0.00000060
Tl       5.44955357       3.85341787       9.43890363       0.00000038      -0.00000076       0.00000226
Ta      -0.00000007       0.00000002       0.00000012       0.00000135      -0.00000511      -0.00001143
F        1.59716401       1.12936571       6.29260360      -0.00040090      -0.00028312       0.00000047
F        5.66890712       4.00852327       6.29260427       0.00040317       0.00028491       0.00000029
F        4.65097160       1.12936483       4.52948670       0.00019872      -0.00028038      -0.00034416
F        2.61510016       4.00852391       8.05572014      -0.00020289       0.00028706       0.00035048
F        2.61509980       4.00852325       4.52948636      -0.00020081       0.00028336      -0.00034654
F        4.65097183       1.12936587       8.05572026       0.00020093      -0.00028539       0.00034940
