9
Lattice="5.5679049341131135 -1.7991163181682321e-07 3.214631522821481 1.8559681907661296 5.2494710162979095 3.214631437920833 1.4320187718402963e-07 -2.7226681350493787e-09 6.429262797610076" Properties=species:S:1:pos:R:3:forces:R:3 energy=-36.766727447509766 free_energy=-36.766727447509766 stress="-0.0003992682322859764 -1.29811482452169e-07 2.980882030101384e-08 -1.29811482452169e-07 -0.0003991761477664113 -2.8226388337770913e-08 2.980882030101384e-08 -2.8226388337770913e-08 -0.00039909215411171317" pbc="T T T"
Tl       1.85596772       1.31236747       3.21463113       0.00000077       0.00000065       0.00000061
Tl       5.56790484       3.93710339       9.64389340      -0.00000024      -0.00000053       0.00000135
Te       0.00000027      -0.00000006       0.00000097      -0.00000600       0.00000190      -0.00001707
F        1.71297186       1.21125398       6.42926274      -0.00046363      -0.00032875       0.00000145
F        5.71090141       4.03821699       6.42926314       0.00046608       0.00032908       0.00000126
F        4.71141850       1.21125451       4.69810915       0.00023726      -0.00033495      -0.00040814
F        2.71245501       4.03821642       8.16041642      -0.00023782       0.00033674       0.00041354
F        2.71245488       4.03821601       4.69810943      -0.00023742       0.00033611      -0.00041032
F        4.71141874       1.21125458       8.16041677       0.00024104      -0.00034025       0.00041741
