9
Lattice="5.4036157031589696 -1.106544464336615e-07 3.119778817999303 1.8012051769822233 5.094577572700711 3.1197787367281107 -2.7554978729438705e-08 -1.1902072521038567e-07 6.239557683725191" Properties=species:S:1:pos:R:3:forces:R:3 energy=-48.409393310546875 free_energy=-48.409393310546875 stress="9.703553951112553e-05 -2.2276456235204023e-09 3.1110796161470944e-09 -2.2276456235204023e-09 9.707485878607258e-05 -1.0983470133396622e-08 3.1110796161470944e-09 -1.0983470133396622e-08 9.702079114504158e-05" pbc="T T T"
Tl       1.80120490       1.27364432       3.11977898       0.00000017       0.00000045       0.00000038
Tl       5.40361606       3.82093289       9.35933648      -0.00000026      -0.00000021      -0.00000011
Ti       0.00000006       0.00000001      -0.00000014       0.00000663      -0.00000184      -0.00000357
F        1.54814584       1.09470437       6.23955751      -0.00342435      -0.00242252      -0.00000006
F        5.65667527       3.99987329       6.23955753       0.00341964       0.00241908      -0.00000060
F        4.62954273       1.09470415       4.46051189       0.00170965      -0.00241805      -0.00296058
F        2.57527779       3.99987308       8.01860341      -0.00171174       0.00242203       0.00296453
F        2.57527777       3.99987321       4.46051172      -0.00171084       0.00242135      -0.00296335
F        4.62954288       1.09470420       8.01860352       0.00171122      -0.00242040       0.00296349
