9
Lattice="6.15512326727078 -1.0685492838915136e-07 3.5536624057821258 2.0517076401910774 5.803105894123228 3.5536624314545904 4.8418125378627824e-08 6.567900947278863e-08 7.10732472770155" Properties=species:S:1:pos:R:3:forces:R:3 energy=-34.77793502807617 free_energy=-34.77793502807617 stress="8.297401109302882e-06 -5.0553378372342195e-08 4.834783684515287e-09 -5.0553378372342195e-08 8.31621673569316e-06 -1.807400806796977e-08 4.834783684515287e-09 -1.807400806796977e-08 8.414614057983272e-06" pbc="T T T"
Tl       2.05170825       1.45077657       3.55366247       0.00000019       0.00000001      -0.00000010
Tl       6.15512304       4.35232950      10.66098704      -0.00000008       0.00000011      -0.00000010
V        0.00000002      -0.00000092       0.00000182      -0.00000208       0.00001339      -0.00002617
Cl       1.90111679       1.34429278       7.10732470       0.00107619       0.00076118       0.00000014
Cl       6.30571383       4.45881349       7.10732482      -0.00107947      -0.00076415       0.00000044
Cl       5.20456464       1.34429290       5.20007888      -0.00053902       0.00076178       0.00093108
Cl       3.00226671       4.45881276       9.01456986       0.00053446      -0.00075698      -0.00092441
Cl       3.00226638       4.45881285       5.20007900       0.00054027      -0.00076561       0.00093552
Cl       5.20456428       1.34429346       9.01456970      -0.00053032       0.00075026      -0.00091615
