9
Lattice="6.388954160293635 2.2648507166154067e-08 3.688664443043234 2.1296514325815052 6.02356358680327 3.6886644006707905 -8.403478839360018e-08 -1.1131696700736355e-07 7.377329031638952" Properties=species:S:1:pos:R:3:forces:R:3 energy=-31.207717895507812 free_energy=-31.207717895507812 stress="-3.2438430935144424e-05 1.5331552916109104e-08 -3.301008533185268e-08 1.5331552916109104e-08 -3.2439769711345434e-05 4.998049263349458e-08 -3.301008533185268e-08 4.998049263349458e-08 -3.243220635340549e-05" pbc="T T T"
Tl       2.12965135       1.50589102       3.68866462       0.00000007      -0.00000014       0.00000013
Tl       6.38895427       4.51767271      11.06599337       0.00000011      -0.00000001      -0.00000001
V       -0.00000042       0.00000073      -0.00000042       0.00000237      -0.00001140      -0.00000164
Br       2.03561718       1.43939891       7.37732928       0.00054531       0.00038458      -0.00000161
Br       6.48298778       4.58416418       7.37732899      -0.00053917      -0.00038186      -0.00000047
Br       5.37114585       1.43939883       5.45156083      -0.00027415       0.00038569       0.00047226
Br       3.14746045       4.58416387       9.30309583       0.00026769      -0.00037831      -0.00046261
Br       3.14745970       4.58416538       5.45156084       0.00027247      -0.00038661       0.00047016
Br       5.37114594       1.43939812       9.30309801      -0.00027462       0.00038792      -0.00047641
