9
Lattice="6.8827545730035 -2.465519670879127e-07 3.9737606823351515 2.2942515227070492 6.489122732701236 3.9737602825364418 2.3628540053259316e-07 -3.2257240981997486e-07 7.947520955411993" Properties=species:S:1:pos:R:3:forces:R:3 energy=-27.65500259399414 free_energy=-27.65500259399414 stress="-1.9912478819605894e-05 -2.829694523143189e-08 1.951129569022214e-08 -2.829694523143189e-08 -1.9898550817742944e-05 -2.5076781540178672e-08 1.951129569022214e-08 -2.5076781540178672e-08 -1.9856568542309105e-05" pbc="T T T"
Tl       2.29425199       1.62228054       3.97376087      -0.00000011      -0.00000088      -0.00000023
Tl       6.88275462       4.86684147      11.92128105       0.00000002       0.00000080       0.00000017
V       -0.00000097       0.00000015       0.00000000       0.00000574       0.00000051      -0.00000120
I        2.20332575       1.55798514       7.94752131       0.00035755       0.00025345      -0.00000026
I        6.97368085       4.93113725       7.94752123      -0.00036201      -0.00025553      -0.00000030
I        5.78109254       1.55798573       5.88189676      -0.00018008       0.00025406       0.00031011
I        3.39591402       4.93113599      10.01314462       0.00017880      -0.00025192      -0.00030835
I        3.39591414       4.93113603       5.88189806       0.00017711      -0.00025102       0.00030532
I        5.78109239       1.55798639      10.01314376      -0.00017709       0.00025053      -0.00030516
