9
Lattice="6.192385833756657 5.586522153986444e-07 3.5751751970543095 2.06412920048052 5.838236866500247 3.575175088756258 7.315660094489412e-08 -8.09079536279355e-08 7.150350267397762" Properties=species:S:1:pos:R:3:forces:R:3 energy=-37.08209991455078 free_energy=-37.08209991455078 stress="-0.0002706409723032266 1.8475765273251454e-07 2.517505848231849e-08 1.8475765273251454e-07 -0.0002707812818698585 -2.567786516749493e-08 2.517505848231849e-08 -2.567786516749493e-08 -0.0002708918182179332" pbc="T T T"
Tl       2.06412877       1.45955943       3.57517518      -0.00000002      -0.00000026      -0.00000009
Tl       6.19238649       4.37867803      10.72552529       0.00000006       0.00000019       0.00000031
W        0.00000768       0.00000197      -0.00000103      -0.00013061      -0.00003636       0.00002144
Cl       1.95362130       1.38141822       7.15035031      -0.00488094      -0.00345024       0.00000040
Cl       6.30288676       4.45681373       7.15035024       0.00499352       0.00353194       0.00000095
Cl       5.21557503       1.38141998       5.26706195       0.00246538      -0.00349168      -0.00427498
Cl       3.04093919       4.45681962       9.03364077      -0.00244916       0.00345873       0.00423819
Cl       3.04093999       4.45681868       5.26706089      -0.00245876       0.00347185      -0.00425330
Cl       5.21557520       1.38141975       9.03363872       0.00246053      -0.00348417       0.00426703
