9
Lattice="5.452846607544581 -1.564032703359803e-08 3.148202491835491 1.817615531414426 5.1409931140390555 3.148202473974479 1.1272417710871646e-07 5.7832745734448306e-08 6.296404788427069" Properties=species:S:1:pos:R:3:forces:R:3 energy=-44.166717529296875 free_energy=-44.166717529296875 stress="-1.997110075535602e-06 -4.153308452714555e-08 2.959846234773522e-08 -4.153308452714555e-08 -1.9706374132510973e-06 -4.505398365495239e-08 2.959846234773522e-08 -4.505398365495239e-08 -1.9345200144016417e-06" pbc="T T T"
Tl       1.81761550       1.28524824       3.14820274       0.00000027      -0.00000065      -0.00000017
Tl       5.45284719       3.85574473       9.44460731      -0.00000040       0.00000002      -0.00000021
W        0.00000002      -0.00000019       0.00000012      -0.00000149       0.00001155       0.00000283
F        1.64832414       1.16554114       6.29640497       0.00000119       0.00000125      -0.00000020
F        5.62213806       3.97545222       6.29640514      -0.00000587      -0.00000401      -0.00000043
F        4.62868428       1.16554109       4.57569335       0.00000057       0.00000004      -0.00000128
F        2.64177771       3.97545189       8.01711619       0.00000286      -0.00000414      -0.00000516
F        2.64177778       3.97545199       4.57569346       0.00000042      -0.00000058       0.00000024
F        4.62868426       1.16554156       8.01711600       0.00000247      -0.00000343       0.00000423
