9
Lattice="6.952562534906332 6.769930732130304e-08 4.014064090068829 2.3175207200356986 6.554939058768526 4.014064417011638 -7.50454344620268e-08 3.4735653361978013e-07 8.028128310120074" Properties=species:S:1:pos:R:3:forces:R:3 energy=-29.441879272460938 free_energy=-29.441879272460938 stress="-0.0001321936579188332 -3.713493512691457e-08 -2.2925444653765226e-08 -3.713493512691457e-08 -0.0001321410818491131 2.9565129011643876e-08 -2.2925444653765226e-08 2.9565129011643876e-08 -0.00013212510384619236" pbc="T T T"
Tl       2.31752058       1.63873513       4.01406431       0.00000032      -0.00000060       0.00000007
Tl       6.95256226       4.91620447      12.04219236      -0.00000031      -0.00000008       0.00000093
W       -0.00000158      -0.00000372       0.00000520       0.00003077       0.00006150      -0.00007967
I        2.25075169       1.59152246       8.02812857      -0.00281484      -0.00199063      -0.00000247
I        7.01933522       4.96341943       8.02812833       0.00275843       0.00195276      -0.00000224
I        5.82718735       1.59152096       5.96327114       0.00139008      -0.00196358      -0.00240877
I        3.44289639       4.96341643      10.09298429      -0.00140339       0.00198954       0.00243129
I        3.44289464       4.96341954       5.96326946      -0.00137524       0.00194912      -0.00238593
I        5.82718612       1.59152313      10.09298368       0.00141419      -0.00199807       0.00244679
