9
Lattice="6.520884884347099 6.88536089515262e-07 3.7648341818664126 2.1736286359453714 6.147949488739988 3.764834715329362 -3.981948844046582e-07 3.7178977005993085e-07 7.529669053426649" Properties=species:S:1:pos:R:3:forces:R:3 energy=-33.236080169677734 free_energy=-33.236080169677734 stress="-8.822159725241363e-05 7.705809679237063e-08 -7.44019672538343e-08 7.705809679237063e-08 -8.825927943689749e-05 8.859588973564314e-08 -7.44019672538343e-08 8.859588973564314e-08 -8.8293403678108e-05" pbc="T T T"
Tl       2.17362903       1.53698755       3.76483453       0.00000005      -0.00000014       0.00000026
Tl       6.52088402       4.61096301      11.29450345       0.00000017      -0.00000000      -0.00000013
W        0.00000102       0.00000352       0.00000211      -0.00000655      -0.00006092      -0.00002628
Br       2.08249446       1.47254780       7.52966867       0.00452732       0.00319798       0.00000013
Br       6.61201503       4.67540181       7.52966884      -0.00448709      -0.00317544      -0.00000054
Br       5.47963776       1.47254673       5.56832707      -0.00226719       0.00320386       0.00392614
Br       3.21487683       4.67540202       9.49100680       0.00224238      -0.00317343      -0.00388199
Br       3.21487606       4.67540337       5.56832926       0.00225675      -0.00319301       0.00390604
Br       5.47963819       1.47254639       9.49101097      -0.00226581       0.00320104      -0.00392363
