9
Lattice="5.475861580386866 -7.109340734693864e-08 3.161490235412585 1.825287093558641 5.162691756024033 3.16149029235565 -1.1331828581508568e-07 -1.038737789371514e-08 6.3229806670981885" Properties=species:S:1:pos:R:3:forces:R:3 energy=-50.101768493652344 free_energy=-50.101768493652344 stress="1.4935708350094501e-05 -3.523054203924403e-08 1.698084228785035e-09 -3.523054203924403e-08 1.4959354302845895e-05 -1.6116814549604896e-08 1.698084228785035e-09 -1.6116814549604896e-08 1.5008025911811274e-05" pbc="T T T"
Tl       1.82528684       1.29067316       3.16149040      -0.00000042      -0.00000049       0.00000029
Tl       5.47586165       3.87201869       9.48447122       0.00000012       0.00000046      -0.00000034
Zr      -0.00000009      -0.00000010       0.00000007      -0.00000176       0.00000762      -0.00001182
F        1.66573062       1.17784970       6.32298063      -0.00062643      -0.00044337       0.00000043
F        5.63541798       3.98484194       6.32298044       0.00062513       0.00044140       0.00000000
F        4.64299620       1.17784937       4.60405537       0.00031383      -0.00044374      -0.00054361
F        2.65815237       3.98484225       8.04190570      -0.00031504       0.00044483       0.00054635
F        2.65815264       3.98484222       4.60405540      -0.00031209       0.00044180      -0.00054139
F        4.64299597       1.17784938       8.04190552       0.00031675      -0.00044853       0.00055011
