9
Lattice="7.0956770515828245 4.569710907426539e-09 4.09669105525829 2.3652257170839914 6.6898684893364635 4.09669100517651 2.7602806856930448e-08 -4.181913322089268e-08 8.193382062707022" Properties=species:S:1:pos:R:3:forces:R:3 energy=-29.805835723876953 free_energy=-29.805835723876953 stress="1.2056408195348922e-05 1.2203595467497053e-08 7.126431667003885e-10 1.2203595467497053e-08 1.2051796147716232e-05 5.219428222957845e-10 7.126431667003885e-10 5.219428222957845e-10 1.2048360076732934e-05" pbc="T T T"
Tl       2.36522606       1.67246660       4.09669100      -0.00000048       0.00000074      -0.00000004
Tl       7.09567681       5.01740201      12.29007309       0.00000065      -0.00000078      -0.00000001
Zr       0.00000021       0.00000001       0.00000027      -0.00000129      -0.00000055      -0.00000257
I        2.34301434       1.65676100       8.19338204      -0.00186706      -0.00131977      -0.00000005
I        7.11788826       5.03310749       8.19338213       0.00186794       0.00132035       0.00000003
I        5.92417005       1.65676104       6.12580044       0.00093267      -0.00131862      -0.00161525
I        3.53673282       5.03310718      10.26096341      -0.00093348       0.00132021       0.00161661
I        3.53673269       5.03310731       6.12580064      -0.00093217       0.00131867      -0.00161554
I        5.92416994       1.65676121      10.26096348       0.00093328      -0.00132023       0.00161685
