9
Lattice="6.62246487528168 -4.514092915653729e-07 3.823482024241919 2.207487904713328 6.243719688797148 3.8234819574790353 -7.529229093042391e-09 -8.709140944740537e-08 7.646964061524803" Properties=species:S:1:pos:R:3:forces:R:3 energy=-33.810420989990234 free_energy=-33.810420989990234 stress="0.00012961156608071178 -7.393273904199305e-08 1.8233579979209935e-08 -7.393273904199305e-08 0.00012965536734554917 -2.040094138067161e-08 1.8233579979209935e-08 -2.040094138067161e-08 0.0001297140697715804" pbc="T T T"
Tl       2.20748854       1.56092969       3.82348177       0.00000008      -0.00000009      -0.00000007
Tl       6.62246442       4.68278957      11.47044634      -0.00000016       0.00000034       0.00000026
Zr      -0.00000110      -0.00000025       0.00000154       0.00000874       0.00000316      -0.00001453
Br       2.16577251       1.53143240       7.64696423      -0.00349570      -0.00247177      -0.00000039
Br       6.66418032       4.71228695       7.64696409       0.00348999       0.00246769      -0.00000045
Br       5.53957846       1.53143268       5.69909688       0.00174718      -0.00247142      -0.00302742
Br       3.29037520       4.71228595       9.59483010      -0.00175312       0.00247835       0.00303589
Br       3.29037503       4.71228631       5.69909727      -0.00175008       0.00247401      -0.00303072
Br       5.53957775       1.53143335       9.59482992       0.00175304      -0.00248022       0.00303744
