9
Lattice="5.7457996056156775 3.1587147176152255e-08 3.3173389226512104 1.915266550468613 5.417191805946377 3.317338947795854 -2.3539871297380102e-08 1.4150565499246272e-08 6.6346778860746545" Properties=species:S:1:pos:R:3:forces:R:3 energy=-32.24600601196289 free_energy=-32.24600601196289 stress="1.8858485418604687e-05 -3.9784779914953106e-09 -4.632978445329172e-10 -3.9784779914953106e-09 1.8864333469537087e-05 8.431689124677177e-09 -4.632978445329172e-10 8.431689124677177e-09 1.887298458314035e-05" pbc="T T T"
V        1.91526631       1.35429825       3.31733914      -0.00000103       0.00000095       0.00000106
V        5.74579936       4.06289333       9.95201664      -0.00000073      -0.00000280       0.00000043
Au      -0.00000008      -0.00000006      -0.00000013       0.00000053       0.00000100       0.00000028
Cl       1.98468679       1.40338538       6.63467798       0.00291550       0.00206236      -0.00000089
Cl       5.67637936       4.01380665       6.63467812      -0.00291610      -0.00206215       0.00000040
Cl       4.75345647       1.40338565       5.03612782      -0.00145612       0.00206269       0.00252491
Cl       2.90760963       4.01380631       8.23322788       0.00145656      -0.00206271      -0.00252555
Cl       2.90761007       4.01380627       5.03612766       0.00145773      -0.00206282       0.00252457
Cl       4.75345669       1.40338570       8.23322793      -0.00145608       0.00206348      -0.00252511
