9
Lattice="6.601453922094807 4.843334714961645e-08 3.811351208586367 2.200484689596591 6.22391034459218 3.8113512029833174 2.5617862415336207e-08 1.1252262461338033e-08 7.622702372801295" Properties=species:S:1:pos:R:3:forces:R:3 energy=-27.188232421875 free_energy=-27.188232421875 stress="0.00015941826859489083 -5.901821253928574e-09 -1.1371662500536672e-09 -5.901821253928574e-09 0.00015941786114126444 -4.062290059891893e-09 -1.1371662500536672e-09 -4.062290059891893e-09 0.00015943197649903595" pbc="T T T"
V        2.20048467       1.55597759       3.81135135      -0.00000061      -0.00000029       0.00000052
V        6.60145409       4.66793285      11.43405379       0.00000053       0.00000022       0.00000019
Au      -0.00000020       0.00000008      -0.00000012       0.00000078      -0.00000027      -0.00000069
I        2.30476277       1.62971326       7.62270248       0.00133552       0.00094438      -0.00000069
I        6.49717605       4.59419708       7.62270226      -0.00133707      -0.00094507       0.00000015
I        5.44907261       1.62971335       5.80733406      -0.00066891       0.00094519       0.00115730
I        3.35286591       4.59419705       9.43807067       0.00066904      -0.00094475      -0.00115688
I        3.35286590       4.59419720       5.80733414       0.00066826      -0.00094500       0.00115722
I        5.44907278       1.62971317       9.43807050      -0.00066757       0.00094564      -0.00115719
