9
Lattice="6.066333738039033 6.651230291770293e-08 3.5023994100415616 2.0221112766128737 5.719394397202212 3.5023994656551927 -1.1845657889478958e-07 -1.5648975244162923e-08 7.004799025256003" Properties=species:S:1:pos:R:3:forces:R:3 energy=-29.87013816833496 free_energy=-29.87013816833496 stress="0.00014239440497476608 -9.419634849905378e-09 -2.613525396100158e-09 -9.419634849905378e-09 0.00014235403796192259 4.298956302051238e-09 -2.613525396100158e-09 4.298956302051238e-09 0.00014236342394724488" pbc="T T T"
V        2.02211120       1.42984895       3.50239967      -0.00000019       0.00000195       0.00000035
V        6.06633369       4.28954588      10.50719805      -0.00000057       0.00000028      -0.00000098
Au       0.00000006      -0.00000008       0.00000016       0.00000008       0.00000160       0.00000236
Br       2.10018742       1.48505689       7.00479893       0.00378819       0.00267774      -0.00000053
Br       5.98825763       4.23433742       7.00479911      -0.00378785      -0.00267944       0.00000096
Br       5.01623988       1.48505687       5.32121510      -0.00189418       0.00267733       0.00328041
Br       3.07220476       4.23433737       8.68838291       0.00189432      -0.00267928      -0.00328122
Br       3.07220499       4.23433793       5.32121501       0.00189433      -0.00267825       0.00328079
Br       5.01624000       1.48505653       8.68838264      -0.00189425       0.00267813      -0.00328213
