9
Lattice="4.67565034030169 -3.986580351402954e-08 2.699487996138121 1.558550018296783 4.40824598588431 2.699488095819861 -1.0038002054617131e-07 5.110529087112453e-08 5.398976166139522" Properties=species:S:1:pos:R:3:forces:R:3 energy=-40.54148483276367 free_energy=-40.54148483276367 stress="0.00023413404414895922 -5.0994128031334185e-08 2.2183527903507638e-08 -5.0994128031334185e-08 0.00023362142383120954 1.765327972691466e-08 2.2183527903507638e-08 1.765327972691466e-08 0.00023410342691931874" pbc="T T T"
V        1.55854993       1.10206305       2.69948879      -0.00000112       0.00001471       0.00000910
V        4.67565024       3.30618328       8.09846500       0.00000254      -0.00001237       0.00000697
Au       0.00000002       0.00000014      -0.00000012       0.00001361      -0.00001012       0.00000141
F        1.68689595       1.19281609       5.39897597      -0.00030351      -0.00021213      -0.00000087
F        4.54730439       3.21543011       5.39897516       0.00029975       0.00020722      -0.00000492
F        3.83220235       1.19281655       4.16038250       0.00014947      -0.00020401      -0.00025743
F        2.40199764       3.21542973       6.63756950      -0.00015424       0.00020939       0.00026435
F        2.40199741       3.21542879       4.16038276      -0.00015818       0.00020836      -0.00027066
F        3.83220312       1.19281635       6.63756954       0.00015156      -0.00020136       0.00025213
