9
Lattice="6.440434634682896 -3.965509400250878e-08 3.718386689852807 2.1468115140349795 6.072100094042674 3.7183866785462545 -2.8854695120728448e-09 -1.588798408444336e-08 7.436773384703441" Properties=species:S:1:pos:R:3:forces:R:3 energy=-29.298625946044922 free_energy=-29.298625946044922 stress="0.00025938168982975185 1.5756225213436892e-09 4.6745558535121745e-09 1.5756225213436892e-09 0.00025936582824215293 3.881926780024969e-09 4.6745558535121745e-09 3.881926780024969e-09 0.0002593780227471143" pbc="T T T"
V        2.14681166       1.51802512       3.71838640      -0.00000010      -0.00000014      -0.00000041
V        6.44043463       4.55407499      11.15516045      -0.00000001      -0.00000039       0.00000151
Be      -0.00000008       0.00000006       0.00000011      -0.00000004      -0.00000058      -0.00000007
I        2.11666203       1.49670586       7.43677340      -0.00247699      -0.00175228       0.00000007
I        6.47058403       4.57539393       7.43677313       0.00247750       0.00175314      -0.00000035
I        5.38210371       1.49670622       5.55146978       0.00123882      -0.00175151      -0.00214566
I        3.20514244       4.57539396       9.32207699      -0.00123901       0.00175215       0.00214539
I        3.20514254       4.57539398       5.55146980      -0.00123843       0.00175231      -0.00214572
I        5.38210357       1.49670607       9.32207690       0.00123828      -0.00175283       0.00214530
