9
Lattice="5.876894190100306 -5.224952332723863e-08 3.393026514284712 1.9589646969435568 5.540788927509719 3.3930264862749144 3.039987629985607e-09 -3.215526446367958e-08 6.786053023304006" Properties=species:S:1:pos:R:3:forces:R:3 energy=-33.27497100830078 free_energy=-33.27497100830078 stress="0.0001664022565819323 6.730802137866476e-09 -1.653026049375228e-09 6.730802137866476e-09 0.0001664144656388089 -4.613966542166281e-09 -1.653026049375228e-09 -4.613966542166281e-09 0.00016641088586766273" pbc="T T T"
V        1.95896446       1.38519721       3.39302627      -0.00000255       0.00000177       0.00000048
V        5.87689446       4.15559157      10.17907992       0.00000187      -0.00000132       0.00000127
Be      -0.00000001      -0.00000016      -0.00000002      -0.00000057       0.00000042       0.00000078
Br       1.93662247       1.36939912       6.78605288      -0.00219715      -0.00155156       0.00000241
Br       5.89923683       4.17138980       6.78605258       0.00219165       0.00155275       0.00000123
Br       4.90858277       1.36939910       5.07019135       0.00110105      -0.00155523      -0.00190496
Br       2.92727570       4.17139026       8.50191552      -0.00109352       0.00154805       0.00189624
Br       2.92727596       4.17138979       5.07019079      -0.00109778       0.00155512      -0.00189928
Br       4.90858300       1.36939858       8.50191491       0.00109680      -0.00155018       0.00190191
