9
Lattice="4.3334186399330905 1.9817899851263486e-08 2.5019003476872976 1.4444729177918123 4.085586013201679 2.5019003145537924 3.050170973670632e-08 -1.9012097137437647e-08 5.003800642544051" Properties=species:S:1:pos:R:3:forces:R:3 energy=-50.65456008911133 free_energy=-50.65456008911133 stress="2.8929741802130593e-06 -1.450994968621444e-08 8.726002143077949e-09 -1.450994968621444e-08 2.81324309980846e-06 -5.504915190357451e-09 8.726002143077949e-09 -5.504915190357451e-09 2.8613940230570734e-06" pbc="T T T"
V        1.44447269       1.02139659       2.50190021      -0.00000280       0.00000067      -0.00000166
V        4.33341855       3.06418951       7.50570064      -0.00000308      -0.00000089      -0.00000279
Be      -0.00000044      -0.00000015      -0.00000001      -0.00000213       0.00000093       0.00000081
F        1.39227057       0.98448395       5.00380088       0.00075820       0.00053659      -0.00000047
F        4.38562137       3.10110212       5.00380089      -0.00075671      -0.00053740       0.00000191
F        3.63728347       0.98448366       3.70764172      -0.00037815       0.00053608       0.00065690
F        2.14060834       3.10110223       6.29995953       0.00038102      -0.00053594      -0.00065529
F        2.14060821       3.10110242       3.70764176       0.00038083      -0.00053564       0.00065690
F        3.63728350       0.98448373       6.29995959      -0.00037749       0.00053570      -0.00065666
