9
Lattice="5.658850497870513 -8.958357079746497e-08 3.2671389569351357 1.8862834613499582 5.3352151469144244 3.26713887636017 -1.2646838981168465e-08 -1.0762644885772697e-07 6.534277935775235" Properties=species:S:1:pos:R:3:forces:R:3 energy=-33.69403076171875 free_energy=-33.69403076171875 stress="6.608660623896867e-05 -6.983180700359526e-09 -1.3820266708819418e-08 -6.983180700359526e-09 6.613508594455197e-05 -1.6729506668866634e-08 -1.3820266708819418e-08 -1.6729506668866634e-08 6.607628165511414e-05" pbc="T T T"
V        1.88628364       1.33380397       3.26713853       0.00000122       0.00000111      -0.00000122
V        5.65885058       4.00141131       9.80141649       0.00000112       0.00000163      -0.00000088
C        0.00000020       0.00000024      -0.00000109       0.00000065       0.00000152      -0.00000075
Cl       1.89358055       1.33896370       6.53427815       0.00092533       0.00065541       0.00000033
Cl       5.65155286       3.99625122       6.53427815      -0.00092795      -0.00065612       0.00000165
Cl       4.71206002       1.33896365       4.90702841      -0.00046460       0.00065500       0.00080588
Cl       2.83307369       3.99625132       8.16152811       0.00046419      -0.00065590      -0.00080383
Cl       2.83307409       3.99625122       4.90702839       0.00046484      -0.00065560       0.00080305
Cl       4.71206011       1.33896313       8.16152788      -0.00046466       0.00065299      -0.00080420
