9
Lattice="6.438732219163735 5.1213252044082054e-08 3.717403795503814 2.146244112954684 6.070495005832398 3.717403810025664 1.2613916733366742e-08 2.6704918556890507e-08 7.434807569159676" Properties=species:S:1:pos:R:3:forces:R:3 energy=-29.320819854736328 free_energy=-29.320819854736328 stress="-7.976964116096497e-05 -1.9103383319674094e-09 -2.7736821728296945e-09 -1.9103383319674094e-09 -7.977573841344565e-05 -6.72187550065928e-09 -2.7736821728296945e-09 -6.72187550065928e-09 -7.977482891874388e-05" pbc="T T T"
V        2.14624411       1.51762382       3.71740375      -0.00000090       0.00000062       0.00000007
V        6.43873217       4.55287151      11.15221148       0.00000005       0.00000054      -0.00000007
C       -0.00000032      -0.00000028       0.00000009      -0.00000135      -0.00000125       0.00000165
I        2.17109941       1.53519919       7.43480746       0.00288427       0.00203875      -0.00000063
I        6.41387711       4.53529600       7.43480751      -0.00288361      -0.00203902       0.00000015
I        5.35318260       1.53519930       5.59763088      -0.00144112       0.00203875       0.00249729
I        3.23179378       4.53529588       9.27198427       0.00144252      -0.00203857      -0.00249738
I        3.23179394       4.53529582       5.59763097       0.00144188      -0.00203869       0.00249675
I        5.35318258       1.53519913       9.27198423      -0.00144167       0.00203902      -0.00249770
