9
Lattice="6.435050759672908 1.924140780082543e-08 3.7152783036512154 2.1450169766736367 6.067024022586131 3.7152782367218387 1.4743176365524501e-09 -8.092891051788553e-08 7.43055660474875" Properties=species:S:1:pos:R:3:forces:R:3 energy=-31.51616668701172 free_energy=-31.51616668701172 stress="0.00013380066957324743 8.593318279181972e-10 -1.2093852586048115e-09 8.593318279181972e-10 0.00013381120515987277 3.76315467676136e-09 -1.2093852586048115e-09 3.76315467676136e-09 0.00013379802112467587" pbc="T T T"
V        2.14501670       1.51675596       3.71527818      -0.00000023       0.00000098      -0.00000031
V        6.43505081       4.55026812      11.14583537      -0.00000025       0.00000024      -0.00000003
Co       0.00000000       0.00000001      -0.00000021       0.00000025      -0.00000039       0.00000064
I        2.13701182       1.51109531       7.43055662       0.00040304       0.00028507       0.00000160
I        6.44305600       4.55592855       7.43055633      -0.00040319      -0.00028546       0.00000015
I        5.36654494       1.51109561       5.56598464      -0.00020064       0.00028386       0.00034910
I        3.21352282       4.55592855       9.29512853       0.00020241      -0.00028565      -0.00034948
I        3.21352284       4.55592846       5.56598472       0.00020018      -0.00028420       0.00034862
I        5.36654502       1.51109530       9.29512842      -0.00020152       0.00028548      -0.00035024
