9
Lattice="4.280395196440786 1.2906551597386606e-08 2.471287415404147 1.426798401469759 4.035595441202305 2.47128743187986 -3.376262837430967e-08 -3.695236703482373e-09 4.94257488928689" Properties=species:S:1:pos:R:3:forces:R:3 energy=-53.3118782043457 free_energy=-53.3118782043457 stress="-0.00017359039338771254 -7.219210118591946e-08 -1.2690701112205716e-07 -7.219210118591946e-08 -0.00017374682647641748 3.012167226756901e-08 -1.2690701112205716e-07 3.012167226756901e-08 -0.00017384036618750542" pbc="T T T"
V        1.42679732       1.00889939       2.47128750      -0.00001734       0.00000937      -0.00000105
V        4.28039507       3.02669428       7.41386267      -0.00000058      -0.00003620       0.00000766
Co       0.00000000      -0.00000007       0.00000003       0.00000063      -0.00000049      -0.00000010
O        1.47316138       1.04168327       4.94257478      -0.00552595      -0.00389582      -0.00000070
O        4.23403205       2.99391259       4.94257462       0.00552297       0.00390303      -0.00000374
O        3.54381531       1.04168353       3.74708249       0.00277126      -0.00389421      -0.00478470
O        2.16337893       2.99391263       6.13806679      -0.00276297       0.00390559       0.00478125
O        2.16337910       2.99391268       3.74708271      -0.00275964       0.00390279      -0.00478232
O        3.54381514       1.04168357       6.13806721       0.00277156      -0.00389516       0.00478482
