9
Lattice="5.31688535069971 -9.87590315811668e-08 3.069705130755309 1.772294988568007 5.012807751229399 3.0697051917598333 -1.557007397714837e-07 -3.538205867290123e-08 6.139410531192211" Properties=species:S:1:pos:R:3:forces:R:3 energy=-43.499061584472656 free_energy=-43.499061584472656 stress="8.193655958166346e-05 -2.0115033194656462e-08 4.2991437076977945e-09 -2.0115033194656462e-08 8.195858390536159e-05 1.3233828255465596e-08 4.2991437076977945e-09 1.3233828255465596e-08 8.196097041945904e-05" pbc="T T T"
V        1.77229625       1.25320175       3.06970463       0.00000358      -0.00000028      -0.00000248
V        5.31688517       3.75960539       9.20911742       0.00000008      -0.00000081       0.00000687
Co      -0.00000037      -0.00000009      -0.00000039       0.00000308       0.00000009       0.00000009
Se       1.86262516       1.31707580       6.13940998      -0.00218615      -0.00154383      -0.00000337
Se       5.22655485       3.69573316       6.13941006       0.00217824       0.00153968       0.00000099
Se       4.38557246       1.31707507       4.68278648       0.00109195      -0.00154202      -0.00188935
Se       2.70360699       3.69573173       7.59603459      -0.00109250       0.00154419       0.00189084
Se       2.70360846       3.69573287       4.68278605      -0.00108995       0.00154553      -0.00189263
Se       4.38557163       1.31707477       7.59603465       0.00109135      -0.00154279       0.00188912
