9
Lattice="5.0963270946588946 4.806304726574843e-08 2.942365860524067 1.698775775204312 4.804863209013373 2.942365805669307 4.250727855907427e-08 -3.712589173295977e-08 5.8847316474233695" Properties=species:S:1:pos:R:3:forces:R:3 energy=-47.555606842041016 free_energy=-47.555606842041016 stress="-2.085409505525604e-05 9.362897124276515e-09 7.431760540299592e-09 9.362897124276515e-09 -2.0860428776359186e-05 1.8375412302873428e-09 7.431760540299592e-09 1.8375412302873428e-09 -2.0856892660958692e-05" pbc="T T T"
V        1.69877553       1.20121601       2.94236598      -0.00000096       0.00000054       0.00000049
V        5.09632727       3.60364738       8.82709730       0.00000022       0.00000019      -0.00000180
Co       0.00000014      -0.00000010      -0.00000030      -0.00000368       0.00000266       0.00000497
S        1.75090829       1.23807883       5.88473160      -0.00047073      -0.00033322       0.00000176
S        5.04419477       3.56678420       5.88473183       0.00047269       0.00033422       0.00000112
S        4.22087298       1.23807914       4.45869659       0.00023724      -0.00033474      -0.00041053
S        2.57422962       3.56678441       7.31076686      -0.00023444       0.00033012       0.00040439
S        2.57422984       3.56678424       4.45869654      -0.00023606       0.00033262      -0.00040719
S        4.22087328       1.23807885       7.31076685       0.00023566      -0.00033253       0.00040683
