9
Lattice="5.935015987043112 2.5627603660670815e-08 3.426583018742071 1.9783386682518742 5.59558684911424 3.426583050365457 -4.222157942338457e-08 8.875447638102254e-09 6.85316611061405" Properties=species:S:1:pos:R:3:forces:R:3 energy=-40.93446731567383 free_energy=-40.93446731567383 stress="0.00020328581740614027 -1.293239204613883e-08 -3.1918416798504268e-09 -1.293239204613883e-08 0.00020328987739048898 4.233005501674825e-09 -3.1918416798504268e-09 4.233005501674825e-09 0.00020331690029706806" pbc="T T T"
V        1.97833829       1.39889706       3.42658275      -0.00000233       0.00000126      -0.00000114
V        5.93501588       4.19668969      10.27974999      -0.00000024      -0.00000221       0.00000240
Co       0.00000001       0.00000013       0.00000026      -0.00000087       0.00000112      -0.00000384
Te       1.98475060       1.40343067       6.85316587       0.00831576       0.00588000      -0.00000063
Te       5.92860399       4.19215612       6.85316539      -0.00831522      -0.00588059      -0.00000187
Te       4.94264107       1.40343092       5.14542766      -0.00415568       0.00588189       0.00720232
Te       2.97071375       4.19215562       8.56090460       0.00415639      -0.00588027      -0.00719919
Te       2.97071416       4.19215630       5.14542767       0.00415849      -0.00588160       0.00720211
Te       4.94264069       1.40343101       8.56090451      -0.00415640       0.00588042      -0.00720029
