9
Lattice="5.919798837135838 -1.1265703398807377e-08 3.417797476089087 1.9732662900338234 5.581239777231075 3.4177974386596026 4.7237627803675084e-08 -1.2439500375650296e-08 6.83559487036015" Properties=species:S:1:pos:R:3:forces:R:3 energy=-35.0695915222168 free_energy=-35.0695915222168 stress="0.0001567890722071752 2.5429738315096984e-09 1.4838706929864998e-09 2.5429738315096984e-09 0.0001568199077155441 -5.608470132756338e-09 1.4838706929864998e-09 -5.608470132756338e-09 0.00015681228251196444" pbc="T T T"
V        1.97326635       1.39530973       3.41779731       0.00000062      -0.00000085      -0.00000094
V        5.91979860       4.18592969      10.25339211      -0.00000214       0.00000013      -0.00000031
Co       0.00000020       0.00000003       0.00000016      -0.00000093      -0.00000025      -0.00000154
Br       1.97050951       1.39336050       6.83559495       0.00209744       0.00148252      -0.00000010
Br       5.92255566       4.18787931       6.83559502      -0.00209586      -0.00148200       0.00000091
Br       4.93454408       1.39336074       5.12430876      -0.00104911       0.00148385       0.00181580
Br       2.95852117       4.18787915       8.54688109       0.00104823      -0.00148172      -0.00181426
Br       2.95852108       4.18787920       5.12430871       0.00104922      -0.00148295       0.00181573
Br       4.93454410       1.39336071       8.54688101      -0.00104732       0.00148137      -0.00181527
