9
Lattice="5.126909216446706 -1.4448796119174854e-08 2.960022487689777 1.7089697383245994 4.833696248756166 2.9600224649453764 -7.724822358920334e-09 -3.3318364839050176e-08 5.920044988759343" Properties=species:S:1:pos:R:3:forces:R:3 energy=-50.38623809814453 free_energy=-50.38623809814453 stress="-2.1384514639066765e-06 3.3028701551529593e-08 -2.3313059926977076e-08 3.3028701551529593e-08 -2.130931306965067e-06 2.3790398984147032e-08 -2.3313059926977076e-08 2.3790398984147032e-08 -2.2092265226092422e-06" pbc="T T T"
V        1.70896969       1.20842402       2.96002258      -0.00000025      -0.00000035       0.00000023
V        5.12690933       3.62527181       8.88006684      -0.00000005      -0.00000038      -0.00000161
Cr      -0.00000013      -0.00000031      -0.00000017       0.00000099       0.00000175       0.00000132
S        1.79554439       1.26964155       5.92004525      -0.00043875      -0.00031185       0.00000204
S        5.04033480       3.56405477       5.92004526       0.00043708       0.00030962       0.00000077
S        4.22913709       1.26964159       4.51500939       0.00021909      -0.00031039      -0.00037938
S        2.60674171       3.56405513       7.32508045      -0.00021838       0.00030971       0.00037837
S        2.60674176       3.56405479       4.51500941      -0.00021777       0.00030982      -0.00037912
S        4.22913722       1.26964136       7.32508077       0.00021838      -0.00030810       0.00037721
