9
Lattice="5.338016362686351 9.91181744501243e-08 3.0819051796240844 1.7793389056248763 5.032730230426941 3.0819051369927286 1.1764427015789551e-07 3.09745232064136e-08 6.163810155482331" Properties=species:S:1:pos:R:3:forces:R:3 energy=-46.493995666503906 free_energy=-46.493995666503906 stress="0.00043170948629267514 3.2920290937710206e-09 1.3292724254654331e-08 3.2920290937710206e-09 0.0004317370767239481 2.370504459392464e-09 1.3292724254654331e-08 2.370504459392464e-09 0.0004317395796533674" pbc="T T T"
V        1.77933906       1.25818230       3.08190471       0.00000100      -0.00000077      -0.00000171
V        5.33801665       3.77454776       9.24571384       0.00000027      -0.00000037      -0.00000354
Cr       0.00000026       0.00000042      -0.00000008      -0.00000274      -0.00000638       0.00000287
Se       1.90750537       1.34880982       6.16381084       0.00721070       0.00509587       0.00000205
Se       5.20984954       3.68392045       6.16381081      -0.00720114      -0.00509068       0.00000001
Se       4.38426359       1.34881021       4.73385336      -0.00360431       0.00509544       0.00624207
Se       2.73309174       3.68392002       7.59376733       0.00360012      -0.00509438      -0.00623634
Se       2.73309137       3.68391988       4.73385362       0.00359878      -0.00509395       0.00623721
Se       4.38426399       1.34881047       7.59376754      -0.00360285       0.00509515      -0.00624260
