9
Lattice="4.579231608769108 1.362271956501132e-07 2.6438203636088504 1.5264106096776973 4.317341391031151 2.6438204588975287 -5.586819526049624e-08 7.719951931272044e-08 5.2876408239843276" Properties=species:S:1:pos:R:3:forces:R:3 energy=-57.66582489013672 free_energy=-57.66582489013672 stress="0.00045522823347710073 4.1855795984702127e-07 6.904227802806417e-07 4.1855795984702127e-07 0.0004556929925456643 5.820053274874226e-07 6.904227802806417e-07 5.820053274874226e-07 0.0004563691036310047" pbc="T T T"
V        1.52638663       1.07934164       2.64382550      -0.00030768       0.00010374       0.00014012
V        4.57924849       3.23802093       7.93151575       0.00020370       0.00021243       0.00075693
Cr       0.00000012      -0.00000041      -0.00000128       0.00000427      -0.00001344      -0.00002777
O        1.49083604       1.05417803       5.28763688      -0.00106090      -0.00079840      -0.00008479
O        4.61480982       3.26315647       5.28762079       0.00112626       0.00068539      -0.00028108
O        3.83381912       1.05418378       3.93491590       0.00060871      -0.00073311      -0.00101498
O        2.27181945       3.26315775       6.64035177      -0.00065635       0.00072938       0.00080901
O        2.27182981       3.26316276       3.93491935      -0.00051196       0.00076282      -0.00100568
O        3.83381891       1.05416542       6.64034200       0.00059375      -0.00094858       0.00070873
