9
Lattice="5.009300421520618 1.4237742011178815e-07 2.8921207787318055 1.6697669321217383 4.722813775968276 2.892120794816546 8.584248752310145e-09 2.576966736948344e-08 5.784241542595291" Properties=species:S:1:pos:R:3:forces:R:3 energy=-44.17582702636719 free_energy=-44.17582702636719 stress="-0.00014380138600245118 -4.064173708684393e-08 9.02224162047105e-09 -4.064173708684393e-08 -0.00014385739632416517 4.3565027141312385e-09 9.02224162047105e-09 4.3565027141312385e-09 -0.0001438250474166125" pbc="T T T"
V        1.66976711       1.18070357       2.89212055      -0.00000042       0.00000039       0.00000045
V        5.00930074       3.54211033       8.67636247       0.00000047       0.00000011       0.00000110
C        0.00000049      -0.00000054      -0.00000143       0.00001301      -0.00001064      -0.00003066
S        1.60001758       1.13138380       5.78424191       0.00220722       0.00156328       0.00000341
S        5.07904908       3.59143017       5.78424157      -0.00221029      -0.00156227       0.00000384
S        4.20929099       1.13138446       4.27777696      -0.00111023       0.00156888       0.00192159
S        2.46977527       3.59143115       7.29070706       0.00109704      -0.00155386      -0.00190219
S        2.46977630       3.59142995       4.27777638       0.00110672      -0.00156516       0.00191483
S        4.20929190       1.13138292       7.29070665      -0.00110391       0.00155935      -0.00191218
