9
Lattice="6.45100554717493 -3.186500451787004e-08 3.7244897746438905 2.150335154423421 6.0820663928587395 3.7244897710509304 -3.293881131571987e-08 -2.7691712703558266e-08 7.448979606339464" Properties=species:S:1:pos:R:3:forces:R:3 energy=-28.648229598999023 free_energy=-28.648229598999023 stress="5.673730265698396e-05 -9.673677414667736e-10 -3.4415332805792787e-09 -9.673677414667736e-10 5.674172280123457e-05 -3.532105496972804e-09 -3.4415332805792787e-09 -3.532105496972804e-09 5.673314444720745e-05" pbc="T T T"
V        2.15033513       1.52051627       3.72448964      -0.00000070      -0.00000111      -0.00000054
V        6.45100569       4.56154999      11.17346925      -0.00000020       0.00000065       0.00000045
Cu       0.00000008       0.00000025       0.00000004       0.00000002      -0.00000068       0.00000084
I        2.19131213       1.54949170       7.44897958       0.00089014       0.00062838       0.00000062
I        6.41002851       4.53257465       7.44897957      -0.00088905      -0.00062819       0.00000039
I        5.35534941       1.54949168       5.62222181      -0.00044408       0.00062777       0.00077104
I        3.24599111       4.53257464       9.27573742       0.00044522      -0.00062918      -0.00077083
I        3.24599120       4.53257458       5.62222179       0.00044424      -0.00062722       0.00076986
I        5.35534945       1.54949160       9.27573748      -0.00044566       0.00062962      -0.00077186
