9
Lattice="5.962087450477828 -1.4248966996172587e-08 3.442212738807234 1.9873624686213125 5.621109880362222 3.442212741296658 -2.0445339235814794e-08 -1.1408163093315717e-08 6.884425513026867" Properties=species:S:1:pos:R:3:forces:R:3 energy=-31.845775604248047 free_energy=-31.845775604248047 stress="0.00015234491729643196 -3.380429491883774e-09 5.0675255103271866e-09 -3.380429491883774e-09 0.00015234455349855125 -1.489022061207379e-08 5.0675255103271866e-09 -1.489022061207379e-08 0.00015232726582325995" pbc="T T T"
V        1.98736214       1.40527720       3.44221269      -0.00000028      -0.00000027      -0.00000038
V        5.96208756       4.21583230      10.32663797      -0.00000032       0.00000008      -0.00000099
Cu      -0.00000006      -0.00000006       0.00000023      -0.00000078       0.00000048       0.00000049
Br       2.01002240       1.42130024       6.88442565       0.00224096       0.00158498       0.00000057
Br       5.93942755       4.19980969       6.88442551      -0.00224091      -0.00158450       0.00000011
Br       4.95707623       1.42130039       5.18294327      -0.00112023       0.00158404       0.00194050
Br       2.99237363       4.19980954       8.58590764       0.00112094      -0.00158535      -0.00194120
Br       2.99237374       4.19980961       5.18294326       0.00112032      -0.00158431       0.00194146
Br       4.95707636       1.42130052       8.58590781      -0.00111981       0.00158493      -0.00194061
