9
Lattice="4.4002826709659475 -7.27664351694645e-08 2.540504422192186 1.4667608460648702 4.148625999363703 2.540504380020683 -3.1616679222750784e-08 -7.400570857142942e-08 5.08100889914609" Properties=species:S:1:pos:R:3:forces:R:3 energy=-45.6462516784668 free_energy=-45.6462516784668 stress="0.00020197962294332683 1.5051677237920558e-08 5.788706047837877e-08 1.5051677237920558e-08 0.0002019303647102788 -1.494385593048264e-08 5.788706047837877e-08 -1.494385593048264e-08 0.00020191552175674587" pbc="T T T"
V        1.46676114       1.03715625       2.54050424       0.00000233      -0.00000239      -0.00000093
V        4.40028311       3.11146948       7.62151282       0.00000404       0.00000068      -0.00000342
Cu      -0.00000012      -0.00000005       0.00000018       0.00000003       0.00000265      -0.00000349
F        1.52661419       1.07947933       5.08100880       0.00097194       0.00068980       0.00000020
F        4.34042888       3.06914688       5.08100931      -0.00097282      -0.00068659       0.00000296
F        3.63697556       1.07947918       3.86259130      -0.00048760       0.00068831       0.00084509
F        2.23006800       3.06914668       6.29942644       0.00048447      -0.00069010      -0.00084437
F        2.23006783       3.06914675       3.86259137       0.00048570      -0.00069043       0.00084747
F        3.63697529       1.07947893       6.29942648      -0.00048841       0.00068812      -0.00084339
