9
Lattice="5.580325763726785 2.362766740828094e-08 3.221802586799424 1.8601085842018863 5.261181709751473 3.2218026318040245 -1.8352385176081823e-08 4.214206788311941e-08 6.443605205386091" Properties=species:S:1:pos:R:3:forces:R:3 energy=-34.508365631103516 free_energy=-34.508365631103516 stress="0.0003528272791299969 2.7964027538018854e-08 5.1489399549575765e-11 2.7964027538018854e-08 0.00035282777389511466 8.502671455801192e-09 5.1489399549575765e-11 8.502671455801192e-09 0.00035280021256767213" pbc="T T T"
V        1.86010922       1.31529513       3.22180264       0.00000262      -0.00000027       0.00000118
V        5.58032556       3.94588621       9.66540773       0.00000006      -0.00000165       0.00000134
Cu       0.00000010       0.00000026       0.00000002      -0.00000331      -0.00000247      -0.00000190
Cl       1.88125809       1.33025065       6.44360508       0.00225574       0.00159606      -0.00000136
Cl       5.55917573       3.93093111       6.44360532      -0.00225201      -0.00158992       0.00000019
Cl       4.63969639       1.33025059       4.85101981      -0.00112869       0.00159544       0.00195113
Cl       2.80073772       3.93093118       8.03619052       0.00112700      -0.00159532      -0.00195229
Cl       2.80073769       3.93093161       4.85102003       0.00112776      -0.00159439       0.00195402
Cl       4.63969676       1.33025041       8.03619047      -0.00112917       0.00159228      -0.00195169
