9
Lattice="5.9758844165264495 -7.493581384921156e-09 3.4501785221383243 1.9919614905161578 5.634117803389001 3.450178478134275 7.643590596582234e-08 1.5463106974525262e-10 6.90035691188575" Properties=species:S:1:pos:R:3:forces:R:3 energy=-37.542213439941406 free_energy=-37.542213439941406 stress="-8.250354767369572e-06 -6.109782124674723e-10 -1.7164495380583844e-09 -6.109782124674723e-10 -8.266447366622742e-06 -2.027477208343953e-08 -1.7164495380583844e-09 -2.027477208343953e-08 -8.274572792288382e-06" pbc="T T T"
V        1.99196134       1.40852953       3.45017862      -0.00000071      -0.00000059       0.00000059
V        5.97588462       4.22558845      10.35053519      -0.00000001      -0.00000063      -0.00000024
Fe      -0.00000008      -0.00000016      -0.00000005      -0.00000067       0.00000259       0.00000219
Br       1.85744977       1.31341528       6.90035694       0.00013408       0.00009644      -0.00000048
Br       6.11039611       4.32070235       6.90035721      -0.00013337      -0.00009480      -0.00000016
Br       5.04715953       1.31341528       5.05877728      -0.00006681       0.00009535       0.00011583
Br       2.92068666       4.32070249       8.74193654       0.00006685      -0.00009667      -0.00011694
Br       2.92068653       4.32070259       5.05877734       0.00006681      -0.00009574       0.00011587
Br       5.04715948       1.31341541       8.74193651      -0.00006634       0.00009370      -0.00011661
