9
Lattice="5.068333043594911 -1.4029692070925346e-07 2.9262035573266645 1.689444257343659 4.778470237529195 2.926203485010218 2.1280448508475283e-09 -8.706443285779393e-08 5.8524071109674916" Properties=species:S:1:pos:R:3:forces:R:3 energy=-48.48869705200195 free_energy=-48.48869705200195 stress="7.428488970617764e-06 -6.820515352501388e-08 2.204908966518815e-08 -6.820515352501388e-08 7.555499450973002e-06 -3.647693347375025e-08 2.204908966518815e-08 -3.647693347375025e-08 7.599543096148409e-06" pbc="T T T"
V        1.68944428       1.19461717       2.92620344      -0.00000038      -0.00000236      -0.00000070
V        5.06833266       3.58385239       8.77860966      -0.00000154      -0.00000033      -0.00000336
Fe       0.00000016      -0.00000012      -0.00000019       0.00000192       0.00000302       0.00000306
S        1.75096129       1.23811649       5.85240682      -0.00000286      -0.00000012       0.00000124
S        5.00681621       3.54035399       5.85240697      -0.00000125      -0.00000292      -0.00000096
S        4.19285191       1.23811677       4.44258114       0.00000444      -0.00000075      -0.00000513
S        2.56492577       3.54035346       7.26223369      -0.00000018       0.00000149       0.00000513
S        2.56492499       3.54035357       4.44258154      -0.00000373       0.00000569      -0.00000453
S        4.19285199       1.23811651       7.26223339       0.00000340      -0.00000322       0.00000566
