9
Lattice="6.402434944850075 -1.9670987179101434e-08 3.6964475659277825 2.134144971681387 6.036273562935248 3.6964475510135126 -1.8015255484579636e-08 -3.100483210697273e-08 7.392895163058814" Properties=species:S:1:pos:R:3:forces:R:3 energy=-33.31843948364258 free_energy=-33.31843948364258 stress="7.568277942482382e-05 -3.029759221284678e-10 -4.5287384953240917e-11 -3.029759221284678e-10 7.569211447844282e-05 2.0091979191505516e-09 -4.5287384953240917e-11 2.0091979191505516e-09 7.568365981569514e-05" pbc="T T T"
V        2.13414498       1.50906801       3.69644755       0.00000040      -0.00000069      -0.00000022
V        6.40243495       4.52720514      11.08934288      -0.00000075      -0.00000085       0.00000023
Fe      -0.00000015      -0.00000056       0.00000024       0.00000397       0.00001164      -0.00000200
I        2.00798149       1.41985725       7.39289514       0.00443556       0.00313534       0.00000042
I        6.52859905       4.61641664       7.39289511      -0.00444315      -0.00314129      -0.00000051
I        5.39844425       1.41985740       5.43541027      -0.00221817       0.00313739       0.00384203
I        3.13813557       4.61641632       9.35037989       0.00221974      -0.00313906      -0.00384446
I        3.13813548       4.61641643       5.43541031       0.00222100      -0.00313966       0.00384581
I        5.39844404       1.41985745       9.35037976      -0.00221849       0.00313712      -0.00384129
