9
Lattice="5.611023187336223 -2.2296676530311804e-08 3.239525841577625 1.8703410544070347 5.290123523828622 3.239525819090169 6.44930576682497e-08 1.806209291141075e-08 6.479051571449993" Properties=species:S:1:pos:R:3:forces:R:3 energy=-39.917724609375 free_energy=-39.917724609375 stress="3.159299376420677e-05 1.6106005418237146e-08 -5.51774315127318e-09 1.6106005418237146e-08 3.166319947922602e-05 1.582053377191528e-09 -5.51774315127318e-09 1.582053377191528e-09 3.164633017149754e-05" pbc="T T T"
V        1.87034070       1.32253136       3.23952486      -0.00000401       0.00000060      -0.00000431
V        5.61102316       3.96759190       9.71857662       0.00000063      -0.00000271      -0.00000431
Fe      -0.00000019       0.00000018       0.00000026      -0.00000012       0.00000050      -0.00000284
Cl       1.82084018       1.28752905       6.47905179      -0.00050572      -0.00035481       0.00000242
Cl       5.66052403       4.00259434       6.47905154       0.00050628       0.00035977       0.00000252
Cl       4.70060317       1.28752891       4.81642036       0.00025298      -0.00035816      -0.00044060
Cl       2.78076154       4.00259432       8.14168369      -0.00025128       0.00035517       0.00044107
Cl       2.78076131       4.00259519       4.81642077      -0.00025170       0.00035702      -0.00043547
Cl       4.70060339       1.28752881       8.14168301       0.00025286      -0.00035746       0.00044093
