9
Lattice="4.440684087992875 1.3394795003466774e-07 2.5638301594513435 1.4802280942589963 4.186717279392571 2.5638302657287464 -1.6556768285983925e-08 1.1845532642901126e-07 5.127660347579842" Properties=species:S:1:pos:R:3:forces:R:3 energy=-49.63441848754883 free_energy=-49.63441848754883 stress="0.0005564956227317452 -4.9606153851300405e-08 5.305089145757336e-10 -4.9606153851300405e-08 0.000556503888219595 3.608235843444163e-08 5.305089145757336e-10 3.608235843444163e-08 0.0005564324092119932" pbc="T T T"
V        1.48022809       1.04667925       2.56382962       0.00000256       0.00000083      -0.00000584
V        4.44068484       3.14003820       7.69149032       0.00000341       0.00000130      -0.00000370
Fe       0.00000003      -0.00000001      -0.00000015       0.00000208      -0.00000128       0.00000038
F        1.54293765       1.09102164       5.12766066      -0.00428772      -0.00303264       0.00000057
F        4.37797446       3.09569611       5.12766067       0.00428443       0.00303032       0.00000003
F        3.66921542       1.09102158       3.90005343       0.00214376      -0.00303175      -0.00371145
F        2.25169657       3.09569533       6.35526749      -0.00214767       0.00303307       0.00371741
F        2.25169634       3.09569587       3.90005364      -0.00214493       0.00303066      -0.00371061
F        3.66921518       1.09102201       6.35526739       0.00214375      -0.00303052       0.00371304
