9
Lattice="5.936818881281744 6.639667553123082e-08 3.4276240360453527 1.9789396919043227 5.59728647789753 3.4276240322157574 4.6457917832761046e-08 2.816047164021955e-08 6.855247991623257" Properties=species:S:1:pos:R:3:forces:R:3 energy=-42.22124099731445 free_energy=-42.22124099731445 stress="-4.885547241428867e-06 1.5689959553810695e-08 -1.6147772008423544e-09 1.5689959553810695e-08 -4.8995557335729245e-06 -7.925330614000359e-09 -1.6147772008423544e-09 -7.925330614000359e-09 -4.973207978764549e-06" pbc="T T T"
V        1.97893946       1.39932139       3.42762432       0.00000022       0.00000032       0.00000129
V        5.93681928       4.19796518      10.28287160      -0.00000039      -0.00000036      -0.00000168
Fe       0.00000033      -0.00000019      -0.00000042      -0.00000951      -0.00000136       0.00000852
Te       1.97194388       1.39437485       6.85524804       0.00045925       0.00032470       0.00000014
Te       5.94381442       4.20291159       6.85524821      -0.00045155      -0.00031868       0.00000101
Te       4.95084691       1.39437490       5.13537747      -0.00022683       0.00031961       0.00039498
Te       2.96491146       4.20291223       8.57511901       0.00023196      -0.00032715      -0.00040219
Te       2.96491152       4.20291150       5.13537728       0.00022664      -0.00032264       0.00039637
Te       4.95084725       1.39437486       8.57511881      -0.00022968       0.00032572      -0.00039800
