9
Lattice="5.523270359879904 4.724259938024319e-08 3.188861379349232 1.8410901761571106 5.207388889762983 3.188861359160028 -4.712495807024965e-08 -5.804926071988844e-08 6.377722840321255" Properties=species:S:1:pos:R:3:forces:R:3 energy=-44.792076110839844 free_energy=-44.792076110839844 stress="8.914398495107889e-05 -1.0978449260790057e-08 -2.095963402837242e-08 -1.0978449260790057e-08 8.914607315091416e-05 -3.059766839896838e-08 -2.095963402837242e-08 -3.059766839896838e-08 8.914421050576493e-05" pbc="T T T"
V        1.84109017       1.30184675       3.18885938      -0.00000365      -0.00000165      -0.00001191
V        5.52327073       3.90554173       9.56658794       0.00000414      -0.00000036       0.00002794
Fe      -0.00000001       0.00000007      -0.00000095      -0.00000052       0.00000120       0.00002266
Se       1.85879231       1.31436489       6.37772260      -0.00627270      -0.00443628       0.00000085
Se       5.50556735       3.89302471       6.37772184       0.00627103       0.00444075      -0.00000665
Se       4.59387546       1.31436595       4.79862337       0.00314660      -0.00443691      -0.00544229
Se       2.77048477       3.89302365       7.95682258      -0.00314203       0.00442719       0.00542375
Se       2.77048757       3.89302388       4.79862281      -0.00313337       0.00444299      -0.00544134
Se       4.59387416       1.31436387       7.95682198       0.00313038      -0.00443715       0.00542742
