9
Lattice="3.7319909405373117 -1.5042537725032175 6.216612836892585 1.0404108258974325 3.412125360528014 3.688452204585658 -0.4438938818121843 -1.7738060725594094 10.100654003301011" Properties=species:S:1:pos:R:3:forces:R:3 energy=-52.045257568359375 free_energy=-52.045257568359375 stress="-0.000394099042750895 -7.349115912802517e-05 8.396263001486659e-05 -7.349115912802517e-05 8.83233587956056e-05 -2.9506092687370256e-05 8.396263001486659e-05 -2.9506092687370256e-05 0.00013759263674728572" pbc="T T T"
V        0.69529159       0.51593163       3.23203154       0.02357432      -0.01932110      -0.00926122
V        2.95241898       1.08357861      14.57677120      -0.02309974      -0.01930586      -0.00958411
Ge      -1.39092955       0.74685162       0.73909824      -0.03880313       0.03393633      -0.01632932
F        0.40227320      -1.00985680      11.16274678       0.06255783       0.01396139       0.01359330
F        3.61560131       0.87227374       9.91064163      -0.03979184      -0.02450354       0.00073428
F        2.46771805      -1.70065953       8.93638918      -0.02518127       0.02992003       0.03063078
F        2.09854570      -0.44868588      13.80445635       0.02790301      -0.02850521      -0.00911241
F        2.80923346       2.25947977       6.28203245       0.00874745      -0.01318640       0.01146656
F        3.75749479      -1.85742888      11.25806671       0.00409305       0.02700436      -0.01213790
