9
Lattice="5.716412117545416 1.025933121389408e-07 3.3003721092313185 1.905470805794735 5.389485176255327 3.300372103653509 6.742956502750015e-08 4.084850383227658e-08 6.600744101671217" Properties=species:S:1:pos:R:3:forces:R:3 energy=-36.516815185546875 free_energy=-36.516815185546875 stress="8.981885184766725e-05 -1.8867066131633692e-08 -8.109867444261454e-09 -1.8867066131633692e-08 8.984403393696994e-05 -4.635078809656079e-08 -8.109867444261454e-09 -4.635078809656079e-08 8.982403232948855e-05" pbc="T T T"
V        1.90547083       1.34737104       3.30037242       0.00000172      -0.00000123       0.00000257
V        5.71641208       4.04211334       9.90111683      -0.00000106      -0.00000415      -0.00000026
Ge      -0.00000004       0.00000020       0.00000016       0.00000265      -0.00000325      -0.00000502
Cl       1.90155625       1.34460366       6.60074383       0.00275616       0.00194882      -0.00000176
Cl       5.72032674       4.04488191       6.60074386      -0.00275688      -0.00194883       0.00000020
Cl       4.76563410       1.34460352       4.94716758      -0.00138000       0.00195213       0.00238774
Cl       2.85624888       4.04488189       8.25432021       0.00137743      -0.00194607      -0.00238333
Cl       2.85624906       4.04488222       4.94716821       0.00137675      -0.00194570       0.00238457
Cl       4.76563402       1.34460355       8.25432014      -0.00137681       0.00194830      -0.00238466
