9
Lattice="6.207472043119415 7.833570146671668e-08 3.5838856883787202 2.069157398317703 5.852460820851742 3.5838857286391588 -3.3311307717547095e-08 2.5754132046533402e-08 7.167771434454314" Properties=species:S:1:pos:R:3:forces:R:3 energy=-36.22632598876953 free_energy=-36.22632598876953 stress="0.0002026186848524958 -6.9030314797657866e-09 -6.177806266549624e-09 -6.9030314797657866e-09 0.00020260906603652984 9.387510324643245e-09 -6.177806266549624e-09 9.387510324643245e-09 0.00020261260215193033" pbc="T T T"
V        2.06915717       1.46311471       3.58388618      -0.00000182      -0.00000270       0.00000115
V        6.20747246       4.38934589      10.75165792       0.00000286       0.00000117       0.00000357
Ge       0.00000004      -0.00000009      -0.00000040       0.00000159      -0.00000173      -0.00000035
Te       2.20296576       1.55773214       7.16777163      -0.00482179      -0.00341123       0.00000025
Te       6.07366342       4.29472917       7.16777139       0.00482139       0.00341044      -0.00000002
Te       5.10598924       1.55773226       5.49170983       0.00241171      -0.00340928      -0.00417510
Te       3.17063977       4.29472923       8.84383244      -0.00241396       0.00341327       0.00417566
Te       3.17064031       4.29472870       5.49170980      -0.00241181       0.00341035      -0.00417833
Te       5.10598945       1.55773170       8.84383260       0.00241186      -0.00341034       0.00417313
