9
Lattice="6.64146897862831 -7.767720968726222e-08 3.8344538298427358 2.213822933434985 6.261637048479161 3.834453805951403 -3.878846716004157e-08 -5.668834607671988e-08 7.668907726869035" Properties=species:S:1:pos:R:3:forces:R:3 energy=-29.22532081604004 free_energy=-29.22532081604004 stress="0.00017753237625584006 -6.31354413194174e-10 8.870030265839546e-10 -6.31354413194174e-10 0.00017752667190507054 5.866584440461509e-10 8.870030265839546e-10 5.866584440461509e-10 0.00017753176507540047" pbc="T T T"
V        2.21382294       1.56540925       3.83445384      -0.00000023       0.00000020      -0.00000062
V        6.64146873       4.69622772      11.50336146      -0.00000063      -0.00000001       0.00000027
Ge       0.00000000       0.00000001      -0.00000007       0.00000007       0.00000042      -0.00000051
I        2.31085503       1.63402107       7.66890773      -0.00026058      -0.00018407       0.00000019
I        6.54443705       4.62761590       7.66890782       0.00026014       0.00018430       0.00000013
I        5.48604159       1.63402103       5.83571305       0.00013061      -0.00018407      -0.00022646
I        3.36925036       4.62761575       9.50210241      -0.00013004       0.00018340       0.00022606
I        3.36925031       4.62761585       5.83571281      -0.00012997       0.00018422      -0.00022539
I        5.48604145       1.63402108       9.50210235       0.00013056      -0.00018437       0.00022618
