9
Lattice="4.385072339101821 -3.5170432987990817e-09 2.5317227130854634 1.4616907847251934 4.134285769322547 2.5317226986393058 2.4877060043246105e-08 -1.0211957041405385e-10 5.063445383082596" Properties=species:S:1:pos:R:3:forces:R:3 energy=-55.72178649902344 free_energy=-55.72178649902344 stress="0.0002174826804548502 1.078899671824729e-07 3.672004922350425e-08 1.078899671824729e-07 0.00021760203526355326 8.30595823231306e-08 3.672004922350425e-08 8.30595823231306e-08 0.00021717367053497583" pbc="T T T"
V        1.46169056       1.03357105       2.53172203      -0.00000481      -0.00000404      -0.00000980
V        4.38507108       3.10071410       7.59516719      -0.00001470      -0.00000290      -0.00001144
Ge       0.00000004      -0.00000002       0.00000001      -0.00000211      -0.00000343      -0.00000213
O        1.49733292       1.05877422       5.06344504      -0.00189626      -0.00134075      -0.00000246
O        4.34943024       3.07551173       5.06344602       0.00190389       0.00134695       0.00000949
O        3.63640644       1.05877429       3.82845140       0.00095439      -0.00134063      -0.00164223
O        2.21035755       3.07551127       6.29844037      -0.00094587       0.00134122       0.00165009
O        2.21035783       3.07551212       3.82845119      -0.00094402       0.00134623      -0.00164008
O        3.63640583       1.05877431       6.29844002       0.00094968      -0.00134242       0.00164998
