9
Lattice="5.4529713335436005 4.6065059168092265e-07 3.148276247563067 1.81765725720648 5.141114386476366 3.14827674687893 8.594334927073063e-10 6.12142192789533e-07 6.296552493637566" Properties=species:S:1:pos:R:3:forces:R:3 energy=-39.605865478515625 free_energy=-39.605865478515625 stress="-2.033003511314746e-05 -1.0446250797713219e-07 -5.3120192688993484e-08 -1.0446250797713219e-07 -2.0678095097537152e-05 -7.893660836089111e-08 -5.3120192688993484e-08 -7.893660836089111e-08 -2.0641413357225247e-05" pbc="T T T"
V        1.81764962       1.28528304       3.14827608      -0.00003328       0.00001521      -0.00000083
V        5.45298488       3.85583278       9.44484619       0.00005927      -0.00001499       0.00007586
Ge       0.00000028      -0.00000038       0.00000065      -0.00000207       0.00000289      -0.00000202
Se       2.02454545       1.43157611       6.29655083      -0.00077701      -0.00053273      -0.00000756
Se       5.24607920       3.70954366       6.29654055       0.00076440       0.00054742      -0.00004300
Se       4.44070080       1.43157067       4.90159012       0.00039737      -0.00055400      -0.00066170
Se       2.82992504       3.70954082       7.69151537      -0.00040732       0.00053707       0.00065537
Se       2.82992948       3.70954102       4.90158677      -0.00039570       0.00053556      -0.00067690
Se       4.44069969       1.43157447       7.69151608       0.00039449      -0.00053646       0.00066099
