9
Lattice="5.468969868953676 2.677329298695947e-07 3.15751093061432 1.822990175927132 5.1561941669434495 3.1575109874460656 2.6682845801696417e-08 8.847189856863009e-08 6.315021815012695" Properties=species:S:1:pos:R:3:forces:R:3 energy=-42.507720947265625 free_energy=-42.507720947265625 stress="-5.281706762616523e-06 -4.7262340707732164e-09 -2.40575346310834e-08 -4.7262340707732164e-09 -5.310361757437931e-06 2.6481396631083953e-08 -2.40575346310834e-08 2.6481396631083953e-08 -5.293230969982687e-06" pbc="T T T"
V        1.82299000       1.28904909       3.15750989       0.00000059       0.00000099      -0.00000502
V        5.46897004       3.86714517       9.47253187      -0.00000225      -0.00000436      -0.00000139
Ge      -0.00000001       0.00000001       0.00000013      -0.00000113      -0.00000220       0.00000255
S        1.87569840       1.32631791       6.31501910      -0.00008929      -0.00006777      -0.00001100
S        5.41626171       3.82987567       6.31501968       0.00009459       0.00006753      -0.00000973
S        4.53112197       1.32631852       4.78191438       0.00005305      -0.00007039      -0.00007570
S        2.76083865       3.82987422       7.84813229      -0.00004753       0.00005394       0.00008518
S        2.76083891       3.82987673       4.78191409      -0.00004801       0.00007290      -0.00007302
S        4.53112071       1.32632064       7.84813290       0.00004020      -0.00005043       0.00008768
