9
Lattice="5.417229353459872 7.573748439621564e-08 3.1276387130620256 1.8057431769590218 5.107412542269352 3.127638734308949 3.1266615517186064e-09 2.8232958306599654e-08 6.255277420708527" Properties=species:S:1:pos:R:3:forces:R:3 energy=-51.62272262573242 free_energy=-51.62272262573242 stress="0.00016395172860939056 5.21348582083192e-08 -7.521040856772743e-08 5.21348582083192e-08 0.00016391409735661 1.1826240609025263e-07 -7.521040856772743e-08 1.1826240609025263e-07 0.00016387322102673352" pbc="T T T"
V        1.80574306       1.27685307       3.12763854       0.00000020      -0.00000036       0.00000136
V        5.41722946       3.83055958       9.38291580       0.00000056       0.00000037      -0.00000258
Hf      -0.00000004       0.00000012       0.00000027       0.00000164       0.00000122      -0.00000680
S        1.95068559       1.37934306       6.25527709      -0.00628442      -0.00444296      -0.00000237
S        5.27228669       3.72806939       6.25527755       0.00628334       0.00444248       0.00000094
S        4.44188659       1.37934284       4.81698209       0.00313941      -0.00444353      -0.00543979
S        2.78108611       3.72806971       7.69357317      -0.00314140       0.00444505       0.00544357
S        2.78108585       3.72807003       4.81698167      -0.00313865       0.00443602      -0.00543402
S        4.44188673       1.37934272       7.69357334       0.00313911      -0.00443830       0.00544004
