9
Lattice="4.53509623316789 4.2793170151243344e-08 2.6183391892720094 1.5116987932313535 4.275729826434875 2.6183391745560147 3.0209666556618526e-08 3.3381347029046217e-09 5.236678326219328" Properties=species:S:1:pos:R:3:forces:R:3 energy=-62.794639587402344 free_energy=-62.794639587402344 stress="0.00019399242592044175 -3.0964475428163496e-08 2.6998591806659533e-08 -3.0964475428163496e-08 0.0001937404158525169 -6.161783261404707e-08 2.6998591806659533e-08 -6.161783261404707e-08 0.00019364159379620105" pbc="T T T"
V        1.51169759       1.06893415       2.61833910      -0.00001337       0.00001933      -0.00000150
V        4.53509722       3.20679814       7.85501814       0.00000880       0.00001042       0.00000516
Hf       0.00000002      -0.00000010      -0.00000003       0.00000277       0.00000205       0.00000491
O        1.62619728       1.14989483       5.23667806      -0.00367916      -0.00260949      -0.00000016
O        4.42059807       3.12583432       5.23667838       0.00368863       0.00259751      -0.00000051
O        3.72199837       1.14989487       4.02666762       0.00184649      -0.00260717      -0.00318050
O        2.32479663       3.12583448       6.44668912      -0.00184810       0.00259602       0.00318587
O        2.32479732       3.12583405       4.02666692      -0.00184688       0.00259995      -0.00319791
O        3.72199762       1.14989476       6.44668949       0.00184083      -0.00260884       0.00318509
