9
Lattice="6.341700199704285 4.0222543907948684e-08 3.6613823020179628 2.1139001222444866 5.979012347289428 3.6613822712667825 2.3752990208927968e-09 -3.598277327495812e-08 7.322764599921804" Properties=species:S:1:pos:R:3:forces:R:3 energy=-43.57002258300781 free_energy=-43.57002258300781 stress="0.00013259862316772342 2.1501572078364006e-08 3.662188552411294e-09 2.1501572078364006e-08 0.00013257900718599558 5.0590935884997634e-09 3.662188552411294e-09 5.0590935884997634e-09 0.00013256103557068855" pbc="T T T"
V        2.11390015       1.49475349       3.66138224       0.00000044       0.00000214      -0.00000102
V        6.34170016       4.48425902      10.98414692      -0.00000045      -0.00000178       0.00000129
Hf      -0.00000013       0.00000000       0.00000014       0.00000078      -0.00000127       0.00000301
Te       2.25401006       1.59382585       7.32276469      -0.00124958      -0.00088303      -0.00000047
Te       6.20159044       4.38518658       7.32276468       0.00124918       0.00088242      -0.00000141
Te       5.21469531       1.59382574       5.61341196       0.00062323      -0.00087956      -0.00107971
Te       3.24090499       4.38518631       9.03211702      -0.00062451       0.00088271       0.00108035
Te       3.24090504       4.38518651       5.61341196      -0.00062286       0.00088048      -0.00108069
Te       5.21469528       1.59382594       9.03211703       0.00062387      -0.00088213       0.00107859
