9
Lattice="4.45574428280398 6.924499977827953e-08 2.5725251306080326 1.485248132419811 4.200916139602773 2.5725251776037448 5.1658529689697826e-08 9.408586916426841e-08 5.1450501717408486" Properties=species:S:1:pos:R:3:forces:R:3 energy=-56.296993255615234 free_energy=-56.296993255615234 stress="-5.265832442091778e-06 8.523726080511551e-08 -2.9622976072118945e-08 8.523726080511551e-08 -5.213522854319308e-06 -3.182010743785213e-08 -2.9622976072118945e-08 -3.182010743785213e-08 -5.345072167983744e-06" pbc="T T T"
V        1.48524845       1.05022913       2.57252614       0.00000358       0.00000182       0.00001648
V        4.45574383       3.15068644       7.71757758      -0.00000730      -0.00001355       0.00003486
Ir       0.00000002       0.00000013      -0.00000028       0.00000668      -0.00000739       0.00001706
O        1.52333649       1.07716193       5.14504974       0.00065175       0.00046392      -0.00000864
O        4.41765576       3.12375469       5.14504922      -0.00065780      -0.00046400      -0.00001216
O        3.69407635       1.07716197       3.89177286      -0.00032599       0.00047125       0.00056323
O        2.24691607       3.12375478       6.39832688       0.00033015      -0.00046355      -0.00058005
O        2.24691705       3.12375438       3.89177260       0.00033351      -0.00046252       0.00055194
O        3.69407588       1.07716165       6.39832713      -0.00033422       0.00047396      -0.00058227
