9
Lattice="5.256227621602662 8.227959720602984e-09 3.0346843453919994 1.752075896672875 4.955618972125912 3.0346843193281807 -1.2968510499446555e-08 -4.1091596504073905e-08 6.069368713246129" Properties=species:S:1:pos:R:3:forces:R:3 energy=-48.05961227416992 free_energy=-48.05961227416992 stress="-2.735857378866058e-05 -2.1562286178777867e-08 2.7668314306339425e-09 -2.1562286178777867e-08 -2.7376681828172877e-05 -2.2646686304028663e-08 2.7668314306339425e-09 -2.2646686304028663e-08 -2.7310583391226828e-05" pbc="T T T"
V        1.75207556       1.23890559       3.03468392      -0.00000011       0.00000252      -0.00000132
V        5.25622782       3.71671432       9.10405263       0.00000093       0.00000206      -0.00000191
Ir      -0.00000017       0.00000023       0.00000012      -0.00000088      -0.00000064      -0.00000249
S        1.86351933       1.31770721       6.06936927      -0.00099963      -0.00070715       0.00000180
S        5.14478397       3.63791121       6.06936863       0.00100189       0.00070822      -0.00000335
S        4.32446775       1.31770665       4.64853991       0.00049773      -0.00070876      -0.00086510
S        2.68383628       3.63791143       7.49019775      -0.00050238       0.00071114       0.00086951
S        2.68383551       3.63791119       4.64853958      -0.00049978       0.00070405      -0.00086862
S        4.32446792       1.31770783       7.49019762       0.00050262      -0.00071150       0.00087100
