9
Lattice="5.535811357309645 1.4735646411548768e-07 3.196102028264721 1.8452703841561868 5.219213888168039 3.1961023871620555 -8.546113686107918e-08 3.7912735272354196e-07 6.3922042045526215" Properties=species:S:1:pos:R:3:forces:R:3 energy=-44.16744613647461 free_energy=-44.16744613647461 stress="-1.8251901110488689e-06 -1.1458846094214437e-09 7.781814304053114e-09 -1.1458846094214437e-09 -1.9204921954951715e-06 -8.331224599089637e-09 7.781814304053114e-09 -8.331224599089637e-09 -1.9310211882839212e-06" pbc="T T T"
V        1.84526948       1.30480199       3.19610196       0.00000196      -0.00000521      -0.00000284
V        5.53581088       3.91441245       9.58830563      -0.00000904       0.00000711      -0.00000583
Ir       0.00000019       0.00000015       0.00000013      -0.00000163      -0.00000146      -0.00000320
Se       2.00000003       1.41421178       6.39220417       0.00248978       0.00175038      -0.00000162
Se       5.38108209       3.80500174       6.39220491      -0.00248516      -0.00175393       0.00000181
Se       4.53581204       1.41421356       4.92815136      -0.00123845       0.00175643       0.00215778
Se       2.84527086       3.80500023       7.85625784       0.00124076      -0.00175285      -0.00215039
Se       2.84526994       3.80500110       4.92815152       0.00123933      -0.00175437       0.00215811
Se       4.53581106       1.41421438       7.85625724      -0.00123748       0.00175387      -0.00215337
