9
Lattice="6.0316347047984005 9.218317713203592e-09 3.4823658894790874 2.0105449108204487 5.686679749876946 3.482365888561342 1.943339030488566e-08 1.2617496720303392e-08 6.964731745298543" Properties=species:S:1:pos:R:3:forces:R:3 energy=-32.430152893066406 free_energy=-32.430152893066406 stress="0.00011012689355993643 5.260733626499814e-09 -1.5964277011448758e-08 5.260733626499814e-09 0.00011016103235306218 -9.615424900744074e-09 -1.5964277011448758e-08 -9.615424900744074e-09 0.00011012745380867273" pbc="T T T"
V        2.01054482       1.42166998       3.48236636       0.00000001       0.00000018       0.00000172
V        6.03163477       4.26500997      10.44709816       0.00000115       0.00000012       0.00000147
Mg       0.00000008       0.00000004       0.00000019      -0.00000263      -0.00000085      -0.00000049
Br       2.06879788       1.46286081       6.96473153       0.00136078       0.00096281      -0.00000121
Br       5.97338173       4.22381893       6.96473165      -0.00135821      -0.00096083      -0.00000045
Br       4.99723573       1.46286117       5.27399721      -0.00067988       0.00096139       0.00117706
Br       3.04494378       4.22381869       8.65546588       0.00067941      -0.00096151      -0.00117780
Br       3.04494391       4.22381859       5.27399719       0.00067893      -0.00096316       0.00117706
Br       4.99723582       1.46286096       8.65546598      -0.00067951       0.00096194      -0.00117740
