9
Lattice="4.4184814626813775 -9.851383884473728e-08 2.551011394136311 1.4728270816468072 4.165783876226389 2.551011358976691 -6.388976771366806e-08 -8.82384374624274e-08 5.10202289893295" Properties=species:S:1:pos:R:3:forces:R:3 energy=-48.40883255004883 free_energy=-48.40883255004883 stress="0.00032252533128485084 -3.151057015315928e-08 4.746852155790293e-08 -3.151057015315928e-08 0.00032253883546218276 3.924775882069298e-08 4.746852155790293e-08 3.924775882069298e-08 0.0003225549007765949" pbc="T T T"
V        1.47282708       1.04144591       2.55101150      -0.00000092      -0.00000099       0.00000298
V        4.41848116       3.12433760       7.65303424      -0.00000096      -0.00000073      -0.00000029
Mg       0.00000004      -0.00000008       0.00000009      -0.00000098       0.00000119       0.00000144
F        1.50711669       1.06569242       5.10202261       0.00222957       0.00157803      -0.00000060
F        4.38419174       3.10009133       5.10202281      -0.00222850      -0.00157762      -0.00000013
F        3.66492269       1.06569261       3.85621245      -0.00111579       0.00157776       0.00192697
F        2.22638586       3.10009112       6.34783321       0.00111682      -0.00157853      -0.00192973
F        2.22638542       3.10009165       3.85621319       0.00111355      -0.00157429       0.00193362
F        3.66492316       1.06569215       6.34783266      -0.00111303       0.00157547      -0.00193423
