9
Lattice="6.61402534611131 4.134056822165156e-08 3.818609377535812 2.2046751487637235 6.2357629811810265 3.818609387205809 7.854512280589183e-09 1.7397242400349925e-08 7.637218741467207" Properties=species:S:1:pos:R:3:forces:R:3 energy=-28.35310173034668 free_energy=-28.35310173034668 stress="0.00012768275337293744 -1.1339068350935122e-08 -6.454409451350784e-09 -1.1339068350935122e-08 0.00012767617590725422 -2.7561104509743473e-09 -6.454409451350784e-09 -2.7561104509743473e-09 0.0001276905823033303" pbc="T T T"
V        2.20467491       1.55894096       3.81860938      -0.00000017       0.00000055       0.00000078
V        6.61402533       4.67682221      11.45582807      -0.00000017      -0.00000057      -0.00000056
Mg      -0.00000007      -0.00000006      -0.00000019      -0.00000043      -0.00000148       0.00000010
I        2.28363687       1.61477521       7.63721871       0.00184181       0.00130153      -0.00000012
I        6.53506350       4.62098784       7.63721868      -0.00184002      -0.00130094      -0.00000002
I        5.47220712       1.61477537       5.79629695      -0.00091959       0.00130099       0.00159436
I        3.34649346       4.62098787       9.47814076       0.00091985      -0.00130110      -0.00159347
I        3.34649376       4.62098760       5.79629704       0.00091946      -0.00130095       0.00159327
I        5.47220712       1.61477519       9.47814062      -0.00092072       0.00130196      -0.00159452
