9
Lattice="5.631480050546659 3.2698418751096065e-09 3.2513365637502734 1.877160010632366 5.3094103825958 3.251336579857261 1.2291113944057734e-08 2.841807839128926e-08 6.502673106211694" Properties=species:S:1:pos:R:3:forces:R:3 energy=-35.68418502807617 free_energy=-35.68418502807617 stress="0.00011344216181896627 6.9096928179135375e-09 -5.156748805745792e-09 6.9096928179135375e-09 0.00011341623758198693 -2.669842125158084e-08 -5.156748805745792e-09 -2.669842125158084e-08 0.0001133930854848586" pbc="T T T"
V        1.87715999       1.32735207       3.25133632       0.00000180      -0.00000095      -0.00000071
V        5.63147976       3.98205826       9.75401063      -0.00000390       0.00000240       0.00000403
Mg       0.00000010       0.00000018       0.00000021      -0.00000037      -0.00000322       0.00000000
Cl       1.92368034       1.36024692       6.50267327       0.00119870       0.00084555       0.00000105
Cl       5.58495977       3.94916324       6.50267266      -0.00119525      -0.00084382      -0.00000276
Cl       4.66963983       1.36024726       4.91729233      -0.00059840       0.00084654       0.00103657
Cl       2.83900027       3.94916330       8.08805355       0.00059771      -0.00084575      -0.00103649
Cl       2.83900017       3.94916304       4.91729222       0.00059863      -0.00084605       0.00103521
Cl       4.66964006       1.36024734       8.08805376      -0.00059897       0.00084541      -0.00103690
