9
Lattice="5.211838214183044 -1.8587365648702932e-08 3.009056765571045 1.7372794062591368 4.913768736519673 3.009056732565409 6.817835781788363e-08 7.785951578913383e-09 6.018113413053656" Properties=species:S:1:pos:R:3:forces:R:3 energy=-49.34491729736328 free_energy=-49.34491729736328 stress="1.4866052879369818e-05 8.401302764582397e-09 -1.5450529744498454e-08 8.401302764582397e-09 1.4806822036916856e-05 -3.229550671335346e-08 -1.5450529744498454e-08 -3.229550671335346e-08 1.4755471056560054e-05" pbc="T T T"
V        1.73728040       1.22844276       3.00905689       0.00000495       0.00000273      -0.00000010
V        5.21183833       3.68532644       9.02717360       0.00000102      -0.00000092       0.00001662
Mn       0.00000053      -0.00000066      -0.00000221      -0.00000435       0.00000345       0.00001672
S        1.79096752       1.26640474       6.01811294      -0.00364649      -0.00258130       0.00000116
S        5.15814943       3.64736413       6.01811355       0.00364524       0.00258446       0.00000498
S        4.31635432       1.26640714       4.56007942       0.00183249      -0.00258306      -0.00317365
S        2.63276098       3.64736321       7.47614766      -0.00182241       0.00256222       0.00314844
S        2.63276366       3.64736325       4.56007998      -0.00182974       0.00258759      -0.00316375
S        4.31635546       1.26640408       7.47614605       0.00181931      -0.00257492       0.00314963
