9
Lattice="5.618725068316924 4.399064564967233e-08 3.2439722945913907 1.8729083431869549 5.297384605958829 3.2439723888036633 -4.2435458445920675e-09 1.1238528800883515e-07 6.487944596533066" Properties=species:S:1:pos:R:3:forces:R:3 energy=-45.605560302734375 free_energy=-45.605560302734375 stress="1.639972765588027e-06 -8.122160011225787e-08 1.6369611444133625e-08 -8.122160011225787e-08 1.744809992487717e-06 -5.320923079921158e-08 1.6369611444133625e-08 -5.320923079921158e-08 1.8026264569925843e-06" pbc="T T T"
V        1.87290945       1.32434623       3.24396850       0.00000869       0.00000055      -0.00002675
V        5.61872427       3.97303848       9.73191974       0.00000074       0.00000738       0.00001708
Mn       0.00000080       0.00000069      -0.00000035      -0.00000279       0.00000086       0.00000495
Se       1.90504049       1.34706501       6.48794714       0.00022256       0.00014931       0.00001096
Se       5.58659515       3.95032113       6.48794342      -0.00023586      -0.00015616      -0.00000604
Se       4.66620619       1.34706605       4.89378488      -0.00010249       0.00016108       0.00018567
Se       2.82542592       3.95031748       8.08210426       0.00010619      -0.00016153      -0.00018927
Se       2.82542708       3.95031825       4.89378510       0.00011075      -0.00015438       0.00018695
Se       4.66620459       1.34706546       8.08210377      -0.00010782       0.00015280      -0.00018394
