9
Lattice="5.9770731482438135 -9.213017779229801e-09 3.450864752951399 1.99235773592559 5.635238565763482 3.4508647035351734 1.8286165904340892e-08 -4.759195863530025e-08 6.901729474230204" Properties=species:S:1:pos:R:3:forces:R:3 energy=-42.60273742675781 free_energy=-42.60273742675781 stress="-0.0001168283197330311 8.00313504356609e-09 1.895702039789171e-09 8.00313504356609e-09 -0.00011684209312079474 -1.610908850757653e-09 1.895702039789171e-09 -1.610908850757653e-09 -0.00011686989455483854" pbc="T T T"
V        1.99235765       1.40880890       3.45086470      -0.00000046      -0.00000290      -0.00000076
V        5.97707342       4.22642911      10.35259351       0.00000052      -0.00000022      -0.00000422
Mn       0.00000019       0.00000013      -0.00000020      -0.00000206      -0.00000186       0.00000105
Te       2.03293545       1.43750224       6.90172962      -0.00204261      -0.00144436      -0.00000052
Te       5.93649515       4.19773637       6.90172968       0.00204341       0.00144716       0.00000156
Te       4.96060544       1.43750223       5.21143851       0.00102224      -0.00144599      -0.00176829
Te       3.00882528       4.19773637       8.59202068      -0.00101985       0.00144435       0.00176969
Te       3.00882530       4.19773629       5.21143855      -0.00102305       0.00144604      -0.00176832
Te       4.96060572       1.43750242       8.59202061       0.00102187      -0.00144236       0.00176981
