9
Lattice="5.895950265904787 1.2403874352025887e-07 3.4040281632591967 1.9653168670971484 5.558754757763586 3.404028172177954 -7.679844254883292e-08 -4.338137028597263e-08 6.808056459537128" Properties=species:S:1:pos:R:3:forces:R:3 energy=-46.62730407714844 free_energy=-46.62730407714844 stress="8.262786286650226e-05 5.094861421639507e-08 1.5629398886218837e-09 5.094861421639507e-08 8.25639144750312e-05 -4.157084010358858e-09 1.5629398886218837e-09 -4.157084010358858e-09 8.251739200204611e-05" pbc="T T T"
V        1.96531743       1.38968887       3.40402883       0.00000400       0.00000448       0.00000122
V        5.89595232       4.16906640      10.21208149       0.00001075      -0.00000022      -0.00001788
Mo      -0.00000057       0.00000034      -0.00000165       0.00000719      -0.00000554       0.00002424
Se       1.99795568       1.41276867       6.80805685      -0.00359164      -0.00253592       0.00000243
Se       5.86331148       4.14598597       6.80805742       0.00358698       0.00253431       0.00000661
Se       4.89697113       1.41276768       5.13430888       0.00178847      -0.00254323      -0.00310510
Se       2.96429460       4.14598679       8.48180489      -0.00178847       0.00253005       0.00309929
Se       2.96429388       4.14598635       5.13430945      -0.00180331       0.00254101      -0.00310634
Se       4.89697237       1.41276824       8.48180501       0.00178600      -0.00252496       0.00309555
