9
Lattice="4.523239627585002 -3.728649665770004e-09 2.611493658176256 1.5077465422531222 4.264551133186755 2.6114936525640853 -1.626484649077847e-08 -1.8374453777864222e-08 5.222987344524044" Properties=species:S:1:pos:R:3:forces:R:3 energy=-58.47809600830078 free_energy=-58.47809600830078 stress="0.00061487325001508 9.463089156724891e-08 2.6054021162735808e-08 9.463089156724891e-08 0.000614929071161896 -5.4283830763779406e-08 2.6054021162735808e-08 -5.4283830763779406e-08 0.0006147635285742581" pbc="T T T"
V        1.50774693       1.06613711       2.61149361       0.00000498      -0.00000685      -0.00000122
V        4.52323980       3.19841367       7.83448109       0.00000275       0.00000260       0.00000328
Mo      -0.00000006       0.00000007       0.00000006      -0.00000260       0.00000093       0.00000311
O        1.55101498       1.09673413       5.22298728       0.00705367       0.00499594       0.00000041
O        4.47997098       3.16781731       5.22298721      -0.00705665      -0.00499022      -0.00000286
O        3.74773161       1.09673321       3.95471237      -0.00353566       0.00499243       0.00611275
O        2.28325496       3.16781800       6.49126227       0.00353500      -0.00499231      -0.00611734
O        2.28325423       3.16781812       3.95471266       0.00353310      -0.00498754       0.00611651
O        3.74773122       1.09673297       6.49126212      -0.00353467       0.00498492      -0.00611347
