9
Lattice="4.524474735347249 -1.0000963702529273e-07 2.6122065942182044 1.5081581784468245 4.265715317320539 2.6122065463770996 7.340394780078194e-09 -5.340268220841116e-08 5.224413175722476" Properties=species:S:1:pos:R:3:forces:R:3 energy=-62.48370361328125 free_energy=-62.48370361328125 stress="5.2650899306172505e-05 1.1401495214613533e-07 -6.98018141065404e-08 1.1401495214613533e-07 5.367195626604371e-05 1.1965899204824382e-07 -6.98018141065404e-08 1.1965899204824382e-07 5.3281230066204444e-05" pbc="T T T"
V        1.50816138       1.06642566       2.61220749       0.00004580      -0.00004587       0.00001374
V        4.52447492       3.19928927       7.83662132       0.00000885       0.00004170       0.00002144
Nb      -0.00000015      -0.00000006      -0.00000014      -0.00000121       0.00000377      -0.00000250
O        1.59761261       1.12968204       5.22441300      -0.00150836      -0.00107300      -0.00000613
O        4.43501943       3.13603349       5.22441252       0.00149763       0.00108039      -0.00000914
O        3.72566678       1.12968178       3.99577916       0.00073415      -0.00107658      -0.00131214
O        2.30696425       3.13603350       6.45304593      -0.00075847       0.00107515       0.00129855
O        2.30696491       3.13603318       3.99577925      -0.00075322       0.00107300      -0.00130892
O        3.72566733       1.12968165       6.45304668       0.00073671      -0.00108016       0.00130498
