9
Lattice="5.436982817633196 -8.67819696998371e-08 3.139043545228818 1.8123275452894347 5.126036508804265 3.1390435084564454 -3.188409858880161e-08 -6.758221346768128e-08 6.278087145682503" Properties=species:S:1:pos:R:3:forces:R:3 energy=-51.844993591308594 free_energy=-51.844993591308594 stress="-0.00015234721649903804 -3.362446321375501e-08 5.188284646351349e-08 -3.362446321375501e-08 -0.00015234044985845685 -5.227756361136926e-08 5.188284646351349e-08 -5.227756361136926e-08 -0.00015227924450300634" pbc="T T T"
V        1.81232779       1.28150942       3.13904364       0.00000164       0.00000202       0.00000109
V        5.43698261       3.84452734       9.41713051       0.00000011       0.00000124      -0.00000160
Nb       0.00000060       0.00000028       0.00000017      -0.00000319      -0.00000004       0.00000723
S        1.92090490       1.35828459       6.27808653       0.00110176       0.00077952       0.00000158
S        5.32840572       3.76775199       6.27808696      -0.00110415      -0.00078058       0.00000162
S        4.47653003       1.35828462       4.80259595      -0.00054769       0.00077543       0.00095224
S        2.77277977       3.76775187       7.75357861       0.00055525      -0.00078505      -0.00095882
S        2.77277987       3.76775098       4.80259610       0.00054766      -0.00077289       0.00094871
S        4.47653014       1.35828433       7.75357832      -0.00055128       0.00078028      -0.00095239
