9
Lattice="5.8254866325553385 2.358988245513313e-08 3.3633462730800594 1.9418288595180009 5.4923214482115235 3.3633463427798533 -3.856576519068628e-08 5.809433547920186e-08 6.726692612957961" Properties=species:S:1:pos:R:3:forces:R:3 energy=-46.82284927368164 free_energy=-46.82284927368164 stress="0.0001924381940625608 -1.2439854479850965e-08 -5.442456085802405e-08 -1.2439854479850965e-08 0.00019243355200160295 7.240227972715729e-08 -5.442456085802405e-08 7.240227972715729e-08 0.00019242989947088063" pbc="T T T"
V        1.94182980       1.37308053       3.36334647       0.00000444      -0.00000200       0.00000251
V        5.82548536       4.11924059      10.09003950      -0.00000714      -0.00000265       0.00000241
Nb      -0.00000014      -0.00000017      -0.00000019       0.00000358      -0.00000606      -0.00000107
Se       2.02058161       1.42876709       6.72669232       0.00057966       0.00040848      -0.00000123
Se       5.74673331       4.06355466       6.72669233      -0.00057747      -0.00040726      -0.00000121
Se       4.81519557       1.42876750       5.11322120      -0.00028994       0.00041019       0.00049784
Se       2.95212025       4.06355430       8.34016361       0.00028872      -0.00040508      -0.00049213
Se       2.95212014       4.06355483       5.11322169       0.00029128      -0.00040929       0.00049827
Se       4.81519592       1.42876681       8.34016395      -0.00029296       0.00041361      -0.00050543
