9
Lattice="4.241369691757653 -1.3846124110778914e-07 2.4487556904519185 1.4137897738756957 3.998801323177672 2.4487556780406443 -1.1013565516840489e-07 -9.307830336425483e-08 4.89751157166439" Properties=species:S:1:pos:R:3:forces:R:3 energy=-50.445648193359375 free_energy=-50.445648193359375 stress="3.976561492891051e-05 4.756597249411243e-08 3.9305899690589285e-07 4.756597249411243e-08 4.011994678876363e-05 2.0674958989275183e-07 3.9305899690589285e-07 2.0674958989275183e-07 4.011083365185186e-05" pbc="T T T"
V        1.41379074       0.99970041       2.44875756       0.00001465       0.00000106       0.00002192
V        4.24136737       2.99910312       7.34626099      -0.00003081       0.00003357      -0.00007974
Ni       0.00000007       0.00000008       0.00000023      -0.00000068       0.00000366      -0.00000064
O        1.43199576       1.01257148       4.89751016       0.00020936       0.00012218      -0.00001503
O        4.22316469       2.98622836       4.89751488      -0.00020245      -0.00014076       0.00004395
O        3.52537164       1.01257202       3.68890006      -0.00010658       0.00012378       0.00017934
O        2.12978824       2.98622811       6.10612426       0.00011981      -0.00014368      -0.00016171
O        2.12978685       2.98622767       3.68889941       0.00009264      -0.00014478       0.00017268
O        3.52537188       1.01257323       6.10612401      -0.00009603       0.00014576      -0.00016153
