9
Lattice="5.3372138185199045 -2.0391884238056152e-07 3.081442181245585 1.7790709596462762 5.031974110928862 3.0814423907150155 -1.6771906318549205e-07 1.3795124035540426e-07 6.162884652989096" Properties=species:S:1:pos:R:3:forces:R:3 energy=-41.68235778808594 free_energy=-41.68235778808594 stress="0.0002669499081093818 -4.0917324639622166e-08 -1.3803217235874854e-08 -4.0917324639622166e-08 0.0002670027024578303 5.772721678454218e-08 -1.3803217235874854e-08 5.772721678454218e-08 0.0002670189132913947" pbc="T T T"
V        1.77907417       1.25799253       3.08144215       0.00001718      -0.00000462      -0.00000056
V        5.33721283       3.77397991       9.24433103      -0.00000185      -0.00000212       0.00002318
Ni      -0.00000008       0.00000007       0.00000048      -0.00000359       0.00000486      -0.00001768
Se       1.88738625       1.33458401       6.16288407       0.00778842       0.00550921      -0.00000493
Se       5.22889854       3.69739068       6.16288347      -0.00779545      -0.00550856      -0.00000341
Se       4.39351954       1.33458483       4.71596619      -0.00389829       0.00551103       0.00673881
Se       2.72276315       3.69738944       7.60980142       0.00388741      -0.00550412      -0.00674233
Se       2.72276532       3.69739135       4.71596635       0.00390294      -0.00550810       0.00674841
Se       4.39351860       1.33458342       7.60980125      -0.00389682       0.00550233      -0.00674143
