9
Lattice="5.570735631452573 -1.5440257063718557e-08 3.216265706524704 1.8569118625927405 5.252139879046442 3.2162657065262676 -3.7244457758436295e-08 -2.6333902425281946e-08 6.432531477558704" Properties=species:S:1:pos:R:3:forces:R:3 energy=-36.68817138671875 free_energy=-36.68817138671875 stress="0.00013612308248411864 -3.0111682036704224e-09 -4.234667283498084e-09 -3.0111682036704224e-09 0.00013612586189992726 -2.4095919703981394e-10 -4.234667283498084e-09 -2.4095919703981394e-10 0.00013609784946311265" pbc="T T T"
V        1.85691140       1.31303508       3.21626559      -0.00000361       0.00000146       0.00000028
V        5.57073535       3.93910463       9.64879716      -0.00000002      -0.00000231      -0.00000004
Ni      -0.00000004       0.00000045      -0.00000011       0.00000010      -0.00000617       0.00000125
Cl       1.85838974       1.31408013       6.43253148       0.00098652       0.00069724      -0.00000040
Cl       5.56925759       3.93805974       6.43253147      -0.00098398      -0.00069652      -0.00000009
Cl       4.64154108       1.31407998       4.82567867      -0.00049204       0.00069788       0.00085601
Cl       2.78610677       3.93805975       8.03938429       0.00049265      -0.00069553      -0.00085238
Cl       2.78610684       3.93805953       4.82567857       0.00049286      -0.00069627       0.00085105
Cl       4.64154111       1.31408005       8.03938439      -0.00049251       0.00070018      -0.00085555
