9
Lattice="6.4349282929475455 -3.567590454711141e-08 3.7152075706601804 2.1449760641230076 6.0669085193527295 3.715207570470707 -1.9879521916019942e-08 -1.4288994370946152e-08 7.4304151757526995" Properties=species:S:1:pos:R:3:forces:R:3 energy=-30.613731384277344 free_energy=-30.613731384277344 stress="0.00025950121926143765 2.6133901709357588e-09 -7.250217093357492e-10 2.6133901709357588e-09 0.0002595008700154722 -3.1299376423987724e-09 -7.250217093357492e-10 -3.1299376423987724e-09 0.00025949106202460825" pbc="T T T"
V        2.14497588       1.51672704       3.71520750      -0.00000045      -0.00000110       0.00000071
V        6.43492842       4.55018155      11.14562298       0.00000070       0.00000048       0.00000088
Ni      -0.00000007      -0.00000009       0.00000010       0.00000003       0.00000044       0.00000009
I        2.16395998       1.53015078       7.43041513      -0.00066578      -0.00047071      -0.00000043
I        6.41594446       4.53675776       7.43041508       0.00066482       0.00047071      -0.00000032
I        5.35294830       1.53015073       5.58925209       0.00033300      -0.00047070      -0.00057670
I        3.22695593       4.53675766       9.27157811      -0.00033289       0.00047125       0.00057633
I        3.22695616       4.53675769       5.58925204      -0.00033262       0.00047085      -0.00057688
I        5.35294826       1.53015075       9.27157822       0.00033312      -0.00047122       0.00057638
