9
Lattice="5.113709845789039 8.925985780419529e-08 2.952401765993991 1.7045699929024942 4.8212518782090275 2.9524018350141494 -3.7170108047399033e-08 5.824885496790785e-08 5.90480359636847" Properties=species:S:1:pos:R:3:forces:R:3 energy=-45.26976013183594 free_energy=-45.26976013183594 stress="-0.000101889279903844 8.827574760061907e-08 1.4596826858337408e-08 8.827574760061907e-08 -0.0001019625851768069 -1.9896059910706754e-08 1.4596826858337408e-08 -1.9896059910706754e-08 -0.00010204007412539795" pbc="T T T"
V        1.70457001       1.20531258       2.95240176       0.00000020      -0.00000219       0.00000053
V        5.11371014       3.61594005       8.85720617       0.00000060       0.00000543       0.00000469
Ni       0.00000014       0.00000029      -0.00000019      -0.00000485      -0.00000700       0.00000097
S        1.74482967       1.23378071       5.90480353      -0.00604269      -0.00427255      -0.00000135
S        5.07345005       3.58747100       5.90480345       0.00604734       0.00427657       0.00000056
S        4.24129521       1.23378051       4.46346851       0.00302061      -0.00427350      -0.00523075
S        2.57698429       3.58747132       7.34613881      -0.00301911       0.00427175       0.00522757
S        2.57698482       3.58747135       4.46346790      -0.00302151       0.00427198      -0.00523344
S        4.24129481       1.23378030       7.34613884       0.00301982      -0.00427046       0.00523096
