9
Lattice="5.924576198921495 -3.094463507558645e-08 3.420555677033778 1.9748587366520718 5.585743938654786 3.420555620130548 5.851438525564478e-08 -2.8316042060992064e-08 6.841111252717659" Properties=species:S:1:pos:R:3:forces:R:3 energy=-34.123558044433594 free_energy=-34.123558044433594 stress="8.956321835285053e-05 -4.870887249097677e-09 -8.768957115989906e-09 -4.870887249097677e-09 8.955401426646858e-05 -6.182219181027904e-09 -8.768957115989906e-09 -6.182219181027904e-09 8.957371028373018e-05" pbc="T T T"
V        1.97485896       1.39643604       3.42055527       0.00000044       0.00000083      -0.00000073
V        5.92457638       4.18930772      10.26166727       0.00000052       0.00000050       0.00000027
Ni       0.00000009      -0.00000007       0.00000001      -0.00000191       0.00000259      -0.00000000
Br       1.96577056       1.39000963       6.84111116       0.00144947       0.00102611       0.00000024
Br       5.93366430       4.19573430       6.84111118      -0.00145140      -0.00102599       0.00000011
Br       4.94169109       1.39000954       5.12296292      -0.00072452       0.00102605       0.00125471
Br       2.95774374       4.19573444       8.55925991       0.00072661      -0.00102882      -0.00125831
Br       2.95774409       4.19573427       5.12296283       0.00072522      -0.00102659       0.00125790
Br       4.94169076       1.39000966       8.55925967      -0.00072436       0.00102529      -0.00125380
