9
Lattice="5.4649938195172005 3.996912503459963e-08 3.1552157331984687 1.8216645594754133 5.152446063088842 3.1552158799266565 -1.7797268999457053e-07 5.385889561253471e-08 6.310431774654643" Properties=species:S:1:pos:R:3:forces:R:3 energy=-46.17106628417969 free_energy=-46.17106628417969 stress="-2.7958134523942135e-05 4.161564870486245e-09 1.5260607000300297e-08 4.161564870486245e-09 -2.8049622414982878e-05 -1.8393825129692232e-08 1.5260607000300297e-08 -1.8393825129692232e-08 -2.8017857403028756e-05" pbc="T T T"
V        1.82166486       1.28811057       3.15521536       0.00000203      -0.00000372      -0.00000216
V        5.46499279       3.86433537       9.46564891      -0.00000331       0.00000298       0.00000711
Os      -0.00000009       0.00000001      -0.00000069       0.00000059       0.00000616       0.00000586
Se       1.99334389       1.40950704       6.31043145      -0.00232553      -0.00164586      -0.00000148
Se       5.29331480       3.74293940       6.31043104       0.00232118       0.00164205       0.00000023
Se       4.46832242       1.40950741       4.88150231       0.00116408      -0.00164333      -0.00201535
Se       2.81833605       3.74293944       7.73936178      -0.00115657       0.00163901       0.00200874
Se       2.81833679       3.74293940       4.88150211      -0.00116074       0.00164568      -0.00201321
Se       4.46832111       1.40950600       7.73936128       0.00115865      -0.00164261       0.00201076
