9
Lattice="4.5290483820097736 9.113738068854541e-09 2.6148473928395077 1.5096828041825057 4.270027837006524 2.614847390091205 8.753249758141839e-08 5.852884542973159e-08 5.2296946340682915" Properties=species:S:1:pos:R:3:forces:R:3 energy=-61.45718002319336 free_energy=-61.45718002319336 stress="0.0003960116009693593 -6.320257028846754e-08 -2.374396679272195e-08 -6.320257028846754e-08 0.00039595545968040824 -2.875591142981193e-08 -2.374396679272195e-08 -2.875591142981193e-08 0.00039604533230885863" pbc="T T T"
V        1.50968289       1.06750788       2.61484769      -0.00000028       0.00000997       0.00000713
V        4.52904846       3.20252221       7.84454279      -0.00000095       0.00002034       0.00000773
Os      -0.00000008      -0.00000017      -0.00000027      -0.00000007       0.00001468      -0.00000271
O        1.50901834       1.06703679       5.22969525      -0.00402771      -0.00285439       0.00000538
O        4.52971310       3.20299051       5.22969371       0.00402543       0.00284266      -0.00001406
O        3.77453878       1.06703617       3.92169575       0.00201134      -0.00286041      -0.00349167
O        2.26419251       3.20299112       6.53769389      -0.00201187       0.00284951       0.00348681
O        2.26419147       3.20299005       3.92169506      -0.00201567       0.00283644      -0.00348963
O        3.77453972       1.06703715       6.53769370       0.00201978      -0.00285862       0.00349151
