9
Lattice="5.187828813044368 4.0935044589924325e-08 2.995194413600247 1.7292762754769433 4.891132173634025 2.9951944727182283 -3.313788113728983e-08 4.897244847072201e-08 5.990388884596972" Properties=species:S:1:pos:R:3:forces:R:3 energy=-50.13718795776367 free_energy=-50.13718795776367 stress="-3.501080209389329e-05 -4.1441275300257985e-08 4.83690598684916e-09 -4.1441275300257985e-08 -3.5135497455485165e-05 -2.0136621259325693e-08 4.83690598684916e-09 -2.0136621259325693e-08 -3.4961234632646665e-05" pbc="T T T"
V        1.72927628       1.22278312       2.99519409      -0.00000055      -0.00000072      -0.00000019
V        5.18782867       3.66834898       8.98558342       0.00000019       0.00000028       0.00000039
Os      -0.00000004      -0.00000005       0.00000000       0.00000155       0.00000197      -0.00000111
S        1.86787405       1.32078670       5.99038872      -0.00086129      -0.00060773      -0.00000223
S        5.04923135       3.57034583       5.99038893       0.00085664       0.00060612      -0.00000274
S        4.25389149       1.32078640       4.61282105       0.00042963      -0.00060797      -0.00074399
S        2.66321372       3.57034549       7.36795694      -0.00042981       0.00061077       0.00074631
S        2.66321321       3.57034587       4.61282129      -0.00042886       0.00060910      -0.00074315
S        4.25389149       1.32078689       7.36795681       0.00043279      -0.00061196       0.00074655
