9
Lattice="4.4402530626051835 6.212275563375282e-08 2.563580378337286 1.4800842629253648 4.186310914875055 2.5635806378787525 -9.719771967616548e-07 -3.694195356060283e-07 5.127162440188419" Properties=species:S:1:pos:R:3:forces:R:3 energy=-50.705474853515625 free_energy=-50.705474853515625 stress="4.433572485140758e-06 2.5987847607211734e-07 -8.587072102272941e-07 2.5987847607211734e-07 4.467991857382003e-06 -5.517127021903434e-08 -8.587072102272941e-07 -5.517127021903434e-08 2.9996203920745756e-06" pbc="T T T"
V        1.48008099       1.04657649       2.56356021      -0.00004548      -0.00003803      -0.00027836
V        4.44026107       3.13974627       7.69073612       0.00015265       0.00023446      -0.00009890
Pd       0.00000125       0.00000019       0.00000274      -0.00001186      -0.00000624      -0.00000839
O        1.55805660       1.10170705       5.12716879      -0.00042060      -0.00035894       0.00015486
O        4.36228310       3.08460089       5.12716130       0.00043288       0.00030091       0.00002380
O        3.66122525       1.10170300       3.91290241       0.00024824      -0.00039628      -0.00026736
O        2.25910667       3.08459988       6.34142969      -0.00024998       0.00025155       0.00038862
O        2.25910629       3.08460363       3.91290231      -0.00025560       0.00034758      -0.00026390
O        3.66122424       1.10170425       6.34142984       0.00014998      -0.00033477       0.00034997
