9
Lattice="5.274670328698764 4.409644950355454e-09 3.0453323425469274 1.7582234449006215 4.97300686558725 3.0453323462819593 -9.030636147245438e-09 -1.8111657454583956e-09 6.090664700735369" Properties=species:S:1:pos:R:3:forces:R:3 energy=-43.420921325683594 free_energy=-43.420921325683594 stress="-9.383509677718394e-06 -4.171742062908379e-08 -6.098472837834379e-09 -4.171742062908379e-08 -9.362908713228535e-06 -7.235594345900154e-09 -6.098472837834379e-09 -7.235594345900154e-09 -9.363646313431673e-06" pbc="T T T"
V        1.75822344       1.24325172       3.04533235       0.00000045      -0.00000021       0.00000014
V        5.27467032       3.72975516       9.13599704      -0.00000025       0.00000140      -0.00000221
Pd       0.00000000       0.00000009       0.00000003      -0.00000123      -0.00000132      -0.00000240
S        1.87262425       1.32414534       6.09066470       0.00016153       0.00011361       0.00000079
S        5.16026947       3.64886148       6.09066469      -0.00015986      -0.00011373       0.00000126
S        4.33835816       1.32414533       4.66707255      -0.00008005       0.00011206       0.00013906
S        2.69453560       3.64886156       7.51425682       0.00008041      -0.00011182      -0.00013822
S        2.69453564       3.64886147       4.66707256       0.00007981      -0.00011265       0.00013918
S        4.33835815       1.32414532       7.51425684      -0.00007993       0.00011283      -0.00013727
