9
Lattice="5.468923695925251 1.5732785337223169e-07 3.15748492596672 1.8229747845744322 5.156151382285327 3.157484803102322 4.2287314432088313e-07 1.4853877092100737e-07 6.314969119495801" Properties=species:S:1:pos:R:3:forces:R:3 energy=-40.46592712402344 free_energy=-40.46592712402344 stress="1.719113606668543e-05 -4.8128320884188724e-08 -3.1746694162393396e-08 -4.8128320884188724e-08 1.6629566744086333e-05 -6.377604933049952e-08 -3.1746694162393396e-08 -6.377604933049952e-08 1.704339410935063e-05" pbc="T T T"
V        1.82298163       1.28901955       3.15749253       0.00003581      -0.00009859       0.00003759
V        5.46891934       3.86713170       9.47244958      -0.00002576       0.00009807      -0.00002001
Pd      -0.00000071      -0.00000138      -0.00000234       0.00000232       0.00002050       0.00002641
Se       2.02331376       1.43069365       6.31496741       0.00117084       0.00079998      -0.00001469
Se       5.26858578       3.72545864       6.31496956      -0.00118887      -0.00080401       0.00001292
Se       4.45726399       1.43069405       4.90972583      -0.00060146       0.00078562       0.00099796
Se       2.83463244       3.72546045       7.72021539       0.00061564      -0.00080732      -0.00103366
Se       2.83463321       3.72545718       4.90972423       0.00058822      -0.00080296       0.00101015
Se       4.45726597       1.43069278       7.72021332      -0.00059663       0.00080842      -0.00101659
