9
Lattice="4.244035120450936 4.960293407513094e-10 2.450294875857317 1.414678396794962 4.001314522762562 2.4502948362909103 6.899422677474357e-08 3.275679305246687e-10 4.900589632213126" Properties=species:S:1:pos:R:3:forces:R:3 energy=-61.487335205078125 free_energy=-61.487335205078125 stress="0.00022341722797136754 2.0002420342279947e-07 1.7967128940199473e-07 2.0002420342279947e-07 0.0002231933904113248 1.2826440354274382e-07 1.7967128940199473e-07 1.2826440354274382e-07 0.00022305412858258933" pbc="T T T"
V        1.41467707       1.00032905       2.45029577      -0.00001432       0.00000601       0.00001243
V        4.24403661       3.00098607       7.35088501       0.00001401       0.00000206       0.00000767
P       -0.00000003      -0.00000013      -0.00000002      -0.00000166       0.00000148      -0.00000224
O        1.36803326       0.96734535       4.90058957      -0.00038731      -0.00027943      -0.00000262
O        4.29068026       3.03396922       4.90058931       0.00039005       0.00027454      -0.00000442
O        3.56001899       0.96734539       3.63504651       0.00020045      -0.00027788      -0.00033748
O        2.09869453       3.03396928       6.16613259      -0.00019920       0.00027645       0.00033331
O        2.09869447       3.03396833       3.63504607      -0.00020051       0.00027108      -0.00034022
O        3.56001935       0.96734546       6.16613269       0.00019848      -0.00027490       0.00032949
