9
Lattice="5.651165420396964 -2.993496125075272e-08 3.2627016751847835 1.8837216826972198 5.327970057208724 3.2627018412517916 -8.821991398689253e-08 1.4100880032005837e-07 6.5254035031708275" Properties=species:S:1:pos:R:3:forces:R:3 energy=-41.987701416015625 free_energy=-41.987701416015625 stress="0.0001727330673020333 5.7330133529376326e-08 -6.854615008933251e-08 5.7330133529376326e-08 0.00017273308185394853 7.482646680045946e-08 -6.854615008933251e-08 7.482646680045946e-08 0.00017265112546738237" pbc="T T T"
V        1.88372151       1.33199334       3.26270050      -0.00000229       0.00000393      -0.00000556
V        5.65116530       3.99597648       9.78810640       0.00000098      -0.00000940       0.00000477
Pt      -0.00000024      -0.00000005       0.00000025       0.00000355      -0.00000435      -0.00000016
Se       1.97420823       1.39597662       6.52540409      -0.00263214      -0.00185907       0.00000458
Se       5.56067867       3.93199393       6.52540257       0.00263241       0.00186028      -0.00000367
Se       4.66406090       1.39597691       4.97241642       0.00131723      -0.00185698      -0.00227824
Se       2.87082598       3.93199344       8.07839055      -0.00131889       0.00185981       0.00228164
Se       2.87082556       3.93199341       4.97241636      -0.00131419       0.00185661      -0.00227505
Se       4.66406199       1.39597649       8.07839085       0.00131322      -0.00185087       0.00227189
