9
Lattice="4.448056301247085 1.0551985285468818e-08 2.568086667885973 1.4826854807052419 4.193667707777933 2.568086603786757 1.2445158005634118e-07 9.495383125548495e-09 5.136173120215482" Properties=species:S:1:pos:R:3:forces:R:3 energy=-52.36566162109375 free_energy=-52.36566162109375 stress="0.0005272639682516456 -1.4360367117660644e-07 -8.179078747616586e-08 -1.4360367117660644e-07 0.0005270678666420281 -3.891103617092995e-08 -8.179078747616586e-08 -3.891103617092995e-08 0.0005272168782539666" pbc="T T T"
V        1.48268375       1.04841692       2.56808649      -0.00002612       0.00000203      -0.00000011
V        4.44805687       3.14524981       7.70426126       0.00000519      -0.00001828       0.00002429
Pt      -0.00000011       0.00000015       0.00000008       0.00000956      -0.00001733      -0.00000188
O        1.55853650       1.10205246       5.13617292       0.00006142       0.00005496      -0.00000494
O        4.37220563       3.09161506       5.13617230      -0.00005573      -0.00005449      -0.00001086
O        3.66878870       1.10205204       3.91781928      -0.00002420       0.00005499       0.00006071
O        2.26195371       3.09161611       6.35452672       0.00002372      -0.00003663      -0.00005683
O        2.26195454       3.09161615       3.91781916       0.00003660      -0.00003538       0.00004876
O        3.66878807       1.10205214       6.35452750      -0.00003052       0.00005040      -0.00005898
