9
Lattice="5.3225482876676296 -4.430937051584177e-09 3.0729746517698215 1.7741827859605537 5.018146424637153 3.0729746039959873 5.867862927177265e-08 -1.7018679856385212e-08 6.145949201905297" Properties=species:S:1:pos:R:3:forces:R:3 energy=-45.50749206542969 free_energy=-45.50749206542969 stress="8.680236351210624e-05 3.7507991379470695e-08 -1.128836757402496e-08 3.7507991379470695e-08 8.678809535922483e-05 2.0753052609734368e-08 -1.128836757402496e-08 2.0753052609734368e-08 8.668827649671584e-05" pbc="T T T"
V        1.77418275       1.25453635       3.07297459      -0.00000011      -0.00000157       0.00000037
V        5.32254824       3.76360992       9.21892401       0.00000057      -0.00000001      -0.00000104
Pt      -0.00000007       0.00000007      -0.00000002      -0.00000187       0.00000043       0.00000191
S        1.85871256       1.31430795       6.14594937      -0.00069916      -0.00049424       0.00000050
S        5.23801851       3.70383826       6.14594922       0.00069934       0.00049502      -0.00000020
S        4.39319202       1.31430816       4.68266675       0.00034848      -0.00049305      -0.00060588
S        2.70353897       3.70383829       7.60923171      -0.00034863       0.00049287       0.00060308
S        2.70353901       3.70383841       4.68266669      -0.00034833       0.00049210      -0.00060219
S        4.39319246       1.31430819       7.60923143       0.00034958      -0.00049102       0.00060332
