9
Lattice="5.824616404219165 2.5896637790937638e-08 3.3628439405942268 1.9415388192331835 5.491501620412681 3.362843952006346 -5.864406892165172e-08 -2.749064836878984e-08 6.725687982762939" Properties=species:S:1:pos:R:3:forces:R:3 energy=-48.1806755065918 free_energy=-48.1806755065918 stress="1.0588215445750393e-05 4.6873363857002914e-08 1.984465392013135e-08 4.6873363857002914e-08 1.0544817996560596e-05 -3.0202190970385345e-08 1.984465392013135e-08 -3.0202190970385345e-08 1.0483614460099488e-05" pbc="T T T"
V        1.94153925       1.37287615       3.36284302       0.00000509       0.00000703      -0.00000611
V        5.82461720       4.11862561      10.08852695       0.00000363      -0.00000223      -0.00003392
Re      -0.00000019      -0.00000029      -0.00000000      -0.00000052       0.00000754       0.00000330
Se       2.00827558       1.42006510       6.72568860      -0.00027847      -0.00019157       0.00000190
Se       5.75788025       4.07143654       6.72569063       0.00026900       0.00018919       0.00001439
Se       4.82047867       1.42006398       5.10206201       0.00013624      -0.00019568      -0.00022963
Se       2.94567599       4.07143658       8.34931562      -0.00013387       0.00018606       0.00023037
Se       2.94567584       4.07143663       5.10206082      -0.00013761       0.00018710      -0.00022522
Se       4.82047806       1.42006622       8.34931574       0.00013663      -0.00018749       0.00024486
