9
Lattice="6.218499369331296 -1.2062194606952008e-08 3.5902522752878885 2.0728331077522264 5.8628574665770925 3.590252282191558 -1.1047727341618181e-08 6.433191764488597e-10 7.180504569711007" Properties=species:S:1:pos:R:3:forces:R:3 energy=-45.132423400878906 free_energy=-45.132423400878906 stress="0.0002324714878341183 -4.2463575766760187e-08 -2.118719244492695e-08 -4.2463575766760187e-08 0.00023247800709214061 2.4255658814809067e-08 -2.118719244492695e-08 2.4255658814809067e-08 0.00023251629318110645" pbc="T T T"
V        2.07283293       1.46571425       3.59025218      -0.00000019       0.00000011      -0.00000006
V        6.21849940       4.39714338      10.77075616       0.00000123       0.00000163      -0.00000477
Re      -0.00000008       0.00000005       0.00000017       0.00000328       0.00000247      -0.00000350
Te       2.14386005       1.51593775       7.18050449      -0.00488921      -0.00345753      -0.00000022
Te       6.14747283       4.34691985       7.18050490       0.00488332       0.00345275       0.00000164
Te       5.14656930       1.51593752       5.44688939       0.00244611      -0.00345878      -0.00423393
Te       3.14476308       4.34691958       8.91411993      -0.00244544       0.00345993       0.00423805
Te       3.14476286       4.34691963       5.44688958      -0.00244410       0.00345600      -0.00423154
Te       5.14656949       1.51593779       8.91411971       0.00244509      -0.00345650       0.00423430
