9
Lattice="4.5402193923296315 -4.3928156694318536e-08 2.621296978611695 1.51340642011983 4.280559884174297 2.6212969830703163 1.157308101395445e-08 1.364406333378639e-08 5.2425939371782375" Properties=species:S:1:pos:R:3:forces:R:3 energy=-64.55274963378906 free_energy=-64.55274963378906 stress="0.0001277619448956102 2.3933127479836003e-08 -5.042954054346183e-09 2.3933127479836003e-08 0.00012796424562111497 -5.83148320743021e-08 -5.042954054346183e-09 -5.83148320743021e-08 0.00012797204544767737" pbc="T T T"
V        1.51340721       1.07013713       2.62129558       0.00000433      -0.00003615      -0.00001353
V        4.54021600       3.21041872       7.86389335      -0.00004102      -0.00001966       0.00003147
Re       0.00000022       0.00000028      -0.00000011       0.00000216       0.00000333       0.00000625
O        1.52656649       1.07944538       5.24259484      -0.00266927      -0.00188673       0.00000700
O        4.52705946       3.20111551       5.24259267       0.00266439       0.00190049      -0.00001532
O        3.77693644       1.07944606       3.94334147       0.00134078      -0.00187677      -0.00232506
O        2.27669048       3.20111526       6.54184612      -0.00132126       0.00189751       0.00231165
O        2.27669047       3.20111552       3.94334183      -0.00131893       0.00190157      -0.00231534
O        3.77693654       1.07944564       6.54184599       0.00133881      -0.00188345       0.00231391
