9
Lattice="5.448661394145621 -1.0487366269571483e-07 3.1457861240283145 1.8162203526677618 5.137047218423481 3.145786146842246 -1.3328187852963064e-07 -6.630331123251822e-08 6.29157247890764" Properties=species:S:1:pos:R:3:forces:R:3 energy=-43.43531036376953 free_energy=-43.43531036376953 stress="-2.5089897462748922e-05 -2.859179737413342e-08 6.108634664769852e-08 -2.859179737413342e-08 -2.513273648219183e-05 3.613685350956075e-08 6.108634664769852e-08 3.613685350956075e-08 -2.5071800337173045e-05" pbc="T T T"
V        1.81621967       1.28426188       3.14578573      -0.00000464      -0.00000096      -0.00000271
V        5.44866128       3.85278600       9.43736309       0.00000147       0.00000480       0.00002300
Rh       0.00000021       0.00000007       0.00000076       0.00000011      -0.00000305      -0.00001184
Se       1.98684066       1.40490860       6.29157258       0.00494468       0.00349772      -0.00000267
Se       5.27804071       3.73213828       6.29157019      -0.00494048      -0.00349519      -0.00000511
Se       4.45524148       1.40490853       4.86644070      -0.00247228       0.00349787       0.00428042
Se       2.80964026       3.73213853       7.71670296       0.00246945      -0.00349256      -0.00427961
Se       2.80964184       3.73213892       4.86644048       0.00247350      -0.00349769       0.00427771
Se       4.45524033       1.40490734       7.71670237      -0.00247158       0.00348926      -0.00427940
