9
Lattice="4.436063524906109 4.6050733578652574e-08 2.5611625832658174 1.4786878696535521 4.182361024816153 2.561162609937445 -1.1926298169279308e-07 -5.166573350016155e-08 5.122325373101184" Properties=species:S:1:pos:R:3:forces:R:3 energy=-53.640167236328125 free_energy=-53.640167236328125 stress="0.0003874829562846571 -4.005461207157168e-08 2.4140754817381094e-07 -4.005461207157168e-08 0.0003874457615893334 2.155202452058802e-07 2.4140754817381094e-07 2.155202452058802e-07 0.00038733507972210646" pbc="T T T"
V        1.47868504       1.04559016       2.56116342      -0.00004479       0.00000040       0.00001022
V        4.43606304       3.13677085       7.68348348      -0.00000551       0.00000197      -0.00006503
Rh      -0.00000002       0.00000002      -0.00000005       0.00000124       0.00000040       0.00000324
O        1.54503457       1.09250412       5.12232502       0.00084341       0.00058979      -0.00000333
O        4.36971727       3.08985631       5.12232677      -0.00083250      -0.00060073       0.00002470
O        3.66354696       1.09250335       3.89920287      -0.00040977       0.00058207       0.00074333
O        2.25120635       3.08985730       6.34544937       0.00043832      -0.00058588      -0.00072220
O        2.25120410       3.08985667       3.89920234       0.00040844      -0.00059381       0.00073567
O        3.66354771       1.09250531       6.34544904      -0.00039865       0.00060546      -0.00072655
