9
Lattice="4.470532001484295 -1.7114873701521073e-09 2.5810628722147233 1.4901773495881268 4.214857913002731 2.581062842122697 3.726804475404871e-08 -1.0502556499045828e-08 5.162125679879295" Properties=species:S:1:pos:R:3:forces:R:3 energy=-58.01428985595703 free_energy=-58.01428985595703 stress="0.0008389122667722404 -4.610708970176347e-08 -2.5349880417024906e-08 -4.610708970176347e-08 0.0008389523718506098 2.6469406222418e-08 -2.5349880417024906e-08 2.6469406222418e-08 0.0008390067960135639" pbc="T T T"
V        1.49017721       1.05371453       2.58106383      -0.00000322       0.00000422       0.00001414
V        4.47053171       3.16114412       7.74318922      -0.00000207       0.00000750       0.00001138
Ru       0.00000003       0.00000000      -0.00000003       0.00000117      -0.00000062      -0.00000034
O        1.51630819       1.07219054       5.16212528       0.00337613       0.00237411      -0.00000652
O        4.44440161       3.14266700       5.16212564      -0.00337511      -0.00238070      -0.00000419
O        3.71237866       1.07219201       3.89422335      -0.00167997       0.00238705       0.00291374
O        2.24833100       3.14266636       6.43002757       0.00168106      -0.00238255      -0.00291997
O        2.24833070       3.14266598       3.89422348       0.00168177      -0.00238594       0.00291479
O        3.71237844       1.07219111       6.43002715      -0.00167970       0.00237724      -0.00292364
