9
Lattice="5.170507019253197 -1.52736568931052e-08 2.9851936736984257 1.7235023362769915 4.8748008422638325 2.985193654773899 -4.861104207429069e-09 -2.6615008378512627e-08 5.970387355816488" Properties=species:S:1:pos:R:3:forces:R:3 energy=-48.90593719482422 free_energy=-48.90593719482422 stress="5.700166184396949e-06 3.5002276632667417e-09 4.9998671869389e-09 3.5002276632667417e-09 5.69124586036196e-06 -2.2075582251090964e-08 4.9998671869389e-09 -2.2075582251090964e-08 5.5946866268641315e-06" pbc="T T T"
V        1.72350250       1.21870021       2.98519363       0.00000043       0.00000022       0.00000033
V        5.17050714       3.65610082       8.95558129       0.00000021      -0.00000005       0.00000139
Ru       0.00000007       0.00000015      -0.00000014      -0.00000020       0.00000011      -0.00000170
S        1.84297296       1.30317857       5.97038730      -0.00017321      -0.00012147      -0.00000067
S        5.05103659       3.57162221       5.97038729       0.00017118       0.00012153       0.00000031
S        4.24902038       1.30317842       4.58125505       0.00008619      -0.00012112      -0.00015002
S        2.64498864       3.57162218       7.35951986      -0.00008664       0.00012183       0.00014907
S        2.64498872       3.57162221       4.58125487      -0.00008640       0.00012273      -0.00014919
S        4.24902039       1.30317848       7.35951952       0.00008824      -0.00012350       0.00015104
