9
Lattice="5.4450720747351395 6.892720417803287e-08 3.1437136488391624 1.8150243387658183 5.133664383283015 3.143713217785956 2.7237202796131245e-07 -3.353346230810456e-07 6.287426825916325" Properties=species:S:1:pos:R:3:forces:R:3 energy=-44.80668640136719 free_energy=-44.80668640136719 stress="0.00013613484043162316 1.0089725321904552e-07 1.4373770795828023e-07 1.0089725321904552e-07 0.00013591778406407684 7.154650205620783e-08 1.4373770795828023e-07 7.154650205620783e-08 0.0001359749148832634" pbc="T T T"
V        1.81503019       1.28342098       3.14370907       0.00003478       0.00002211      -0.00002251
V        5.44507600       3.85024483       9.43114919       0.00001540      -0.00001316       0.00005184
Ru       0.00000077      -0.00000036       0.00000111      -0.00001093       0.00000400      -0.00000234
Se       1.96899137       1.39228957       6.28742811      -0.00632796      -0.00445050       0.00000506
Se       5.29110094       3.74137634       6.28742010       0.00631759       0.00447127      -0.00002765
Se       4.46057579       1.39228603       4.84891313       0.00315703      -0.00447422      -0.00545985
Se       2.79951772       3.74137645       7.72594165      -0.00316983       0.00445575       0.00544968
Se       2.79952212       3.74137377       4.84890719      -0.00315495       0.00444332      -0.00548089
Se       4.46057133       1.39228873       7.72594539       0.00313845      -0.00445834       0.00548658
