9
Lattice="5.753945685204687 4.0650269099795714e-08 3.322042234638581 1.9179819532948048 5.424872215911442 3.322042200168801 -5.111515714667802e-08 -7.836056228791131e-08 6.644084557811198" Properties=species:S:1:pos:R:3:forces:R:3 energy=-32.579307556152344 free_energy=-32.579307556152344 stress="0.00038221036083996296 1.2223925871523988e-08 -1.0566965080727186e-08 1.2223925871523988e-08 0.00038222610601224005 3.373643031601148e-10 -1.0566965080727186e-08 3.373643031601148e-10 0.0003821709251496941" pbc="T T T"
V        1.91798199       1.35621766       3.32204237       0.00000145      -0.00000028       0.00000101
V        5.75394521       4.06865442       9.96612601      -0.00000222       0.00000167      -0.00000093
S       -0.00000008      -0.00000009       0.00000003       0.00000146      -0.00000049       0.00000183
Cl       1.93411794       1.36762792       6.64408446      -0.00263870      -0.00186574      -0.00000093
Cl       5.73780966       4.05724447       6.64408497       0.00263870       0.00186601       0.00000103
Cl       4.78688631       1.36762820       4.99703720       0.00131825      -0.00186470      -0.00228459
Cl       2.88504130       4.05724419       8.29113195      -0.00131652       0.00186354       0.00228244
Cl       2.88504122       4.05724459       4.99703749      -0.00131840       0.00186366      -0.00228214
Cl       4.78688680       1.36762738       8.29113146       0.00131628      -0.00186390       0.00228256
