9
Lattice="4.399627290226129 -1.0185893503826765e-07 2.54012603018057 1.466542340672356 4.1480083717214065 2.5401260186962014 -2.850487329346985e-08 -3.422139525676435e-08 5.080252109733026" Properties=species:S:1:pos:R:3:forces:R:3 energy=-54.430274963378906 free_energy=-54.430274963378906 stress="0.00015886183246038854 3.064117493067897e-08 -1.0306430908713082e-07 3.064117493067897e-08 0.00015901404549367726 6.995974466406096e-09 -1.0306430908713082e-07 6.995974466406096e-09 0.00015893795352894813" pbc="T T T"
V        1.46654151       1.03700160       2.54012566      -0.00000879      -0.00000250      -0.00000457
V        4.39962615       3.11100680       7.62037690      -0.00000774       0.00000399      -0.00001060
Se       0.00000017      -0.00000002       0.00000009       0.00000056      -0.00000250       0.00000084
O        1.44989296       1.02522899       5.08025234       0.00088048       0.00062340       0.00000305
O        4.41627716       3.12277897       5.08025243      -0.00087750      -0.00062340       0.00000202
O        3.67468072       1.02522877       3.79577026      -0.00043720       0.00062269       0.00076389
O        2.19148956       3.12277940       6.36473445       0.00044560      -0.00062323      -0.00075841
O        2.19148907       3.12277968       3.79577048       0.00044310      -0.00061864       0.00076509
O        3.67468105       1.02522876       6.36473409      -0.00043815       0.00062042      -0.00076258
