9
Lattice="5.274316152340351 -9.679636375596221e-09 3.045127953736166 1.7581052959034866 4.972673130017856 3.0451280907135065 -8.642673773764413e-08 1.0664939537852386e-07 6.0902560571677755" Properties=species:S:1:pos:R:3:forces:R:3 energy=-40.566864013671875 free_energy=-40.566864013671875 stress="-0.00016606079589109868 -1.782654095450198e-07 -1.3024899203628593e-07 -1.782654095450198e-07 -0.00016588270955253392 1.68848046655512e-07 -1.3024899203628593e-07 1.68848046655512e-07 -0.00016584308468736708" pbc="T T T"
V        1.75810550       1.24316842       3.04512825       0.00000062       0.00000088       0.00000075
V        5.27431613       3.72950487       9.13538396       0.00000028       0.00000088      -0.00000150
Se      -0.00000181       0.00000203      -0.00000296       0.00007071      -0.00006799       0.00010814
S        1.79677414       1.27051162       6.09025573      -0.00069132      -0.00049937       0.00000984
S        5.23564760       3.70216212       6.09025582       0.00068256       0.00047013       0.00001005
S        4.37592761       1.27051244       4.60118105       0.00036073      -0.00051156      -0.00060779
S        2.65649274       3.70216116       7.57933103      -0.00034548       0.00048971       0.00061801
S        2.65649385       3.70216014       4.60118246      -0.00038502       0.00054869      -0.00066802
S        4.37592975       1.27051005       7.57933319       0.00030710      -0.00043154       0.00053120
