9
Lattice="4.669362542644771 -6.138844600993292e-06 2.695846079244238 1.5564479540880305 4.402279467122452 2.695846839669308 -3.6295880982617736e-06 -1.6351620940796026e-06 5.391698445114436" Properties=species:S:1:pos:R:3:forces:R:3 energy=-42.8483772277832 free_energy=-42.8483772277832 stress="0.00017850571020971984 3.8647335713903885e-06 3.767955604416784e-06 3.8647335713903885e-06 0.00020930124446749687 2.957022843474988e-06 3.767955604416784e-06 2.957022843474988e-06 0.00018967421783600003" pbc="T T T"
V        1.55640876       1.10029689       2.69653944      -0.00048786      -0.00142789       0.00424855
V        4.66913510       3.30174744       8.08817451      -0.00113603       0.00000812       0.00374865
S        0.00003254       0.00002785      -0.00017462       0.00014079       0.00012005      -0.00061717
F        1.58986339       1.12409141       5.39143254       0.00203186       0.00062355      -0.00222602
F        4.63598307       3.27822559       5.39152818      -0.00215673      -0.00059312      -0.00180787
F        3.87446266       1.12413035       4.07251430      -0.00140762       0.00198658       0.00081047
F        2.35139620       3.27828065       6.71051301       0.00084922       0.00057357      -0.00252691
F        2.35145840       3.27814392       4.07244744       0.00229986      -0.00168840       0.00055362
F        3.87448641       1.12414289       6.71059012      -0.00013346       0.00039757      -0.00218344
