9
Lattice="6.1741320010142315 -2.4998380748474147e-09 3.564636703463613 2.058043989422428 5.821027443826597 3.564636718287819 -5.404476733614487e-09 1.4334336718009336e-08 7.129273416288066" Properties=species:S:1:pos:R:3:forces:R:3 energy=-37.10777282714844 free_energy=-37.10777282714844 stress="0.00031919151660986245 -9.941264700330521e-09 -5.210521347720487e-09 -9.941264700330521e-09 0.0003192043805029243 1.0698881780513148e-08 -5.210521347720487e-09 1.0698881780513148e-08 0.0003192036529071629" pbc="T T T"
V        2.05804366       1.45525702       3.56463700      -0.00000180       0.00000024       0.00000139
V        6.17413220       4.36577032      10.69391005       0.00000157      -0.00000177      -0.00000221
Si       0.00000003      -0.00000002      -0.00000022       0.00000026       0.00000103      -0.00000187
Te       2.11762851       1.49738970       7.12927345      -0.00636998      -0.00450298      -0.00000010
Te       6.11454754       4.32363774       7.12927365       0.00636822       0.00450073       0.00000160
Te       5.11531755       1.49738964       5.39855679       0.00318456      -0.00450319      -0.00551574
Te       3.11685827       4.32363815       8.85998996      -0.00318410       0.00450507       0.00551556
Te       3.11685822       4.32363777       5.39855675      -0.00318485       0.00450363      -0.00551412
Te       5.11531796       1.49738951       8.85998988       0.00318613      -0.00450277       0.00551534
