9
Lattice="5.132030754363584 -7.985154475536906e-08 2.962979269654326 1.7106768495905782 4.838524324627402 2.9629792579560217 2.7582307120655494e-09 -1.2377029237731657e-08 5.92595853453125" Properties=species:S:1:pos:R:3:forces:R:3 energy=-45.160247802734375 free_energy=-45.160247802734375 stress="9.49399545788765e-05 5.517210155403518e-08 -8.113778449114761e-08 5.517210155403518e-08 9.493080142419785e-05 5.339363440270972e-08 -8.113778449114761e-08 5.339363440270972e-08 9.501383465249091e-05" pbc="T T T"
V        1.71067635       1.20963117       2.96297909      -0.00000039       0.00000057      -0.00000019
V        5.13203033       3.62889347       8.88893872      -0.00000060       0.00000084       0.00000074
Si       0.00000018       0.00000000      -0.00000109       0.00000121       0.00000484       0.00000730
S        1.76484161       1.24792912       5.92595903       0.00195092       0.00137541       0.00000269
S        5.07786804       3.59059385       5.92595900      -0.00195622      -0.00138649       0.00000278
S        4.24961087       1.24793096       4.49137504      -0.00097138       0.00138691       0.00168294
S        2.59309685       3.59059487       7.36054157       0.00097957      -0.00138059      -0.00170082
S        2.59309610       3.59059436       4.49137484       0.00097677      -0.00138754       0.00169975
S        4.24961035       1.24792939       7.36054194      -0.00097966       0.00138596      -0.00169545
