9
Lattice="5.7159301662750215 -8.705717951887205e-10 3.3000937140090696 1.9053100258859923 5.389030659383894 3.30009376375053 -6.062331009197941e-08 1.8053435721316826e-08 6.600187533020796" Properties=species:S:1:pos:R:3:forces:R:3 energy=-38.26906967163086 free_energy=-38.26906967163086 stress="6.45266190986149e-05 -2.0998147221007457e-08 -1.565579488271851e-08 -2.0998147221007457e-08 6.451335502788424e-05 2.700061862981329e-08 -1.565579488271851e-08 2.700061862981329e-08 6.45285690552555e-05" pbc="T T T"
V        1.90531044       1.34725733       3.30009301       0.00000263      -0.00000346      -0.00000660
V        5.71593034       4.04177316       9.90027986       0.00000229       0.00000186      -0.00000920
Sn       0.00000004       0.00000012      -0.00000012      -0.00000053      -0.00000282      -0.00000295
Se       2.12661371       1.50374332       6.60018717      -0.00081252      -0.00057455       0.00000065
Se       5.49462613       3.88528755       6.60018823       0.00081502       0.00057803       0.00000289
Se       4.65262350       1.50374266       5.14179605       0.00040808      -0.00057763      -0.00070111
Se       2.96861762       3.88528701       8.05857974      -0.00040640       0.00057608       0.00070784
Se       2.96861650       3.88528808       5.14179610      -0.00041024       0.00057760      -0.00070009
Se       4.65262222       1.50374344       8.05858003       0.00040163      -0.00057512       0.00070852
