9
Lattice="4.534894164763881 4.643831890024168e-08 2.61822239682592 1.5116314439839909 4.2755389360971305 2.6182223761332692 2.1163957279978356e-08 -1.0378017158617018e-08 5.236444756994776" Properties=species:S:1:pos:R:3:forces:R:3 energy=-51.62071990966797 free_energy=-51.62071990966797 stress="0.00014749403635505587 3.314963592515596e-08 -1.1306574343450393e-08 3.314963592515596e-08 0.00014764010848011822 2.008118471508169e-08 -1.1306574343450393e-08 2.008118471508169e-08 0.00014757411554455757" pbc="T T T"
V        1.51163299       1.06888339       2.61822262       0.00002483      -0.00001995       0.00000661
V        4.53489498       3.20665372       7.85466751       0.00001071      -0.00000510       0.00000798
Sn      -0.00000014       0.00000011      -0.00000005       0.00000129      -0.00000204      -0.00000764
O        1.62681911       1.15033568       5.23644380      -0.00158703      -0.00111222      -0.00000790
O        4.41970550       3.12520464       5.23644496       0.00157487       0.00112844       0.00000176
O        3.72148398       1.15033553       4.02708919       0.00078237      -0.00111556      -0.00137687
O        2.32504100       3.12520384       6.44580001      -0.00079876       0.00112510       0.00137019
O        2.32504146       3.12520430       4.02708982      -0.00078911       0.00112289      -0.00136578
O        3.72148354       1.15033481       6.44580020       0.00078028      -0.00112170       0.00137234
