9
Lattice="5.542038516656518 -1.594921844088593e-07 3.1996976208116523 1.8473461713940154 5.225083819024341 3.1996973617906423 1.007623753649045e-07 -2.4598490499799654e-07 6.39939506709775" Properties=species:S:1:pos:R:3:forces:R:3 energy=-41.470848083496094 free_energy=-41.470848083496094 stress="3.5593218399299076e-06 -7.38117336140931e-08 8.127421580184091e-08 -7.38117336140931e-08 3.5887719604943413e-06 -1.3204821414092294e-07 8.127421580184091e-08 -1.3204821414092294e-07 3.6303176784713287e-06" pbc="T T T"
V        1.84734522       1.30627102       3.19969788      -0.00000280       0.00000191       0.00000585
V        5.54203939       3.91881226       9.59909236       0.00000333      -0.00000319       0.00000295
Sn      -0.00000017      -0.00000027       0.00000055       0.00000540      -0.00000025       0.00000725
S        1.98628674       1.40451737       6.39939391      -0.00022689      -0.00015664      -0.00000023
S        5.40309851       3.82056586       6.39939427       0.00022402       0.00014973      -0.00000082
S        4.54889439       1.40451755       4.91987243       0.00011344      -0.00015864      -0.00019455
S        2.84049016       3.82056755       7.87891768      -0.00010489       0.00015613       0.00018886
S        2.84049031       3.82056558       4.91987386      -0.00012076       0.00016791      -0.00020051
S        4.54889458       1.40451648       7.87891727       0.00010923      -0.00015700       0.00019166
