9
Lattice="4.223825185445519 7.737273795473431e-07 2.438626483941531 1.4079425264568057 3.9822605564932885 2.4386263652999465 7.77064365807664e-07 4.04161831578283e-07 4.877251621968091" Properties=species:S:1:pos:R:3:forces:R:3 energy=-57.62761306762695 free_energy=-57.62761306762695 stress="-0.0003036410780623555 4.6234890760388225e-07 -4.238879398599238e-07 4.6234890760388225e-07 -0.0003046761848963797 -2.580581224265188e-07 -4.238879398599238e-07 -2.580581224265188e-07 -0.00030266790417954326" pbc="T T T"
V        1.40794625       0.99556167       2.43862581       0.00003010      -0.00006636       0.00001233
V        4.22382802       2.98669300       7.31587935       0.00003658      -0.00001960      -0.00000302
S        0.00000044       0.00000013       0.00000159      -0.00001776       0.00000622      -0.00002745
O        1.34403403       0.95037450       4.87725198      -0.00051618      -0.00034904       0.00003233
O        4.28773227       3.03189015       4.87725159       0.00050008       0.00038326      -0.00002691
O        3.55180833       0.95037457       3.60259378       0.00024766      -0.00031972      -0.00046778
O        2.07995982       3.03188934       6.15191040      -0.00026208       0.00034177       0.00046599
O        2.07995475       3.03188590       3.60259466      -0.00025958       0.00034761      -0.00045884
O        3.55181137       0.95037619       6.15191093       0.00024176      -0.00032485       0.00047266
