9
Lattice="5.434245127740949 -3.1938150205357116e-08 3.137462905349575 1.8114150316219544 5.123455349273196 3.137462872175266 2.1223156398369185e-08 -2.5623052437457935e-08 6.274925773939598" Properties=species:S:1:pos:R:3:forces:R:3 energy=-53.85490036010742 free_energy=-53.85490036010742 stress="-1.5056497431942262e-05 -2.9715824467757557e-08 1.2563707407764468e-08 -2.9715824467757557e-08 -1.503072417108342e-05 -2.0612262119357183e-08 1.2563707407764468e-08 -2.0612262119357183e-08 -1.502483519288944e-05" pbc="T T T"
V        1.81141482       1.28086372       3.13746276      -0.00000165      -0.00000042      -0.00000054
V        5.43424536       3.84259121       9.41238864       0.00000091      -0.00000089      -0.00000011
Ta       0.00000008      -0.00000006      -0.00000021      -0.00000226      -0.00000112      -0.00000030
S        1.92859468       1.36372228       6.27492597      -0.00011319      -0.00007913      -0.00000003
S        5.31706572       3.75973282       6.27492616       0.00011408       0.00008044       0.00000056
S        4.46994764       1.36372259       4.80767474       0.00005770      -0.00008047      -0.00010023
S        2.77571238       3.75973318       7.74217648      -0.00005704       0.00008327       0.00009859
S        2.77571258       3.75973296       4.80767503      -0.00005656       0.00008139      -0.00009963
S        4.46994750       1.36372246       7.74217658       0.00005816      -0.00008324       0.00010172
