9
Lattice="4.4908899346307205 3.052376696183322e-08 2.5928164141147736 1.496963319766299 4.234051613226365 2.592816449717713 2.7500681259604948e-08 6.305043002380023e-08 5.185632780596978" Properties=species:S:1:pos:R:3:forces:R:3 energy=-65.57910919189453 free_energy=-65.57910919189453 stress="0.0001403863134328276 -2.8266700979884263e-08 -6.003581631830457e-08 -2.8266700979884263e-08 0.00014062125410418957 -2.83822192415073e-08 -6.003581631830457e-08 -2.83822192415073e-08 0.0001405440125381574" pbc="T T T"
V        1.49696211       1.05851417       2.59281728      -0.00001798       0.00001765       0.00001491
V        4.49088755       3.17554026       7.77845209      -0.00002955       0.00001958       0.00003823
Ta       0.00000013       0.00000007      -0.00000002       0.00000599      -0.00000641      -0.00000198
O        1.58254255       1.11902502       5.18563231      -0.00606388      -0.00430387      -0.00000787
O        4.40531192       3.11502512       5.18563183       0.00607830       0.00428438      -0.00001212
O        3.69961949       1.11902633       3.96333719       0.00304419      -0.00429142      -0.00526738
O        2.28823444       3.11502531       6.40792774      -0.00303310       0.00429082       0.00526249
O        2.28823528       3.11502527       3.96333709      -0.00302735       0.00429195      -0.00527442
O        3.69961960       1.11902515       6.40792702       0.00304323      -0.00430274       0.00524771
