9
Lattice="5.763238775468961 1.8068902904634097e-09 3.32740742607817 1.9210796166311386 5.433633586373005 3.327407386059824 3.932691852280336e-08 -2.1203912504500984e-08 6.654814784040085" Properties=species:S:1:pos:R:3:forces:R:3 energy=-48.67047119140625 free_energy=-48.67047119140625 stress="0.00019654039351735264 4.114228957519117e-08 1.2371158319979259e-08 4.114228957519117e-08 0.00019652745686471462 -1.3128304665599444e-08 1.2371158319979259e-08 -1.3128304665599444e-08 0.0001964980037882924" pbc="T T T"
V        1.92108006       1.35840843       3.32740804       0.00000278       0.00000048       0.00000372
V        5.76323871       4.07522535       9.98222245      -0.00000037       0.00000078       0.00000230
Ta      -0.00000008       0.00000011       0.00000010      -0.00000183      -0.00000208       0.00000597
Se       2.02894272       1.43467918       6.65481454      -0.00294604      -0.00208455      -0.00000158
Se       5.65537551       3.99895455       6.65481478       0.00294729       0.00208531      -0.00000009
Se       4.74876729       1.43467916       5.08452312       0.00147242      -0.00208280      -0.00255081
Se       2.93555093       3.99895449       8.22510616      -0.00147175       0.00208059       0.00254671
Se       2.93555116       3.99895397       5.08452300      -0.00147308       0.00208326      -0.00255396
Se       4.74876745       1.43467906       8.22510615       0.00147073      -0.00208095       0.00254764
