9
Lattice="6.189684458922937 -2.6516413601552023e-08 3.5736159626338764 2.0632281736881053 5.835690399746443 3.5736158834554517 4.743989356737158e-08 -6.342831176657087e-08 7.147231843099451" Properties=species:S:1:pos:R:3:forces:R:3 energy=-42.102359771728516 free_energy=-42.102359771728516 stress="0.00011687904770951718 1.060785503881334e-08 -8.720601130107752e-09 1.060785503881334e-08 0.00011688393715303391 1.3114017427540148e-08 -8.720601130107752e-09 1.3114017427540148e-08 0.00011687990627251565" pbc="T T T"
V        2.06322793       1.45892256       3.57361591      -0.00000188       0.00000001       0.00000044
V        6.18968452       4.37676760      10.72084734       0.00000008      -0.00000005      -0.00000335
Ti       0.00000005      -0.00000003      -0.00000019      -0.00000042       0.00000072       0.00000019
Te       2.15251176       1.52205560       7.14723188      -0.00251451      -0.00177766      -0.00000011
Te       6.10040096       4.31363450       7.14723200       0.00251377       0.00177807       0.00000177
Te       5.11342877       1.52205570       5.43774586       0.00125774      -0.00177903      -0.00217813
Te       3.13948401       4.31363499       8.85671835      -0.00125638       0.00177844       0.00217647
Te       3.13948405       4.31363477       5.43774573      -0.00125654       0.00177718      -0.00217550
Te       5.11342867       1.52205552       8.85671785       0.00125814      -0.00177767       0.00217819
