9
Lattice="5.302791805102145 1.0499787797257742e-07 3.0615681126652285 1.7675974275609994 4.999519862003634 3.0615680083943113 1.0051519678323909e-07 -5.663007643223994e-08 6.123136051232855" Properties=species:S:1:pos:R:3:forces:R:3 energy=-50.09917449951172 free_energy=-50.09917449951172 stress="0.0001197678575408645 9.321800575889938e-08 1.1619262352269288e-07 9.321800575889938e-08 0.00011975900997640565 -1.3375823471051262e-07 1.1619262352269288e-07 -1.3375823471051262e-07 0.00011962475400650874" pbc="T T T"
V        1.76759823       1.24987943       3.06156901       0.00000152       0.00000067       0.00000465
V        5.30279161       3.74963888       9.18470745      -0.00000136      -0.00000638       0.00001162
Ti       0.00000004       0.00000039      -0.00000066      -0.00000513      -0.00000609       0.00000612
S        1.86593476       1.31941519       6.12313484      -0.00412408      -0.00292246      -0.00000166
S        5.20445336       3.68010435       6.12313537       0.00414073       0.00293185      -0.00000228
S        4.36982544       1.31941607       4.67751341       0.00206287      -0.00291562      -0.00357404
S        2.70056397       3.68010498       7.56875731      -0.00206365       0.00290912       0.00356847
S        2.70056498       3.68010456       4.67751495      -0.00207014       0.00292830      -0.00358549
S        4.36982500       1.31941578       7.56875693       0.00205941      -0.00291938       0.00357240
