9
Lattice="4.370633426977467 -1.4474655684596795e-08 2.5233864683362466 1.4568778098164257 4.120672631686526 2.523386443272122 3.4897071979647977e-08 -6.021202134335042e-09 5.046772876229003" Properties=species:S:1:pos:R:3:forces:R:3 energy=-60.942325592041016 free_energy=-60.942325592041016 stress="-0.0002423162222839892 9.309698612014472e-08 -1.4619145893846053e-08 9.309698612014472e-08 -0.00024175734142772853 1.8474398189027852e-07 -1.4619145893846053e-08 1.8474398189027852e-07 -0.00024183024652302265" pbc="T T T"
V        1.45687771       1.03016816       2.52338588      -0.00000148      -0.00000016      -0.00000946
V        4.37063238       3.09050573       7.57015761      -0.00001740       0.00001858      -0.00002754
Ti       0.00000008       0.00000004       0.00000013      -0.00000179      -0.00000336      -0.00000210
O        1.53287967       1.08390867       5.04677353       0.00200534       0.00140566       0.00000749
O        4.29463201       3.03676346       5.04677370      -0.00199437      -0.00141525       0.00001112
O        3.60419370       1.08390869       3.85089922      -0.00099844       0.00140750       0.00173676
O        2.22331802       3.03676320       6.24264736       0.00100535      -0.00141221      -0.00171930
O        2.22331753       3.03676347       3.85089906       0.00100183      -0.00141621       0.00173348
O        3.60419400       1.08390912       6.24264694      -0.00099868       0.00141501      -0.00173014
