9
Lattice="5.491670246984552 -1.417385032941576e-07 3.1706172433643314 1.830556570339722 5.177596591240583 3.170617321345884 -1.0096053903852444e-07 2.4117781294500304e-08 6.341234661597233" Properties=species:S:1:pos:R:3:forces:R:3 energy=-53.384613037109375 free_energy=-53.384613037109375 stress="-0.00011528127652127296 -2.352716563791546e-07 1.0137148898081705e-08 -2.352716563791546e-07 -0.00011516355152707547 -7.279520097824843e-09 1.0137148898081705e-08 -7.279520097824843e-09 -0.00011503658606670797" pbc="T T T"
V        1.83055656       1.29439977       3.17061797      -0.00000119       0.00000385       0.00000378
V        5.49166984       3.88319797       9.51185290      -0.00000282       0.00000401       0.00000590
W       -0.00000021      -0.00000027       0.00000148       0.00000533       0.00000349      -0.00003186
S        1.88580333       1.33346442       6.34123353       0.00303000       0.00214055      -0.00000504
S        5.43642374       3.84413200       6.34123404      -0.00303409      -0.00214846      -0.00000397
S        4.54876844       1.33346461       4.80377191      -0.00151171       0.00214021       0.00262299
S        2.77345887       3.84413156       7.87869693       0.00150244      -0.00212401      -0.00260672
S        2.77345926       3.84413096       4.80377081       0.00151670      -0.00214303       0.00261882
S        4.54876686       1.33346504       7.87869740      -0.00150478       0.00212328      -0.00260344
