9
Lattice="5.836244047372735 -1.2348533324265524e-08 3.3695572142371453 1.9454146889309631 5.502463460844599 3.3695571828598863 5.185190976907874e-08 -1.764315532611219e-09 6.739114338664198" Properties=species:S:1:pos:R:3:forces:R:3 energy=-48.87897872924805 free_energy=-48.87897872924805 stress="3.306610960862599e-05 5.924482593400171e-08 -4.192598712648987e-09 5.924482593400171e-08 3.303881749161519e-05 -2.1772765812499983e-09 -4.192598712648987e-09 -2.1772765812499983e-09 3.298581941635348e-05" pbc="T T T"
V        1.94541593       1.37561470       3.36955744       0.00000843      -0.00001077       0.00000003
V        5.83624424       4.12684915      10.10866949       0.00000104       0.00001107      -0.00001462
W       -0.00000021      -0.00000024      -0.00000014      -0.00000133       0.00000622       0.00000532
Se       1.98082679       1.40065555       6.73911452       0.00112137       0.00079194       0.00000169
Se       5.80083156       4.10180788       6.73911503      -0.00112392      -0.00078937       0.00000417
Se       4.84583006       1.40065489       5.08500371      -0.00056650       0.00078881       0.00097511
Se       2.93582846       4.10180813       8.39322553       0.00056589      -0.00079767      -0.00097633
Se       2.93582766       4.10180789       5.08500373       0.00055922      -0.00079621       0.00097645
Se       4.84583061       1.40065580       8.39322572      -0.00056417       0.00079593      -0.00097176
