9
Lattice="6.2133215623788445 6.544209066191728e-08 3.5872628454412414 2.0711072199703215 5.857975869240048 3.5872628959975352 -1.6601727547597143e-08 5.017936527046286e-08 7.174525719637498" Properties=species:S:1:pos:R:3:forces:R:3 energy=-45.016937255859375 free_energy=-45.016937255859375 stress="0.00016294441593345255 9.69309699172527e-09 -7.99608379509209e-09 9.69309699172527e-09 0.00016292589134536684 -3.918255941925963e-09 -7.99608379509209e-09 -3.918255941925963e-09 0.00016292862710542977" pbc="T T T"
V        2.07110733       1.46449389       3.58726299       0.00000139      -0.00000088       0.00000141
V        6.21332159       4.39348183      10.76178868       0.00000018      -0.00000098      -0.00000022
W       -0.00000010       0.00000005      -0.00000020       0.00000097       0.00000115       0.00000307
Te       2.16407302       1.53023088       7.17452580      -0.00438498      -0.00309911       0.00000019
Te       6.12035575       4.32774530       7.17452584       0.00438264       0.00309891       0.00000062
Te       5.13128487       1.53023085       5.46140478       0.00219158      -0.00310031      -0.00379618
Te       3.15314363       4.32774537       8.88764641      -0.00219062       0.00309820       0.00379363
Te       3.15314385       4.32774509       5.46140489      -0.00219229       0.00310037      -0.00379571
Te       5.13128512       1.53023066       8.88764659       0.00219123      -0.00309724       0.00379315
