9
Lattice="5.990056320015008 -1.349448226666051e-08 3.458360681421284 1.9966854277479391 5.647479236975585 3.45836068061471 2.149853721627241e-08 1.4213915601225761e-08 6.916721325606" Properties=species:S:1:pos:R:3:forces:R:3 energy=-30.440942764282227 free_energy=-30.440942764282227 stress="0.00016784682520665228 6.311812406067929e-09 -1.3573766555197153e-09 6.311812406067929e-09 0.00016783206956461072 -9.43458822177945e-09 -1.3573766555197153e-09 -9.43458822177945e-09 0.00016783454339019954" pbc="T T T"
V        1.99668515       1.41186963       3.45836079      -0.00000058      -0.00000046       0.00000010
V        5.99005626       4.23560963      10.37508170      -0.00000053       0.00000059      -0.00000006
Zn       0.00000012       0.00000005       0.00000013      -0.00000163      -0.00000052       0.00000141
Br       2.04018694       1.44262992       6.91672130       0.00212875       0.00150405      -0.00000000
Br       5.94655482       4.20484914       6.91672145      -0.00212643      -0.00150286      -0.00000018
Br       4.96996296       1.44263009       5.22521426      -0.00106298       0.00150365       0.00184277
Br       3.01677895       4.20484936       8.60822832       0.00106428      -0.00150515      -0.00184295
Br       3.01677881       4.20484920       5.22521444       0.00106313      -0.00150427       0.00184292
Br       4.96996307       1.44262989       8.60822839      -0.00106419       0.00150502      -0.00184399
