9
Lattice="6.5363286756386145 2.9466826145494475e-08 3.773751117040307 2.178776237584531 6.162509824000009 3.773751143731135 -1.1528837376628905e-08 2.4537320465316573e-08 7.5475022540491326" Properties=species:S:1:pos:R:3:forces:R:3 energy=-26.7270450592041 free_energy=-26.7270450592041 stress="0.00011844948312500492 -8.848480170797757e-09 -7.273029289933675e-09 -8.848480170797757e-09 0.00011845384142361581 -1.9992950003877574e-11 -7.273029289933675e-09 -1.9992950003877574e-11 0.00011846058623632416" pbc="T T T"
V        2.17877617       1.54062747       3.77375118       0.00000023      -0.00000015       0.00000009
V        6.53632874       4.62188262      11.32125307      -0.00000069      -0.00000044      -0.00000129
Zn      -0.00000011      -0.00000008      -0.00000032      -0.00000077       0.00000016       0.00000129
I        2.22993100       1.57679937       7.54750247       0.00148742       0.00105148       0.00000024
I        6.48517379       4.58571037       7.54750244      -0.00148612      -0.00105070       0.00000064
I        5.42136322       1.57679929       5.70492807      -0.00074316       0.00105009       0.00128740
I        3.29374195       4.58571048       9.39007644       0.00074370      -0.00105111      -0.00128818
I        3.29374174       4.58571057       5.70492807       0.00074310      -0.00105105       0.00128823
I        5.42136312       1.57679940       9.39007665      -0.00074374       0.00105176      -0.00128847
