9
Lattice="5.605354741668429 3.249856950931226e-08 3.236253032948212 1.8684515983471093 5.284779109182006 3.2362530552032736 -4.9843489462930735e-08 -7.987880557662671e-09 6.472506152227878" Properties=species:S:1:pos:R:3:forces:R:3 energy=-33.29450607299805 free_energy=-33.29450607299805 stress="0.0003866800107061863 2.864564940807668e-08 1.322567388939433e-08 2.864564940807668e-08 0.00038671819493174553 2.817717792424901e-08 1.322567388939433e-08 2.817717792424901e-08 0.00038665562169626355" pbc="T T T"
V        1.86845168       1.32119501       3.23625308       0.00000205       0.00000293       0.00000000
V        5.60535446       3.96358401       9.70875880      -0.00000442      -0.00000455      -0.00000419
Zn       0.00000007       0.00000025       0.00000026       0.00000101      -0.00000425      -0.00000099
Cl       1.91368233       1.35317792       6.47250617       0.00198069       0.00140035       0.00000047
Cl       5.56012380       3.93160117       6.47250620      -0.00198016      -0.00140089       0.00000120
Cl       4.64851340       1.35317803       4.89355039      -0.00098979       0.00140099       0.00171843
Cl       2.82529300       3.93160116       8.05146175       0.00099196      -0.00139979      -0.00171334
Cl       2.82529283       3.93160103       4.89355057       0.00098941      -0.00139849       0.00171611
Cl       4.64851358       1.35317795       8.05146177      -0.00099102       0.00140356      -0.00171733
