9
Lattice="4.4775871760289725 -6.23349453311585e-08 2.5851361941424664 1.4925290308963892 4.221509262678462 2.58513614046617 5.3491765933319335e-08 -2.791539406411631e-08 5.170272295634499" Properties=species:S:1:pos:R:3:forces:R:3 energy=-44.03681182861328 free_energy=-44.03681182861328 stress="0.0003261235251557082 -1.4597570263674697e-08 2.6300011057855954e-09 -1.4597570263674697e-08 0.00032616432872600853 -1.5566802957778236e-08 2.6300011057855954e-09 -1.5566802957778236e-08 0.0003259873192291707" pbc="T T T"
V        1.49252893       1.05537735       2.58513581       0.00000008       0.00000134      -0.00000498
V        4.47758764       3.16613213       7.75540776       0.00000440       0.00000397      -0.00000741
Zn       0.00000011      -0.00000003      -0.00000007       0.00000042      -0.00000294       0.00000219
F        1.54589065       1.09310998       5.17027246       0.00038939       0.00027788       0.00000072
F        4.42422545       3.12839939       5.17027293      -0.00038777      -0.00027749       0.00000535
F        3.70464147       1.09310930       3.92391718      -0.00019486       0.00027233       0.00034215
F        2.26547443       3.12839930       6.41662777       0.00019467      -0.00027901      -0.00033802
F        2.26547454       3.12839971       3.92391702       0.00019346      -0.00027275       0.00033969
F        3.70464167       1.09310952       6.41662786      -0.00019994       0.00027643      -0.00033997
