9
Lattice="4.308920632075557 5.0401348710999554e-09 2.487756393773306 1.436306896147811 4.062489227746362 2.4877563694597997 7.003022523887427e-08 1.974099316303837e-08 4.975512666250738" Properties=species:S:1:pos:R:3:forces:R:3 energy=-53.021507263183594 free_energy=-53.021507263183594 stress="-0.0004923484520986676 2.9591151928798354e-07 -3.127775300981739e-07 2.9591151928798354e-07 -0.0004920646897517145 -2.682596687009209e-07 -3.127775300981739e-07 -2.682596687009209e-07 -0.0004921479267068207" pbc="T T T"
W        1.43631692       1.01561947       2.48774649       0.00024036      -0.00007488      -0.00023666
W        4.30892673       3.04686447       7.46326394       0.00015346      -0.00005763      -0.00013280
Co       0.00000024       0.00000002       0.00000007      -0.00000159      -0.00000057      -0.00000668
O        1.48842202       1.05247619       4.97551725       0.00512004       0.00369477       0.00010299
O        4.25680081       3.01001736       4.97551497      -0.00522745      -0.00358540       0.00005865
O        3.56470696       1.05247340       3.77677070      -0.00263476       0.00363857       0.00450516
O        2.18051597       3.01001382       6.17425676       0.00252116      -0.00367528      -0.00445199
O        2.18051671       3.01001567       3.77677122       0.00252432      -0.00362843       0.00453210
O        3.56470382       1.05247658       6.17426061      -0.00269604       0.00368804      -0.00436926
