9
Lattice="5.87405390030021 -9.045650865997348e-08 3.3913867102025828 1.958017955791594 5.538110866380957 3.3913865814971857 1.2391633993328864e-07 -7.000915440327406e-08 6.782773205775735" Properties=species:S:1:pos:R:3:forces:R:3 energy=-41.99361801147461 free_energy=-41.99361801147461 stress="-5.176556805963628e-05 -1.868657584225275e-08 -4.375122131250464e-08 -1.868657584225275e-08 -5.169933501747437e-05 1.6194960039683792e-08 -4.375122131250464e-08 1.6194960039683792e-08 -5.174501711735502e-05" pbc="T T T"
W        1.95801775       1.38452771       3.39138648      -0.00000244      -0.00000033       0.00000052
W        5.87405332       4.15358325      10.17415917      -0.00000114       0.00000001      -0.00000282
Co       0.00000019      -0.00000011       0.00000035      -0.00000035      -0.00000053      -0.00000548
Te       1.97173005       1.39422347       6.78277345      -0.00141069      -0.00099948       0.00000102
Te       5.86034191       4.14388700       6.78277332       0.00141394       0.00100017      -0.00000305
Te       4.88818934       1.39422337       5.09895506       0.00070576      -0.00099865      -0.00122049
Te       2.94388351       4.14388690       8.46659130      -0.00070814       0.00100441       0.00122737
Te       2.94388264       4.14388723       5.09895482      -0.00070475       0.00099425      -0.00122347
Te       4.88818921       1.39422402       8.46659203       0.00070804      -0.00099998       0.00122644
