9
Lattice="4.822146182059968 1.574875352792007e-07 2.784067432002319 1.6073821467092144 4.546363471758359 2.7840675401829764 -1.3937818461047152e-08 1.2263815742426663e-07 5.568134888145634" Properties=species:S:1:pos:R:3:forces:R:3 energy=-52.62114715576172 free_energy=-52.62114715576172 stress="-9.987499652197585e-06 -7.240430477395421e-08 -1.6912077072106513e-08 -7.240430477395421e-08 -9.961403520719614e-06 -4.078829363152181e-08 -1.6912077072106513e-08 -4.078829363152181e-08 -1.0039210792456288e-05" pbc="T T T"
W        1.60738191       1.13659103       2.78406744      -0.00000189      -0.00000073      -0.00000093
W        4.82214641       3.40977283       8.35220172       0.00000045       0.00000048      -0.00000161
Co       0.00000003       0.00000002       0.00000032      -0.00000007       0.00000019      -0.00000096
S        1.68821664       1.19374960       5.56813480      -0.00020450      -0.00014460       0.00000410
S        4.74131172       3.35261412       5.56813514       0.00020713       0.00014466       0.00000030
S        3.97803793       1.19374987       4.24610600       0.00010616      -0.00014609      -0.00017846
S        2.45149033       3.35261404       6.89016404      -0.00010747       0.00014561       0.00017720
S        2.45149052       3.35261376       4.24610614      -0.00010335       0.00014728      -0.00017732
S        3.97803783       1.19374976       6.89016400       0.00010350      -0.00014710       0.00017750
