9
Lattice="5.043814129152349 4.677030318832989e-08 2.912047731643509 1.6812714260984643 4.755354013908794 2.912047721911265 4.040172673838032e-08 1.664886872883722e-08 5.82409539330916" Properties=species:S:1:pos:R:3:forces:R:3 energy=-46.775943756103516 free_energy=-46.775943756103516 stress="2.8943935831193812e-05 -8.3899919900432e-08 2.218056494029952e-08 -8.3899919900432e-08 2.8984310119994916e-05 8.915566063194547e-09 2.218056494029952e-08 8.915566063194547e-09 2.8964646844542585e-05" pbc="T T T"
W        1.68127068       1.18883894       2.91204751       0.00000120      -0.00000110      -0.00000124
W        5.04381390       3.56651602       8.73614371       0.00000045      -0.00000162      -0.00000183
Co       0.00000017      -0.00000029       0.00000042       0.00000206      -0.00000042      -0.00000300
Se       1.77104216       1.25231459       5.82409518       0.00073531       0.00051287      -0.00000102
Se       4.95404364       3.50303940       5.82409530      -0.00073870      -0.00051257       0.00000130
Se       4.15829385       1.25231613       4.44581500      -0.00036180       0.00051974       0.00062707
Se       2.56679192       3.50303750       7.20237554       0.00035986      -0.00051753      -0.00062661
Se       2.56679170       3.50303793       4.44581503       0.00035961      -0.00052036       0.00063436
Se       4.15829416       1.25231615       7.20237559      -0.00035802       0.00052091      -0.00062928
