9
Lattice="4.407617347075739 -5.180805518202112e-08 2.5447389965897984 1.469205719020065 4.155541197911235 2.5447390216931547 -3.972918866011074e-08 2.6524009135453062e-09 5.08947806199259" Properties=species:S:1:pos:R:3:forces:R:3 energy=-57.27348709106445 free_energy=-57.27348709106445 stress="1.2776518815371674e-05 2.5015042481868477e-08 2.6364628524788714e-07 2.5015042481868477e-08 1.2898719432996586e-05 1.5391984220514132e-07 2.6364628524788714e-07 1.5391984220514132e-07 1.3127144484315068e-05" pbc="T T T"
W        1.46920637       1.03888718       2.54474402       0.00001104       0.00004283       0.00009312
W        4.40761514       3.11665911       7.63421692      -0.00004224       0.00006018       0.00000508
Cr       0.00000000      -0.00000013       0.00000010      -0.00000401       0.00000194      -0.00000234
O        1.47370276       1.04206266       5.08947563       0.00054869       0.00034264      -0.00004472
O        4.40312146       3.11347639       5.08947859      -0.00051996      -0.00038296       0.00000126
O        3.67076519       1.04206439       3.82100125      -0.00028117       0.00036114       0.00043926
O        2.20605703       3.11347554       6.35795396       0.00026724      -0.00038189      -0.00045151
O        2.20605707       3.11347584       3.82100161       0.00026752      -0.00039157       0.00043634
O        3.67076736       1.04206366       6.35795243      -0.00024779       0.00034744      -0.00047803
