9
Lattice="5.200877942029565 2.6496175720478174e-07 3.002728337772113 1.7336261619749551 4.9034351288021965 3.002728456434776 -7.581545084835812e-08 9.172187479716358e-08 6.005456806860447" Properties=species:S:1:pos:R:3:forces:R:3 energy=-49.00234603881836 free_energy=-49.00234603881836 stress="-9.23942934605293e-05 8.587587529973462e-08 -3.2350495615673935e-08 8.587587529973462e-08 -9.249698632629588e-05 4.686283006094527e-08 -3.2350495615673935e-08 4.686283006094527e-08 -9.240485815098509e-05" pbc="T T T"
W        1.73362585       1.22585847       3.00272952      -0.00000013      -0.00000055      -0.00000119
W        5.20087808       3.67757668       9.00818650       0.00000012      -0.00000084      -0.00000158
Cr       0.00000036       0.00000052      -0.00000025      -0.00000902      -0.00000194      -0.00000221
Se       1.86156338       1.31632426       6.00545656      -0.00402915      -0.00285050       0.00000011
Se       5.07294004       3.58711176       6.00545729       0.00404119       0.00286278       0.00000312
Se       4.27009699       1.31632445       4.61488913       0.00202116      -0.00285172      -0.00348932
Se       2.66440727       3.58711109       7.39602358      -0.00202209       0.00284937       0.00348866
Se       2.66440782       3.58711054       4.61488836      -0.00201520       0.00284556      -0.00348955
Se       4.27009621       1.31632430       7.39602381       0.00201347      -0.00285241       0.00349158
