9
Lattice="4.966288885086364 2.666131031554658e-08 2.8672881737115192 1.6554296717464605 4.68226205156519 2.8672881421053478 1.524950471991821e-08 -2.7926457138393155e-08 5.73457632101012" Properties=species:S:1:pos:R:3:forces:R:3 energy=-54.436466217041016 free_energy=-54.436466217041016 stress="-0.0004400477628223598 7.219330910857025e-08 4.6283783916578614e-08 7.219330910857025e-08 -0.00044001435162499547 -6.543038466588769e-08 4.6283783916578614e-08 -6.543038466588769e-08 -0.0004400387406349182" pbc="T T T"
W        1.65542985       1.17056540       2.86728829       0.00000173      -0.00000091       0.00000188
W        4.96628879       3.51169637       8.60186454      -0.00000319      -0.00000120       0.00000258
Cr      -0.00000020       0.00000041      -0.00000018       0.00000125      -0.00000421       0.00000139
S        1.75994565       1.24446952       5.73457643      -0.00521427      -0.00369090       0.00000034
S        4.86177278       3.43779250       5.73457636       0.00521803       0.00369072      -0.00000154
S        4.08631665       1.24446928       4.39144558       0.00260514      -0.00368351      -0.00450844
S        2.53540241       3.43779276       7.07770678      -0.00260466       0.00368655       0.00451237
S        2.53540227       3.43779237       4.39144552      -0.00260687       0.00368631      -0.00452060
S        4.08631622       1.24446966       7.07770717       0.00260279      -0.00368267       0.00451183
