9
Lattice="4.786263806653959 -1.842582897505878e-07 2.7633508807916676 1.595421180860473 4.512532528269627 2.763350732361464 8.203597714209276e-08 -1.237809276281043e-07 5.526701619492841" Properties=species:S:1:pos:R:3:forces:R:3 energy=-49.681339263916016 free_energy=-49.681339263916016 stress="1.4772436770726927e-05 9.843975590229093e-08 -3.280971583308201e-08 9.843975590229093e-08 1.481243089074269e-05 3.9931538964310676e-08 -3.280971583308201e-08 3.9931538964310676e-08 1.4707740774611011e-05" pbc="T T T"
W        1.59542050       1.12813226       2.76335103      -0.00000957       0.00000107       0.00001124
W        4.78626368       3.38439969       8.29005312      -0.00000795       0.00000363       0.00001333
C       -0.00001074       0.00000256       0.00001312      -0.00035999       0.00008773       0.00044385
S        1.62427872       1.14853750       5.52670092       0.00422779       0.00296441      -0.00003053
S        4.75741174       3.36399683       5.52670034      -0.00405470      -0.00289518      -0.00003373
S        3.97412782       1.14853382       4.17001117      -0.00198553       0.00283483       0.00344388
S        2.40756227       3.36399298       6.88338361       0.00216454      -0.00302538      -0.00373191
S        2.40755989       3.36399627       4.17001393       0.00208425      -0.00291525       0.00353271
S        3.97412637       1.14853699       6.88338591      -0.00205878       0.00294422      -0.00364934
