9
Lattice="4.415384698190596 -1.3386909801848519e-08 2.5492232515007816 1.4717948143646868 4.162864664539935 2.549223376920075 -2.5846220627160933e-07 -2.915372289489073e-08 5.098446950671202" Properties=species:S:1:pos:R:3:forces:R:3 energy=-52.949363708496094 free_energy=-52.949363708496094 stress="0.0005415615160018206 8.34706170849131e-08 6.212129619598272e-07 8.34706170849131e-08 0.0005416723433881998 5.472141424434085e-07 6.212129619598272e-07 5.472141424434085e-07 0.0005418546497821808" pbc="T T T"
W        1.47180296       1.04071774       2.54921459       0.00016490       0.00003216      -0.00021826
W        4.41538886       3.12214978       7.64764589       0.00010357       0.00002425      -0.00048037
Fe      -0.00000008      -0.00000013       0.00000014       0.00000091       0.00000350       0.00000109
O        1.47768696       1.04488605       5.09844986      -0.00559101      -0.00389534       0.00008565
O        4.40949004       3.11797908       5.09845790       0.00553834       0.00391227       0.00021388
O        3.67653607       1.04487991       3.82894372       0.00270815      -0.00401235      -0.00472364
O        2.21064134       3.11797934       6.36795823      -0.00275193       0.00388750       0.00490478
O        2.21063583       3.11798136       3.82894466      -0.00285481       0.00394022      -0.00470513
O        3.67653493       1.04488550       6.36795964       0.00268218      -0.00389236       0.00492176
