9
Lattice="4.883307448426295 -4.340490116956154e-12 2.819378822660077 1.6277691361013702 4.604026622522961 2.8193788458175337 -5.8723655406967914e-08 -1.3161929995347023e-08 5.638757747032542" Properties=species:S:1:pos:R:3:forces:R:3 energy=-53.65534210205078 free_energy=-53.65534210205078 stress="4.906320100417361e-05 -1.716976427701411e-08 1.4746876608739967e-08 -1.716976427701411e-08 4.89964077132754e-05 -3.280870686239723e-08 1.4746876608739967e-08 -3.280870686239723e-08 4.9045076593756676e-05" pbc="T T T"
W        1.62776940       1.15100673       2.81937854       0.00000089      -0.00000056       0.00000067
W        4.88330727       3.45302001       8.45813696      -0.00000070      -0.00000025      -0.00000048
Fe      -0.00000016      -0.00000004      -0.00000001       0.00000056       0.00000213      -0.00000137
S        1.72403457       1.21907677       5.63875761       0.00215614       0.00152326      -0.00000286
S        4.78704198       3.38494988       5.63875794      -0.00215888      -0.00152808       0.00000106
S        4.02129016       1.21907659       4.31243657      -0.00107813       0.00152731       0.00187016
S        2.48978638       3.38494979       6.96507867       0.00107783      -0.00152230      -0.00186801
S        2.48978647       3.38495025       4.31243668       0.00107920      -0.00152504       0.00186956
S        4.02128993       1.21907647       6.96507871      -0.00107664       0.00152361      -0.00186825
