9
Lattice="5.100766973031709 -2.884776305665411e-08 2.9449290646326913 1.7002556529279995 4.809049193902062 2.9449290257504406 -8.702934710352855e-10 -4.823623159403207e-08 5.889858130772718" Properties=species:S:1:pos:R:3:forces:R:3 energy=-45.96236801147461 free_energy=-45.96236801147461 stress="-1.310747757088393e-05 -4.8636209726282686e-08 -1.0377587678078726e-08 -4.8636209726282686e-08 -1.3194384337111842e-05 1.0955920615174364e-08 -1.0377587678078726e-08 1.0955920615174364e-08 -1.3142522220732644e-05" pbc="T T T"
W        1.70025594       1.20226206       2.94492916       0.00000070       0.00000003       0.00000042
W        5.10076677       3.60678702       8.83478730      -0.00000148       0.00000051      -0.00000004
Ge      -0.00000006      -0.00000012      -0.00000012       0.00000263      -0.00000105       0.00000235
S        1.80193881       1.27416303       5.88985813      -0.00019789      -0.00014374       0.00000218
S        4.99908386       3.53488611       5.88985806       0.00019795       0.00014058       0.00000277
S        4.19979749       1.27416333       4.50545366       0.00010225      -0.00014454      -0.00017607
S        2.60122498       3.53488623       7.27426222      -0.00010109       0.00014374       0.00017416
S        2.60122502       3.53488564       4.50545357      -0.00010177       0.00014445      -0.00017858
S        4.19979775       1.27416305       7.27426271       0.00009847      -0.00013977       0.00017309
