9
Lattice="6.156588093712284 -2.1640018383534404e-08 3.554507803016906 2.0521959722026835 5.804486903425734 3.554507869930079 -2.0656477678822414e-08 6.734522690272739e-08 7.10901564181188" Properties=species:S:1:pos:R:3:forces:R:3 energy=-36.30406188964844 free_energy=-36.30406188964844 stress="9.458598651690409e-05 -8.281821450850657e-09 -1.824241735448595e-08 -8.281821450850657e-09 9.459981083637103e-05 3.508960944031969e-08 -1.824241735448595e-08 3.508960944031969e-08 9.459137072553858e-05" pbc="T T T"
W        2.05219613       1.45112145       3.55450788       0.00000082      -0.00000467      -0.00000012
W        6.15658837       4.35336517      10.66352211       0.00000368      -0.00000113      -0.00001342
Ge       0.00000011       0.00000002      -0.00000003       0.00000009      -0.00000176       0.00000063
Te       2.16570239       1.53138315       7.10901579      -0.00001279      -0.00000750       0.00000110
Te       6.04308146       4.27310403       7.10901643       0.00001219       0.00001104       0.00000445
Te       5.07373660       1.53138259       5.43006177       0.00000563      -0.00001216      -0.00000808
Te       3.13504760       4.27310432       8.78796988      -0.00000696       0.00001377       0.00001155
Te       3.13504674       4.27310359       5.43006127      -0.00000875       0.00000723      -0.00000876
Te       5.07373675       1.53138351       8.78797014       0.00000602      -0.00000476       0.00001268
