9
Lattice="4.349136096184988 4.673496390948638e-08 2.5109750136905804 1.4497120354577269 4.100405010512708 2.510975084126295 -5.271752833661315e-08 4.898885929084115e-08 5.021950118690592" Properties=species:S:1:pos:R:3:forces:R:3 energy=-55.33932113647461 free_energy=-55.33932113647461 stress="0.0007954533211886883 -2.489946666628384e-07 3.097062872825518e-08 -2.489946666628384e-07 0.0007954090251587331 5.2087752777651986e-08 3.097062872825518e-08 5.2087752777651986e-08 0.0007950993021950126" pbc="T T T"
W        1.44971032       1.02509992       2.51097541      -0.00002642      -0.00002504       0.00000895
W        4.34914002       3.07530473       7.53292562       0.00007938       0.00001443       0.00000950
Ge       0.00000001      -0.00000002       0.00000005       0.00000214      -0.00000534      -0.00001051
O        1.48110720       1.04730174       5.02195075       0.00521159       0.00369972       0.00000499
O        4.31774053       3.05310365       5.02194946      -0.00522554      -0.00369221      -0.00001293
O        3.60858166       1.04730107       3.79365188      -0.00262368       0.00368804       0.00452614
O        2.19026535       3.05310424       6.25024741       0.00259584      -0.00367743      -0.00452960
O        2.19026424       3.05310452       3.79365322       0.00258553      -0.00367999       0.00454545
O        3.60858298       1.04730059       6.25024713      -0.00259870       0.00367892      -0.00454199
