9
Lattice="5.414137023528314 3.3875100126335865e-07 3.12585438880154 1.8047127606200954 5.104498552478257 3.125854215481169 6.453087569059878e-07 2.4402905296667084e-07 6.2517076598954375" Properties=species:S:1:pos:R:3:forces:R:3 energy=-45.344993591308594 free_energy=-45.344993591308594 stress="0.00012359202082734555 -1.1122496346160915e-07 -9.611213158677856e-08 -1.1122496346160915e-07 0.00012371520278975368 8.555431207923903e-08 -9.611213158677856e-08 8.555431207923903e-08 0.0001238513650605455" pbc="T T T"
W        1.80470990       1.27612480       3.12585321      -0.00000834       0.00000060      -0.00000420
W        5.41413615       3.82837271       9.37756313      -0.00000709      -0.00000664       0.00000227
Ir      -0.00000123      -0.00000023      -0.00000063       0.00001279       0.00000138       0.00000477
Se       1.97355851       1.39551642       6.25170931       0.00287443       0.00202858       0.00000743
Se       5.24529319       3.70898179       6.25170709      -0.00287479      -0.00203151      -0.00000681
Se       4.42735910       1.39551802       4.83500656      -0.00143117       0.00202096       0.00248188
Se       2.79149335       3.70898252       7.66840981       0.00143403      -0.00201899      -0.00248224
Se       2.79149266       3.70898149       4.83500529       0.00143063      -0.00202924       0.00248057
Se       4.42735973       1.39551886       7.66841108      -0.00143039       0.00203520      -0.00248361
