9
Lattice="5.082915167577768 -6.734394822280482e-08 2.9346224223757087 1.6943049750818633 4.792218385409202 2.9346224523140316 -3.821359902351271e-08 9.64572939917804e-09 5.8692449109393" Properties=species:S:1:pos:R:3:forces:R:3 energy=-51.853641510009766 free_energy=-51.853641510009766 stress="-0.0003101115289609879 -3.908933621232791e-08 -2.6528160224081887e-10 -3.908933621232791e-08 -0.00031009313534013927 -1.0819764639791174e-08 -2.6528160224081887e-10 -1.0819764639791174e-08 -0.0003100650501437485" pbc="T T T"
W        1.69430528       1.19805464       2.93462267       0.00000143       0.00000098       0.00000123
W        5.08291494       3.59416343       8.80386733      -0.00000116      -0.00000137      -0.00000106
Ir      -0.00000009       0.00000042      -0.00000032      -0.00000003      -0.00000136       0.00000207
S        1.84409130       1.30396943       5.86924509      -0.00580394      -0.00410289       0.00000178
S        4.93312887       3.48824893       5.86924506       0.00580442       0.00410378       0.00000011
S        4.16086927       1.30396959       4.53165257       0.00290269      -0.00410545      -0.00503051
S        2.61635081       3.48824877       7.20683700      -0.00290215       0.00410396       0.00502908
S        2.61635059       3.48824869       4.53165236      -0.00290364       0.00410652      -0.00502837
S        4.16086937       1.30396947       7.20683719       0.00290245      -0.00410336       0.00502503
