9
Lattice="4.566597097386753 4.7361018195711074e-08 2.636526075749731 1.5221990372378895 4.305429817569155 2.636526144818363 -2.5640972044725176e-07 -9.671765405564515e-08 5.273052595614128" Properties=species:S:1:pos:R:3:forces:R:3 energy=-55.08791732788086 free_energy=-55.08791732788086 stress="-6.467654020525515e-05 -1.2382975000946317e-07 1.0863531230143053e-07 -1.2382975000946317e-07 -6.514312553917989e-05 7.389837008986433e-08 1.0863531230143053e-07 7.389837008986433e-08 -6.488944927696139e-05" pbc="T T T"
W        1.52219857       1.07635603       2.63652575       0.00000104      -0.00003403      -0.00001501
W        4.56660381       3.22906274       7.90957289       0.00013288      -0.00018553      -0.00010892
Ir       0.00000024       0.00000015       0.00000003      -0.00003090       0.00001539       0.00001851
O        1.53528839       1.08562059       5.27305423       0.00169319       0.00132763       0.00002435
O        4.55350368       3.21981440       5.27305295      -0.00174731      -0.00122002       0.00002726
O        3.79894953       1.08561640       3.96612812      -0.00087976       0.00124611       0.00149368
O        2.28984484       3.21981473       6.57997687       0.00087062      -0.00122464      -0.00152239
O        2.28984125       3.21981471       3.96613079       0.00080453      -0.00121902       0.00156136
O        3.79895283       1.08561911       6.57997772      -0.00084423       0.00129384      -0.00147893
