9
Lattice="4.343110838514046 -4.468162366915471e-08 2.5074963470320584 1.4477036162340202 4.094723972805455 2.507496268185263 1.4866198878768934e-07 8.552681214621858e-09 5.014992436573998" Properties=species:S:1:pos:R:3:forces:R:3 energy=-57.291053771972656 free_energy=-57.291053771972656 stress="6.758482777513564e-05 -4.31556479441042e-09 -1.9821321473045828e-07 -4.31556479441042e-09 6.759745156159624e-05 -1.649146668114554e-07 -1.9821321473045828e-07 -1.649146668114554e-07 6.76414420013316e-05" pbc="T T T"
W        1.44770185       1.02368198       2.50749712      -0.00003852       0.00002242       0.00002343
W        4.34310982       3.07104461       7.52249188      -0.00003186       0.00003366       0.00006704
Mn       0.00000004       0.00000013       0.00000002      -0.00000103      -0.00000586      -0.00000188
O        1.46178681       1.03363666       5.01499128      -0.00021917      -0.00019866      -0.00002454
O        4.32902917       3.06108565       5.01499219       0.00024655       0.00017172      -0.00001268
O        3.61221974       1.03363924       3.77343914       0.00014117      -0.00015631      -0.00021279
O        2.17859512       3.06108464       6.25654511      -0.00013275       0.00015402       0.00020000
O        2.17859710       3.06108541       3.77343898      -0.00010285       0.00016522      -0.00022453
O        3.61221908       1.03363736       6.25654427       0.00013751      -0.00018689       0.00018603
