9
Lattice="5.231536084664218 -9.78536473622344e-09 3.020428189358376 1.7438453269779048 4.932339350349545 3.0204282332676886 -2.924692827649621e-07 -1.530293123725641e-07 6.0408568852883855" Properties=species:S:1:pos:R:3:forces:R:3 energy=-48.01856231689453 free_energy=-48.01856231689453 stress="0.00010771114466479048 -5.5185381597766536e-08 6.95163677733035e-08 -5.5185381597766536e-08 0.00010780517914099619 -3.0876982748395676e-08 6.95163677733035e-08 -3.0876982748395676e-08 0.00010785396443679929" pbc="T T T"
W        1.74384575       1.23308440       3.02042893      -0.00000146      -0.00000038      -0.00000299
W        5.23153570       3.69925446       9.06128506       0.00000056      -0.00000057      -0.00000077
Mn       0.00000022      -0.00000005       0.00000106       0.00000343       0.00000074      -0.00000343
Se       1.88449232       1.33253662       6.04085632      -0.00117135      -0.00083125       0.00000369
Se       5.09088924       3.59980310       6.04085582       0.00115901       0.00082195      -0.00000052
Se       4.28929010       1.33253769       4.65244647       0.00059259      -0.00082606      -0.00100976
Se       2.68609107       3.59980242       7.42926646      -0.00058505       0.00082970       0.00101423
Se       2.68609104       3.59980059       4.65244614      -0.00058827       0.00082892      -0.00101823
Se       4.28928890       1.33253769       7.42926680       0.00059044      -0.00082362       0.00101769
