9
Lattice="5.92207062677918 -1.4937566301508546e-08 3.4191092006548574 1.97402355835187 5.583381805752351 3.4191091483894773 1.0254721307804565e-07 8.50012889205039e-09 6.838218223692684" Properties=species:S:1:pos:R:3:forces:R:3 energy=-43.42031478881836 free_energy=-43.42031478881836 stress="-9.38859157031402e-05 1.6034192640290712e-08 4.024396105251071e-08 1.6034192640290712e-08 -9.384952136315405e-05 6.951174924552106e-08 4.024396105251071e-08 6.951174924552106e-08 -9.377473907079548e-05" pbc="T T T"
W        1.97402363       1.39584508       3.41910865      -0.00000008      -0.00000194      -0.00000505
W        5.92207038       4.18753550      10.25732723       0.00000199      -0.00000607       0.00000041
Mn      -0.00000020       0.00000001       0.00000038       0.00000159       0.00000068      -0.00000324
Te       2.00915863       1.42068999       6.83821837      -0.00143854      -0.00101546      -0.00000271
Te       5.88693560       4.16269179       6.83821826       0.00143693       0.00101596      -0.00000088
Te       4.91749138       1.42069031       5.15909217       0.00071746      -0.00101460      -0.00124700
Te       2.97860357       4.16269173       8.51734436      -0.00071970       0.00101897       0.00125207
Te       2.97860318       4.16269247       5.15909237      -0.00071688       0.00102057      -0.00124254
Te       4.91749101       1.42069027       8.51734448       0.00071697      -0.00101804       0.00124890
