9
Lattice="5.021124965289602 9.695131257950684e-08 2.8989480182203153 1.6737083756046873 4.733962144012555 2.8989480832849535 4.003987384451354e-08 1.0800005091637838e-07 5.797895967089522" Properties=species:S:1:pos:R:3:forces:R:3 energy=-55.03602600097656 free_energy=-55.03602600097656 stress="-0.0001342001633020118 -5.120966761751333e-09 -6.515978867582817e-08 -5.120966761751333e-09 -0.00013417951413430274 4.8662098350860106e-08 -6.515978867582817e-08 4.8662098350860106e-08 -0.00013419307651929557" pbc="T T T"
W        1.67370856       1.18349039       2.89894790       0.00000038       0.00000060      -0.00000011
W        5.02112505       3.55047199       8.69684455      -0.00000021       0.00000048       0.00000146
Mo      -0.00000014      -0.00000010      -0.00000023       0.00000479      -0.00000404      -0.00000393
S        1.83507789       1.29759620       5.79789596      -0.00195515      -0.00138432      -0.00000221
S        4.85975549       3.43636615       5.79789612       0.00195289       0.00137842      -0.00000067
S        4.10358632       1.29759597       4.48817215       0.00097525      -0.00137961      -0.00168824
S        2.59124738       3.43636616       7.10761985      -0.00097948       0.00138968       0.00169659
S        2.59124729       3.43636643       4.48817206      -0.00097394       0.00137955      -0.00169241
S        4.10358568       1.29759617       7.10762001       0.00097662      -0.00138062       0.00168931
