9
Lattice="4.59407812078338 -5.5607091845357154e-08 2.652392196508206 1.5313593005808248 4.331338104674798 2.6523922321655387 -7.159581063714278e-08 -6.954737103909166e-09 5.304784517023981" Properties=species:S:1:pos:R:3:forces:R:3 energy=-57.213993072509766 free_energy=-57.213993072509766 stress="0.00042863073758780956 -2.2262938159656187e-08 3.633369871636205e-08 -2.2262938159656187e-08 0.00042886880692094564 4.864621061528851e-08 3.633369871636205e-08 4.864621061528851e-08 0.0004287135088816285" pbc="T T T"
W        1.53136415       1.08283080       2.65239192       0.00007736      -0.00005471      -0.00000902
W        4.59408157       3.24850396       7.95717409       0.00006070       0.00000366      -0.00004013
Mo       0.00000007      -0.00000013      -0.00000006       0.00000186       0.00000749       0.00000436
O        1.55827001       1.10186721       5.30478594      -0.00454795      -0.00316906       0.00001598
O        4.56716479       3.22947361       5.30478475       0.00450107       0.00320727       0.00000634
O        3.81493853       1.10186279       4.00189569       0.00221549      -0.00322050      -0.00391787
O        2.31049651       3.22947559       6.60767306      -0.00225320       0.00321731       0.00390542
O        2.31049424       3.22947416       4.00189634      -0.00227726       0.00320905      -0.00389591
O        3.81493958       1.10186410       6.60767428       0.00222147      -0.00320014       0.00393084
