9
Lattice="5.301077183079244 -2.0791893923287709e-07 3.0605783154253636 1.7670255901728178 4.997903146232263 3.0605782140872155 -7.963947954579126e-08 -1.8042692612909193e-07 6.12115676879031" Properties=species:S:1:pos:R:3:forces:R:3 energy=-48.226905822753906 free_energy=-48.226905822753906 stress="3.401833964744583e-05 8.775823800988292e-08 1.1109864317404572e-07 8.775823800988292e-08 3.400590139790438e-05 -9.744397999611465e-08 1.1109864317404572e-07 -9.744397999611465e-08 3.3848595194285735e-05" pbc="T T T"
W        1.76702361       1.24947683       3.06057748      -0.00000733       0.00000532      -0.00000372
W        5.30107700       3.74842443       9.18173559      -0.00000048      -0.00001085       0.00000377
Mo       0.00000073       0.00000005      -0.00000017       0.00000490      -0.00000180       0.00000019
Se       1.94802105       1.37745899       6.12115658      -0.00465786      -0.00329804       0.00000093
Se       5.12008264       3.62044386       6.12115609       0.00466400       0.00329369      -0.00000288
Se       4.32706764       1.37745819       4.74761350       0.00232553      -0.00328791      -0.00402611
Se       2.74103520       3.62044495       7.49469963      -0.00232798       0.00329089       0.00402969
Se       2.74103574       3.62044478       4.74761420      -0.00232932       0.00329721      -0.00403827
Se       4.32706721       1.37745913       7.49470039       0.00232831      -0.00328851       0.00403631
