9
Lattice="4.929207568729167 3.3052088427645864e-08 2.8458793002564806 1.6430692068842894 4.647301552008968 2.8458793242520684 5.350960856611386e-08 6.722552443166188e-08 5.691758507831554" Properties=species:S:1:pos:R:3:forces:R:3 energy=-50.26394271850586 free_energy=-50.26394271850586 stress="5.2126059017609805e-05 1.128765791946762e-08 1.1642202757400355e-08 1.128765791946762e-08 5.2139945182716474e-05 1.902102653161819e-08 1.1642202757400355e-08 1.902102653161819e-08 5.2222167141735554e-05" pbc="T T T"
W        1.64307002       1.16182532       2.84587932       0.00000445      -0.00000274       0.00000124
W        4.92920731       3.48547652       8.53763778      -0.00000290       0.00000195      -0.00000015
Ni      -0.00000014       0.00000007      -0.00000020      -0.00000127      -0.00000349      -0.00000727
S        1.71133797       1.21009907       5.69175856       0.00041908       0.00029755      -0.00000208
S        4.86093881       3.43720244       5.69175889      -0.00042123      -0.00029802      -0.00000159
S        4.07353829       1.21009874       4.32794163      -0.00021288       0.00030088       0.00036502
S        2.49873840       3.43720281       7.05557551       0.00020844      -0.00029224      -0.00036108
S        2.49873837       3.43720287       4.32794161       0.00021595      -0.00029719       0.00036734
S        4.07353824       1.21009877       7.05557552      -0.00020933       0.00029284      -0.00036108
