9
Lattice="4.334516794337219 1.901538117285083e-07 2.502534292789553 1.444839009910992 4.086622221752082 2.502534467403639 -4.3020576916009106e-08 1.8343761201887184e-07 5.005068660092932" Properties=species:S:1:pos:R:3:forces:R:3 energy=-49.54780578613281 free_energy=-49.54780578613281 stress="0.0005677299341186881 4.322466296002858e-08 1.9842315168716596e-07 4.322466296002858e-08 0.0005652945255860686 1.922396677400684e-07 1.9842315168716596e-07 1.922396677400684e-07 0.0005672089755535126" pbc="T T T"
W        1.44484528       1.02166576       2.50255735       0.00016735       0.00016915       0.00053815
W        4.33452466       3.06495044       7.50762007       0.00017047      -0.00032827       0.00041064
Ni      -0.00000039      -0.00000012      -0.00000128      -0.00001581       0.00000313      -0.00001433
O        1.45292308       1.02738659       5.00505829      -0.00531745      -0.00346190      -0.00023935
O        4.32642813       3.05923958       5.00506079       0.00523689       0.00357765      -0.00020174
O        3.60804520       1.02738064       3.76080104       0.00245486      -0.00355881      -0.00466523
O        2.17130340       3.05924851       6.24932321      -0.00266764       0.00372508       0.00435823
O        2.17130430       3.05924133       3.76080255      -0.00259350       0.00354114      -0.00461921
O        3.60804863       1.02737780       6.24932702       0.00256525      -0.00366741       0.00443283
