9
Lattice="5.240282323398637 -1.0905598385874732e-07 3.025478282386525 1.7467606588283808 4.940585538578972 3.025478304589418 -2.8905133988392843e-07 -1.7719729785023226e-07 6.050957065424667" Properties=species:S:1:pos:R:3:forces:R:3 energy=-44.3982048034668 free_energy=-44.3982048034668 stress="0.00015550338139291853 6.297559451695633e-08 -4.798146235884815e-08 6.297559451695633e-08 0.00015546810755040497 8.429162079437447e-08 -4.798146235884815e-08 8.429162079437447e-08 0.00015551674005109817" pbc="T T T"
W        1.74676121       1.23514474       3.02547820       0.00000003      -0.00000062      -0.00000018
W        5.24028197       3.70543894       9.07643691       0.00000101       0.00000049       0.00000120
Ni      -0.00000007       0.00000037      -0.00000096      -0.00000346      -0.00000240       0.00001786
Se       1.85382872       1.31085422       6.05095643      -0.00041527      -0.00029933      -0.00000401
Se       5.13321384       3.62973131       6.05095671       0.00042126       0.00029880       0.00000721
Se       4.31336842       1.31085519       4.63094120       0.00021765      -0.00030220      -0.00036672
Se       2.67367366       3.62973048       7.47097224      -0.00021043       0.00028923       0.00036046
Se       2.67367537       3.62973088       4.63094072      -0.00021440       0.00030023      -0.00037122
Se       4.31336773       1.31085484       7.47097301       0.00020321      -0.00028437       0.00035501
