9
Lattice="5.050431165468407 2.502353781880272e-08 2.915867745673005 1.6834770737208418 4.761592378972988 2.915867754381216 -2.0594535741434727e-08 -3.897155506121332e-09 5.831735527016795" Properties=species:S:1:pos:R:3:forces:R:3 energy=-54.35306167602539 free_energy=-54.35306167602539 stress="-0.00016753790259826928 -1.383240100238936e-08 -1.4029845729623958e-08 -1.383240100238936e-08 -0.00016761550796218216 4.206797399319839e-08 -1.4029845729623958e-08 4.206797399319839e-08 -0.00016766352928243577" pbc="T T T"
W        1.68347717       1.19039843       2.91586758       0.00000031       0.00000224       0.00000130
W        5.05043088       3.57119410       8.74760285      -0.00000145      -0.00000150      -0.00000439
Os       0.00000001      -0.00000009       0.00000009       0.00000035       0.00000208      -0.00000048
S        1.84435120       1.30415309       5.83173555      -0.00321257      -0.00226998      -0.00000183
S        4.88955714       3.45743919       5.83173549       0.00320935       0.00227082      -0.00000038
S        4.12825562       1.30415326       4.51312278       0.00160491      -0.00226951      -0.00278342
S        2.60565277       3.45743892       7.15034853      -0.00160658       0.00227320       0.00278163
S        2.60565263       3.45743939       4.51312278      -0.00160456       0.00226700      -0.00277829
S        4.12825566       1.30415333       7.15034838       0.00161088      -0.00227451       0.00278604
