9
Lattice="5.147692426533537 -2.9412909096180025e-10 2.9720215758401194 1.7158974641100762 4.853290935529577 2.9720215951071456 -1.0906723830883242e-08 1.5884971847875358e-08 5.944043170571222" Properties=species:S:1:pos:R:3:forces:R:3 energy=-47.505123138427734 free_energy=-47.505123138427734 stress="-0.00010966330592054874 -6.15033854955982e-08 1.0387863014216236e-08 -6.15033854955982e-08 -0.00010962285159621388 1.7049416101144743e-08 1.0387863014216236e-08 1.7049416101144743e-08 -0.00010965081310132518" pbc="T T T"
W        1.71589760       1.21332286       2.97202152       0.00000068      -0.00000044       0.00000061
W        5.14769238       3.63996834       8.91606488       0.00000006       0.00000126       0.00000085
Pd       0.00000004      -0.00000003       0.00000016       0.00000034      -0.00000126      -0.00000588
S        1.85244191       1.30987407       5.94404318      -0.00224710      -0.00158936      -0.00000045
S        5.01114799       3.54341666       5.94404299       0.00224614       0.00159001      -0.00000099
S        4.22147145       1.30987429       4.57628330       0.00112480      -0.00158978      -0.00194907
S        2.64211844       3.54341652       7.31180298      -0.00112712       0.00159335       0.00195193
S        2.64211816       3.54341676       4.57628346      -0.00112414       0.00159079      -0.00194716
S        4.22147154       1.30987429       7.31180290       0.00112581      -0.00159442       0.00195014
