9
Lattice="4.552323190131959 -1.023045523258077e-08 2.6282849853894623 1.517441065659297 4.291972053303867 2.628284964730601 1.978036365101203e-07 1.1456640982348921e-07 5.2565696281730006" Properties=species:S:1:pos:R:3:forces:R:3 energy=-50.1766357421875 free_energy=-50.1766357421875 stress="2.199931941504474e-06 -4.874490286965738e-07 -3.1151412827057356e-07 -4.874490286965738e-07 -9.470082318330242e-08 -6.08196728535404e-08 -3.1151412827057356e-07 -6.08196728535404e-08 1.6822805264382623e-06" pbc="T T T"
W        1.51745593       1.07301974       2.62829388       0.00030687       0.00052051       0.00019929
W        4.55234921       3.21897990       7.88486999       0.00052402       0.00002779       0.00030998
Pd      -0.00000049      -0.00000105       0.00000031      -0.00001537       0.00000133      -0.00001546
O        1.56633764       1.10756905       5.25656399      -0.00121924      -0.00080159      -0.00009810
O        4.50342371       3.18440006       5.25656272       0.00116220       0.00076172      -0.00013747
O        3.76914678       1.10757597       3.98476542       0.00044835      -0.00076729      -0.00116828
O        2.30059587       3.18438821       6.52836640      -0.00088388       0.00058350       0.00103047
O        2.30059539       3.18439380       3.98477715      -0.00086142       0.00064051      -0.00102881
O        3.76915372       1.10756274       6.52835833       0.00053900      -0.00096679       0.00090811
