9
Lattice="5.4190217155709375 -3.672253268587955e-08 3.128673710125477 1.8063405467606413 5.109102779861047 3.1286736936259545 -6.777318041025159e-08 -6.813056523983584e-08 6.257347537637491" Properties=species:S:1:pos:R:3:forces:R:3 energy=-42.54022979736328 free_energy=-42.54022979736328 stress="0.0001095393963623792 1.889002732013978e-08 1.2173260621750615e-08 1.889002732013978e-08 0.00010962822125293314 -3.753235944259359e-08 1.2173260621750615e-08 -3.753235944259359e-08 0.00010957770427921787" pbc="T T T"
W        1.80634109       1.27727538       3.12867317       0.00000055       0.00000007      -0.00000237
W        5.41902161       3.83182708       9.38602145       0.00000023      -0.00000041       0.00000212
Pd      -0.00000017       0.00000015      -0.00000027       0.00000374      -0.00000174       0.00000422
Se       1.98652526       1.40468580       6.25734794      -0.00255102      -0.00180289       0.00000047
Se       5.23883717       3.70441714       6.25734689       0.00254738       0.00179842      -0.00000054
Se       4.42575867       1.40468515       4.84905529       0.00127262      -0.00180399      -0.00220382
Se       2.79960309       3.70441724       7.66563979      -0.00127152       0.00180480       0.00220490
Se       2.79960362       3.70441718       4.84905537      -0.00127307       0.00180519      -0.00221193
Se       4.42575854       1.40468552       7.66564019       0.00127095      -0.00179946       0.00220746
