9
Lattice="4.232579281300705 4.540417209440485e-08 2.443680783736677 1.4108598250718851 3.990514022591312 2.4436807459245027 6.223054315424791e-08 -2.3066163167073598e-09 4.887361459686888" Properties=species:S:1:pos:R:3:forces:R:3 energy=-60.91680908203125 free_energy=-60.91680908203125 stress="8.010229066712782e-05 1.4254482039177674e-07 -7.911333455012937e-08 1.4254482039177674e-07 8.007920405361801e-05 2.440332558251157e-08 -7.911333455012937e-08 2.440332558251157e-08 7.978692883625627e-05" pbc="T T T"
W        1.41085914       0.99762939       2.44368091      -0.00001422       0.00001890       0.00000343
W        4.23257929       2.99288579       7.33104169      -0.00000583       0.00000501      -0.00000990
P        0.00000003      -0.00000007       0.00000014       0.00000400      -0.00000860      -0.00000089
O        1.37740807       0.97397451       4.88736141       0.00082433       0.00058210       0.00000181
O        4.26603158       3.01653908       4.88736161      -0.00081742      -0.00059044      -0.00000069
O        3.54387526       0.97397416       3.63655119      -0.00041044       0.00057864       0.00072110
O        2.09956402       3.01653950       6.13817215       0.00041634      -0.00058532      -0.00071323
O        2.09956379       3.01653935       3.63655098       0.00041437      -0.00058877       0.00071681
O        3.54387560       0.97397471       6.13817199      -0.00041080       0.00058734      -0.00071990
