9
Lattice="5.187393609151241 -1.6846956938108143e-06 2.9949450924129573 1.7291312493028443 4.890717442638511 2.9949422612040104 1.915269912371944e-06 -2.1132074642573234e-06 5.989886867480852" Properties=species:S:1:pos:R:3:forces:R:3 energy=-43.677490234375 free_energy=-43.677490234375 stress="-0.0003278622461948544 3.86235861071782e-08 -3.953959719638078e-07 3.86235861071782e-08 -0.0003285371931269765 4.3699643015315814e-07 -3.953959719638078e-07 4.3699643015315814e-07 -0.0003274882328696549" pbc="T T T"
W        1.72912836       1.22266087       2.99494875       0.00000025       0.00000431      -0.00001003
W        5.18739975       3.66805048       8.98483286      -0.00000152      -0.00000509      -0.00001369
P       -0.00000070       0.00000655       0.00000020       0.00000995      -0.00005773      -0.00000359
Se       1.84833367       1.30697078       5.98988005      -0.00130415      -0.00088707       0.00000963
Se       5.06819324       3.58374368       5.98987919       0.00130683       0.00090352       0.00001176
Se       4.26322992       1.30695967       4.59566057       0.00066698      -0.00096589      -0.00110090
Se       2.65330240       3.58374713       7.38412061      -0.00066382       0.00097436       0.00111258
Se       2.65330115       3.58374624       4.59563798      -0.00060534       0.00088632      -0.00113308
Se       4.26322255       1.30696662       7.38413644       0.00059092      -0.00085241       0.00112700
