9
Lattice="4.995656628974894 -7.989517055434496e-08 2.88424364233907 1.6652188137898636 4.709950214317149 2.8842436201847668 2.5987367428564623e-09 -2.5295787265261052e-08 5.768487280176951" Properties=species:S:1:pos:R:3:forces:R:3 energy=-49.14417266845703 free_energy=-49.14417266845703 stress="-0.0002100132842315361 8.023488362596254e-08 9.045241000649185e-09 8.023488362596254e-08 -0.00021005139569751918 -3.877209309166574e-08 9.045241000649185e-09 -3.877209309166574e-08 -0.0002100354031426832" pbc="T T T"
W        1.66521956       1.17748751       2.88424392       0.00000445       0.00000045       0.00000049
W        4.99565610       3.53246203       8.65273118      -0.00000209      -0.00000434       0.00000092
P       -0.00000012       0.00000024      -0.00000022      -0.00000289      -0.00001003      -0.00000202
S        1.72668561       1.22095095       5.76848740       0.00137991       0.00097090      -0.00000162
S        4.93418955       3.48899887       5.76848719      -0.00136554      -0.00096494       0.00000076
S        4.13231398       1.22095134       4.37959681      -0.00069499       0.00097793       0.00119770
S        2.52856152       3.48899918       7.15737725       0.00068665      -0.00097179      -0.00118858
S        2.52856164       3.48899931       4.37959705       0.00068590      -0.00097418       0.00118876
S        4.13231391       1.22095096       7.15737749      -0.00069150       0.00097626      -0.00119650
