9
Lattice="5.474033605754631 -2.2237979716071202e-07 3.1604346553305063 1.8246776338086825 5.160968726878566 3.160434698830151 -5.263313633444676e-08 1.6058650749860215e-08 6.32086940182431" Properties=species:S:1:pos:R:3:forces:R:3 energy=-43.61631774902344 free_energy=-43.61631774902344 stress="-2.7902402507606894e-05 -5.308267603254535e-09 2.7668839663874678e-08 -5.308267603254535e-09 -2.7876685635419562e-05 4.119607766028821e-08 2.7668839663874678e-08 4.119607766028821e-08 -2.779308306344319e-05" pbc="T T T"
W        1.82467568       1.29024330       3.16043492      -0.00001144       0.00000479       0.00000124
W        5.47403257       3.87072694       9.48130333      -0.00000371       0.00000063      -0.00000269
Pt       0.00000063      -0.00000047      -0.00000148      -0.00000326       0.00000669       0.00003283
Se       1.95359806       1.38140361       6.32086892      -0.00182515      -0.00128859       0.00000009
Se       5.34511356       3.77956476       6.32086991       0.00182754       0.00128612       0.00000172
Se       4.49723410       1.38140226       4.85230140       0.00091940      -0.00130409      -0.00159377
Se       2.80147720       3.77956565       7.78943889      -0.00090340       0.00128308       0.00157559
Se       2.80147779       3.77956580       4.85230108      -0.00091136       0.00129971      -0.00158834
Se       4.49723508       1.38140210       7.78943782       0.00091079      -0.00128809       0.00157320
