9
Lattice="4.562892276921428 5.516295136196134e-08 2.6343870640066287 1.5209641234444657 4.301935899743397 2.6343871001559376 4.398088804310412e-07 3.5526551765244806e-07 5.268773366241951" Properties=species:S:1:pos:R:3:forces:R:3 energy=-51.30172348022461 free_energy=-51.30172348022461 stress="-0.00011834916949737817 3.024784405170067e-07 -1.8479565824236488e-06 3.024784405170067e-07 -0.00011771199206123129 -1.2753704368151375e-06 -1.8479565824236488e-06 -1.2753704368151375e-06 -0.00011717877350747585" pbc="T T T"
W        1.52097011       1.07548739       2.63438933       0.00012122       0.00006610       0.00007503
W        4.56288956       3.22645588       7.90319503      -0.00006248       0.00008012       0.00072355
Pt      -0.00000046      -0.00000028       0.00000011       0.00002521       0.00001929      -0.00000887
O        1.56593376       1.10727934       5.26877030       0.00076574       0.00047764      -0.00006150
O        4.51792348       3.19465628       5.26875807      -0.00077507      -0.00052118      -0.00033262
O        3.77992655       1.10728842       3.99051713      -0.00037912       0.00067049       0.00051284
O        2.30392394       3.19465057       6.54702272       0.00023745      -0.00059107      -0.00068778
O        2.30393716       3.19465483       3.99051911       0.00051923      -0.00055188       0.00053424
O        3.77992301       1.10727265       6.54701827      -0.00045279       0.00035113      -0.00075552
