9
Lattice="5.546645393313403 -1.3706452582080218e-08 3.20235718881805 1.8488817898483796 5.2294274260266835 3.2023571801581276 1.2403260637665274e-08 -1.8357691064721439e-09 6.404714356153025" Properties=species:S:1:pos:R:3:forces:R:3 energy=-49.55770492553711 free_energy=-49.55770492553711 stress="9.055498958332464e-05 -8.969658793489543e-09 1.8838228754702868e-08 -8.969658793489543e-09 9.047588537214324e-05 3.090401534677767e-08 1.8838228754702868e-08 3.090401534677767e-08 9.053309622686356e-05" pbc="T T T"
W        1.84888183       1.30735683       3.20235717      -0.00000136       0.00000045      -0.00000066
W        5.54664542       3.92207056       9.60707151       0.00000122      -0.00000034       0.00000144
Re      -0.00000001      -0.00000005       0.00000020      -0.00000092       0.00000293      -0.00000025
Se       1.97099523       1.39370415       6.40471434       0.00511146       0.00361559       0.00000022
Se       5.42453188       3.83572325       6.40471431      -0.00511330      -0.00361514      -0.00000044
Se       4.56114778       1.39370414       4.90928914      -0.00255489       0.00361356       0.00442630
Se       2.83437944       3.83572327       7.90013958       0.00255632      -0.00361341      -0.00442976
Se       2.83437943       3.83572331       4.90928907       0.00255796      -0.00361696       0.00443137
Se       4.56114778       1.39370417       7.90013959      -0.00255644       0.00361356      -0.00442803
