9
Lattice="5.063308817747668 -1.6848713004921837e-07 2.9233027692628144 1.6877694585476388 4.773733102538117 2.9233027493737582 -1.7792526067804896e-07 -1.5017113797392983e-07 5.846605846701174" Properties=species:S:1:pos:R:3:forces:R:3 energy=-56.55217361450195 free_energy=-56.55217361450195 stress="-3.594192094169557e-05 3.3030854496018947e-08 -6.273810981838324e-08 3.3030854496018947e-08 -3.5989676689496264e-05 3.701326534155669e-08 -6.273810981838324e-08 3.701326534155669e-08 -3.603060758905485e-05" pbc="T T T"
W        1.68776894       1.19343343       2.92330336      -0.00000390       0.00000095       0.00000424
W        5.06330881       3.58029989       8.76990825       0.00000171       0.00000144      -0.00000396
Re      -0.00000022      -0.00000000      -0.00000009       0.00000268      -0.00000465       0.00000037
S        1.84579874       1.30517706       5.84660585      -0.00044239      -0.00031203       0.00000122
S        4.90527949       3.46855551       5.84660579       0.00044346       0.00030822       0.00000102
S        4.14040912       1.30517636       4.52181161       0.00022066      -0.00031269      -0.00037766
S        2.61066892       3.46855650       7.17139954      -0.00021732       0.00031269       0.00038397
S        2.61066913       3.46855605       4.52181136      -0.00021881       0.00031382      -0.00038290
S        4.14040940       1.30517629       7.17139985       0.00021440      -0.00030726       0.00037467
