9
Lattice="4.646558703799026 -1.6484557157155787e-07 2.68269151646728 1.5488527688985723 4.380817321824665 2.6826914765433725 9.74729135171878e-08 2.002709846591942e-08 5.365382864106539" Properties=species:S:1:pos:R:3:forces:R:3 energy=-62.03372573852539 free_energy=-62.03372573852539 stress="0.00022646953584626317 1.508892779611415e-07 -1.256867765420111e-08 1.508892779611415e-07 0.0002263698261231184 -6.29939833629578e-08 -1.256867765420111e-08 -6.29939833629578e-08 0.00022659941168967634" pbc="T T T"
W        1.54885655       1.09520832       2.68267629       0.00002868       0.00004526      -0.00021355
W        4.64654923       3.28560858       8.04806065      -0.00011557      -0.00004683      -0.00019925
Re      -0.00000017       0.00000020       0.00000125       0.00000222      -0.00000490      -0.00000376
O        1.53349586       1.08435150       5.36538710      -0.00302824      -0.00208217       0.00007354
O        4.66191757       3.29646409       5.36539080       0.00305083       0.00207365       0.00010363
O        3.87980756       1.08434631       4.01074116       0.00148956      -0.00212702      -0.00256655
O        2.31560821       3.29646912       6.72003297      -0.00142664       0.00208861       0.00269014
O        2.31560740       3.29647517       4.01074302      -0.00144976       0.00217098      -0.00255448
O        3.87980411       1.08434535       6.72003038       0.00144875      -0.00211740       0.00267014
