9
Lattice="6.136493023849141 3.208673876602537e-08 3.54290586131022 2.0454976884000233 5.785541106813546 3.5429058898336616 -1.822796413740032e-08 2.2044821266013955e-08 7.085811754192182" Properties=species:S:1:pos:R:3:forces:R:3 energy=-45.801753997802734 free_energy=-45.801753997802734 stress="0.00010535911860642955 -1.1869681237897112e-08 1.3573309587400217e-08 -1.1869681237897112e-08 0.00010538214701227844 -9.641890841294298e-09 1.3573309587400217e-08 -9.641890841294298e-09 0.00010539546929067001" pbc="T T T"
W        2.04549917       1.44638546       3.54290564       0.00000962       0.00000037      -0.00000336
W        6.13649317       4.33915552      10.62871675       0.00000220      -0.00000144      -0.00000612
Re      -0.00000023       0.00000008       0.00000024       0.00000196      -0.00000046       0.00000208
Te       2.11458234       1.49523586       7.08581155      -0.00135298      -0.00095567      -0.00000069
Te       6.06740795       4.29030567       7.08581226       0.00134960       0.00095780       0.00000553
Te       5.07920165       1.49523582       5.37418810       0.00067341      -0.00095667      -0.00117138
Te       3.10278861       4.29030494       8.79743555      -0.00067613       0.00095280       0.00117278
Te       3.10278897       4.29030564       5.37418837      -0.00067946       0.00095834      -0.00117196
Te       5.07920116       1.49523565       8.79743557       0.00067184      -0.00095536       0.00117306
