9
Lattice="5.076529321151777 4.088029963912887e-09 2.9309355582391836 1.6921764522772607 4.786197709367197 2.9309355443150995 2.7425604701943668e-08 2.3393627130178187e-09 5.861871068975809" Properties=species:S:1:pos:R:3:forces:R:3 energy=-51.060733795166016 free_energy=-51.060733795166016 stress="-5.727140523958951e-05 -1.4985221952201755e-08 1.962767015584177e-08 -1.4985221952201755e-08 -5.7197448768420145e-05 -2.593198189515533e-08 1.962767015584177e-08 -2.593198189515533e-08 -5.726800372940488e-05" pbc="T T T"
W        1.69217626       1.19654978       2.93093564      -0.00000098       0.00000095       0.00000082
W        5.07652939       3.58964819       8.79280641       0.00000110      -0.00000148      -0.00000144
Rh       0.00000003      -0.00000004       0.00000016       0.00000233       0.00000329       0.00000190
S        1.83061849       1.29444287       5.86187103      -0.00043285      -0.00030452      -0.00000024
S        4.93808736       3.49175503       5.86187102       0.00042760       0.00030184      -0.00000102
S        4.16122005       1.29444268       4.51629788       0.00021535      -0.00030303      -0.00037360
S        2.60748591       3.49175486       7.20744464      -0.00021410       0.00030428       0.00037301
S        2.60748567       3.49175480       4.51629758      -0.00021589       0.00030488      -0.00037313
S        4.16122012       1.29444269       7.20744437       0.00021714      -0.00030601       0.00037396
