9
Lattice="4.528837973027468 -1.510955109429697e-07 2.6147255366561963 1.5096125100856874 4.269827981902455 2.6147255455518805 1.6082708553617922e-07 1.2461688327513412e-07 5.229450794751689" Properties=species:S:1:pos:R:3:forces:R:3 energy=-52.823829650878906 free_energy=-52.823829650878906 stress="0.00010798636503750458 8.349377935701341e-07 -1.9481736046600417e-07 8.349377935701341e-07 0.00011305785301374272 -2.0329469663238342e-08 -1.9481736046600417e-07 -2.0329469663238342e-08 0.00011009600711986423" pbc="T T T"
W        1.50962396       1.06744769       2.61472833       0.00023472      -0.00017561       0.00005758
W        4.52883172       3.20239454       7.84418055      -0.00012615       0.00048595       0.00009159
Rh      -0.00000004      -0.00000028       0.00000001      -0.00000502       0.00000656      -0.00000442
O        1.55592581       1.10019422       5.22945054       0.00085884       0.00035852      -0.00001771
O        4.48252644       3.16963065       5.22944921      -0.00081939      -0.00043550      -0.00004120
O        3.75086898       1.10019624       3.96219130      -0.00053796       0.00041056       0.00064072
O        2.28757720       3.16962785       6.49671036       0.00044331      -0.00049871      -0.00064233
O        2.28757643       3.16962882       3.96219230       0.00044608      -0.00049576       0.00064236
O        3.75087207       1.10019208       6.49670496      -0.00049478       0.00034392      -0.00072712
