9
Lattice="5.326197624113608 8.718921068030813e-09 3.0750815191087626 1.7753993061605264 5.021587015591469 3.0750813633933474 -1.1594192058902256e-07 -2.726949795380217e-07 6.150163239034817" Properties=species:S:1:pos:R:3:forces:R:3 energy=-45.270484924316406 free_energy=-45.270484924316406 stress="1.818890632421244e-05 4.419096555352553e-08 -2.434497758940779e-08 4.419096555352553e-08 1.817204974940978e-05 -8.524854600011622e-09 -2.434497758940779e-08 -8.524854600011622e-09 1.814434290281497e-05" pbc="T T T"
W        1.77539896       1.25539850       3.07508190      -0.00000009       0.00000183       0.00000035
W        5.32619772       3.76618923       9.22524493      -0.00000033      -0.00000039      -0.00000092
Rh       0.00000024      -0.00000009       0.00000019      -0.00000306      -0.00000163      -0.00000138
Se       1.95240690       1.38056023       6.15016250       0.00007755       0.00005835      -0.00000327
Se       5.14918998       3.64102627       6.15016295      -0.00007612      -0.00005436       0.00000021
Se       4.34999417       1.38055985       4.76591573      -0.00004080       0.00005680       0.00007075
Se       2.75160269       3.64102605       7.53441056       0.00003889      -0.00005412      -0.00007117
Se       2.75160284       3.64102678       4.76591508       0.00004539      -0.00006044       0.00007254
Se       4.34999383       1.38056009       7.53441073      -0.00004131       0.00005460      -0.00006729
