9
Lattice="4.561135475041246 -9.675435934096386e-08 2.6333727758656567 1.5203784419062858 4.3002794768060095 2.6333727040777637 -8.730703096394765e-08 -1.4965720707139298e-07 5.266745702951498" Properties=species:S:1:pos:R:3:forces:R:3 energy=-56.59432601928711 free_energy=-56.59432601928711 stress="0.0007290969952009618 1.1220490137020533e-07 6.546379438532313e-08 1.1220490137020533e-07 0.0007297577685676515 1.7481765723914577e-07 6.546379438532313e-08 1.7481765723914577e-07 0.0007293347734957933" pbc="T T T"
W        1.52038965       1.07507402       2.63337532       0.00020572       0.00009641       0.00004284
W        4.56114283       3.22522231       7.90011776       0.00014504       0.00023317      -0.00000657
Ru       0.00000000       0.00000002      -0.00000019       0.00000958       0.00000454       0.00000470
O        1.53185609       1.08318428       5.26674503      -0.00233966      -0.00169224      -0.00001598
O        4.54965618       3.21709258       5.26674624       0.00231931       0.00164089       0.00000419
O        3.79520038       1.08318066       3.95999933       0.00104868      -0.00174856      -0.00202149
O        2.28630419       3.21709164       6.57349171      -0.00122391       0.00161314       0.00202107
O        2.28630389       3.21709085       3.95999892      -0.00123240       0.00159821      -0.00203097
O        3.79520199       1.08318042       6.57349066       0.00106801      -0.00174510       0.00200200
