9
Lattice="5.331648902689815 -3.128452855509767e-07 3.078228574277495 1.7772159601583195 5.026726458348803 3.078228653579292 -2.761023551254063e-07 -9.810933000044402e-08 6.156457626778173" Properties=species:S:1:pos:R:3:forces:R:3 energy=-46.70040512084961 free_energy=-46.70040512084961 stress="3.378956898814067e-05 6.215921111163425e-09 3.4908012036538594e-09 6.215921111163425e-09 3.400785135454498e-05 1.4395937775191214e-09 3.4908012036538594e-09 1.4395937775191214e-09 3.3938300475711e-05" pbc="T T T"
W        1.77721359       1.25668295       3.07822952      -0.00000260       0.00000221       0.00000279
W        5.33164804       3.77004434       9.23468395       0.00000073      -0.00000014      -0.00000106
Ru       0.00000052      -0.00000074       0.00000020       0.00000255      -0.00000376       0.00000286
Se       1.94359677       1.37433072       6.15645840       0.00183821       0.00130379       0.00000518
Se       5.16526826       3.65239469       6.15645780      -0.00183541      -0.00130206      -0.00000377
Se       4.35984941       1.37433040       4.76143254      -0.00092435       0.00129688       0.00158590
Se       2.74901624       3.65239605       7.55148165       0.00092325      -0.00129658      -0.00158966
Se       2.74901465       3.65239518       4.76143416       0.00091383      -0.00129569       0.00158972
Se       4.35985082       1.37433050       7.55148123      -0.00091606       0.00129521      -0.00159180
