9
Lattice="5.063836063769051 -6.417580607298579e-08 2.923607155750967 1.6879452922514515 4.774230542203579 2.9236071589252894 -4.353271799124557e-08 -2.68945400130423e-08 5.847214386902802" Properties=species:S:1:pos:R:3:forces:R:3 energy=-53.085140228271484 free_energy=-53.085140228271484 stress="-0.00021115913114044815 -2.027391365899689e-09 1.047582021129756e-08 -2.027391365899689e-09 -0.0002111116045853123 4.314100365832019e-08 1.047582021129756e-08 4.314100365832019e-08 -0.00021105946507304907" pbc="T T T"
W        1.68794548       1.19355791       2.92360707       0.00000070       0.00000064      -0.00000104
W        5.06383583       3.58067279       8.77082153      -0.00000255      -0.00000060       0.00000238
Ru      -0.00000006       0.00000003       0.00000030       0.00000041       0.00000019      -0.00000398
S        1.83264584       1.29587618       5.84721432      -0.00385845      -0.00272816      -0.00000055
S        4.91913559       3.47835417       5.84721428       0.00385642       0.00272650      -0.00000099
S        4.14751314       1.29587621       4.51072505       0.00192916      -0.00272596      -0.00333977
S        2.60426814       3.47835407       7.18370371      -0.00192952       0.00272882       0.00334036
S        2.60426819       3.47835412       4.51072501      -0.00192630       0.00272566      -0.00333822
S        4.14751315       1.29587629       7.18370368       0.00193048      -0.00272799       0.00334144
