9
Lattice="4.3832004789625305 -6.258604039876833e-08 2.5306420245248846 1.461066788623204 4.132520984548326 2.5306419876165114 4.850428192156977e-08 -1.0905661622523926e-08 5.061283965037869" Properties=species:S:1:pos:R:3:forces:R:3 energy=-51.56256103515625 free_energy=-51.56256103515625 stress="0.00019738687842618674 -1.2435556584478036e-07 5.648308842864935e-08 -1.2435556584478036e-07 0.0001972526079043746 1.464324270727957e-07 5.648308842864935e-08 1.464324270727957e-07 0.00019731670909095556" pbc="T T T"
W        1.46106716       1.03313009       2.53064308       0.00000540      -0.00000142       0.00002187
W        4.38320115       3.09939092       7.59192889       0.00000925       0.00000006       0.00004227
Se       0.00000006       0.00000000      -0.00000038      -0.00000655      -0.00000366      -0.00001197
O        1.46105855       1.03312456       5.06128330      -0.00258958      -0.00183505      -0.00000813
O        4.38320839       3.09939658       5.06128304       0.00259149       0.00183493      -0.00001196
O        3.65267105       1.03312483       3.79595519       0.00129539      -0.00182635      -0.00225270
O        2.19159566       3.09939638       6.32661161      -0.00130373       0.00183356       0.00223863
O        2.19159622       3.09939652       3.79595569      -0.00129306       0.00183535      -0.00224996
O        3.65267107       1.03312369       6.32661128       0.00129175      -0.00183719       0.00223279
