9
Lattice="4.256470768860275 -1.5464740663761656e-08 2.4574745992366283 1.4188235910336908 4.01303914981645 2.457474571534386 7.228116562704485e-08 1.7182326477353947e-08 4.914949073278591" Properties=species:S:1:pos:R:3:forces:R:3 energy=-61.336524963378906 free_energy=-61.336524963378906 stress="4.158958108746447e-05 -3.009261106967642e-08 -1.8388405464975222e-07 -3.009261106967642e-08 4.187487866147421e-05 -8.164360565388051e-08 -1.8388405464975222e-07 -8.164360565388051e-08 4.1626135498518124e-05" pbc="T T T"
W        1.41882427       1.00325783       2.45747127       0.00001264      -0.00003952      -0.00007037
W        4.25647127       3.00977926       7.37242324       0.00001136      -0.00000913      -0.00001652
Si      -0.00000010       0.00000011       0.00000013      -0.00000239       0.00000481       0.00001161
O        1.41092155       0.99767313       4.91495036       0.00158966       0.00113702       0.00002891
O        4.26437233       3.01536696       4.91494952      -0.00160277      -0.00111842       0.00000614
O        3.55100963       0.99767254       3.67936950      -0.00079650       0.00112683       0.00138879
O        2.12428492       3.01536676       6.15052967       0.00080383      -0.00112903      -0.00137532
O        2.12428482       3.01536743       3.67936990       0.00079799      -0.00110364       0.00140011
O        3.55100912       0.99767258       6.15052964      -0.00081295       0.00112945      -0.00137162
