9
Lattice="5.015258806862076 6.450178277462158e-08 2.8955609116085355 1.6717529832467457 4.72843127217774 2.895560934448714 5.580356406323289e-08 6.743247691452661e-08 5.791121726562451" Properties=species:S:1:pos:R:3:forces:R:3 energy=-49.344478607177734 free_energy=-49.344478607177734 stress="-0.0004070746072102338 -3.868243325655385e-08 -1.5424484800519167e-08 -3.868243325655385e-08 -0.0004069657006766647 1.2610357202902378e-08 -1.5424484800519167e-08 1.2610357202902378e-08 -0.00040703435661271214" pbc="T T T"
W        1.67175320       1.18210768       2.89556059       0.00000251      -0.00000115      -0.00000157
W        5.01525876       3.54632367       8.68668284       0.00000048       0.00000126       0.00000063
Si      -0.00000008       0.00000001       0.00000027       0.00000449       0.00000010       0.00000014
S        1.73691931       1.22818760       5.79112175      -0.00540870      -0.00382262       0.00000448
S        4.95009258       3.50024410       5.79112170       0.00540084       0.00381386      -0.00000254
S        4.14679880       1.22818729       4.39977733       0.00270304      -0.00382453      -0.00468278
S        2.54021304       3.50024417       7.18246625      -0.00270155       0.00382805       0.00468552
S        2.54021264       3.50024366       4.39977733      -0.00270462       0.00382578      -0.00468743
S        4.14679923       1.22818748       7.18246634       0.00270364      -0.00382131       0.00468379
