9
Lattice="5.470098669598877 1.4867793687426534e-08 3.158162901222298 1.8233662023629245 5.15725846851439 3.1581629615915254 -2.2674058002909006e-08 5.790393361578986e-08 6.316325841717198" Properties=species:S:1:pos:R:3:forces:R:3 energy=-43.366939544677734 free_energy=-43.366939544677734 stress="0.000404359248932451 1.3477649218884835e-08 -6.214825987171935e-08 1.3477649218884835e-08 0.0004043045628350228 7.256233658381461e-08 -6.214825987171935e-08 7.256233658381461e-08 0.00040433849790133536" pbc="T T T"
W        1.82336631       1.28931455       3.15816296      -0.00000060      -0.00000053       0.00000061
W        5.47009844       3.86794399       9.47448895       0.00000031      -0.00000013       0.00000170
Si       0.00000038       0.00000051       0.00000011       0.00000005      -0.00001635       0.00000100
Se       1.86827123       1.32106735       6.31632579      -0.00634299      -0.00448805       0.00000019
Se       5.42519314       3.83619117       6.31632577       0.00635320       0.00448953      -0.00000086
Se       4.53596310       1.32106713       4.77613321       0.00317325      -0.00448754      -0.00549293
Se       2.75750188       3.83619119       7.85651801      -0.00317822       0.00449502       0.00550535
Se       2.75750191       3.83619113       4.77613342      -0.00317407       0.00448936      -0.00550152
Se       4.53596305       1.32106712       7.85651861       0.00316895      -0.00448118       0.00548677
