9
Lattice="6.116393364619056 -1.0067689003473698e-09 3.531301401983277 2.038797789013224 5.766591059034902 3.531301398941711 2.6128791395929042e-08 1.4750707364228295e-08 7.062602758710136" Properties=species:S:1:pos:R:3:forces:R:3 energy=-37.40425491333008 free_energy=-37.40425491333008 stress="0.00021741641103290021 -6.214532444204224e-09 -1.413033423602883e-08 -6.214532444204224e-09 0.00021739110525231808 9.250022081630505e-09 -1.413033423602883e-08 9.250022081630505e-09 0.0002174118417315185" pbc="T T T"
W        2.03879739       1.44164847       3.53130081      -0.00000360       0.00000693      -0.00000624
W        6.11639396       4.32494260      10.59390480       0.00000607      -0.00000469       0.00000242
Si      -0.00000007      -0.00000018       0.00000032      -0.00000033       0.00000150      -0.00000588
Te       2.09232654       1.47949869       7.06260292      -0.00190540      -0.00134229      -0.00000010
Te       6.06286471       4.28709237       7.06260245       0.00190316       0.00134138      -0.00000146
Te       5.07023031       1.47949848       5.34330971       0.00095253      -0.00134310      -0.00164583
Te       3.08496094       4.28709223       8.78189571      -0.00095588       0.00134613       0.00164959
Te       3.08496120       4.28709273       5.34330940      -0.00094977       0.00134129      -0.00164428
Te       5.07022976       1.47949890       8.78189608       0.00095316      -0.00134720       0.00165179
