9
Lattice="4.170050632447732 2.016933072518095e-08 2.4075798967624893 1.3900168877369914 3.9315614860670425 2.4075799119376886 4.635534606157268e-08 5.136392958573872e-08 4.8151597132351664" Properties=species:S:1:pos:R:3:forces:R:3 energy=-55.83138656616211 free_energy=-55.83138656616211 stress="-0.0007759698200970888 1.769691060360401e-08 -1.6498904642503476e-07 1.769691060360401e-08 -0.0007762180175632238 -1.0904746261530818e-07 -1.6498904642503476e-07 -1.0904746261530818e-07 -0.0007758834981359541" pbc="T T T"
W        1.39001721       0.98288965       2.40758020       0.00000551      -0.00001572       0.00000725
W        4.17005095       2.94867089       7.22273957       0.00000824      -0.00000682      -0.00000229
S        0.00000008       0.00000010      -0.00000012      -0.00000061       0.00000251       0.00000339
O        1.36976707       0.96857165       4.81515946      -0.00517869      -0.00365573       0.00000165
O        4.19030027       2.96299023       4.81515979       0.00516915       0.00366229       0.00000104
O        3.48516712       0.96857163       3.59383293       0.00258815      -0.00365603      -0.00448132
O        2.07490046       2.96299018       6.03648658      -0.00258982       0.00365943       0.00447524
O        2.07490027       2.96299017       3.59383290      -0.00258678       0.00366211      -0.00448072
O        3.48516696       0.96857169       6.03648688       0.00258464      -0.00365216       0.00447702
