9
Lattice="5.0125818476181125 1.5018094719054613e-08 2.8940155198842965 1.6708606032205757 4.725907519000374 2.894015566322803 -3.803549078537688e-08 2.998020082937016e-08 5.788031105648" Properties=species:S:1:pos:R:3:forces:R:3 energy=-53.556339263916016 free_energy=-53.556339263916016 stress="-5.871413668501191e-05 -3.0523668925752645e-08 6.513364292359825e-10 -3.0523668925752645e-08 -5.8659952628659084e-05 2.074513538730116e-08 6.513364292359825e-10 2.074513538730116e-08 -5.866679930477403e-05" pbc="T T T"
W        1.67086074       1.18147723       2.89401554       0.00000081       0.00000089      -0.00000141
W        5.01258170       3.54443069       8.68204658      -0.00000046       0.00000127       0.00000073
Ti      -0.00000014       0.00000021       0.00000001       0.00000147      -0.00000696      -0.00000038
S        1.79980667       1.27265521       5.78803117      -0.00409585      -0.00290021       0.00000057
S        4.88363586       3.45325197       5.78803100       0.00410113       0.00289756      -0.00000130
S        4.11267830       1.27265523       4.45269390       0.00204861      -0.00289908      -0.00354636
S        2.57076388       3.45325200       7.12336822      -0.00205369       0.00290132       0.00355440
S        2.57076405       3.45325200       4.45269375      -0.00204991       0.00290138      -0.00355601
S        4.11267846       1.27265573       7.12336860       0.00204860      -0.00289619       0.00354996
