9
Lattice="6.149705637223388 -4.696916316807441e-08 3.5505342148733074 2.0499018395075357 5.797998113668726 3.5505342067049455 7.292911255892357e-09 -4.847291551161569e-09 7.1010684171149245" Properties=species:S:1:pos:R:3:forces:R:3 energy=-42.24147415161133 free_energy=-42.24147415161133 stress="9.730859892442822e-05 -8.561789499594852e-09 7.203709184722129e-09 -8.561789499594852e-09 9.736271749716252e-05 -2.043646640803587e-10 7.203709184722129e-09 -2.043646640803587e-10 9.73435235209763e-05" pbc="T T T"
W        2.04990175       1.44949929       3.55053432      -0.00000173      -0.00000403       0.00000113
W        6.14970545       4.34849800      10.65160234      -0.00000123      -0.00000346       0.00000071
Ti      -0.00000022       0.00000005       0.00000003       0.00000529       0.00000453      -0.00000122
Te       2.12668062       1.50378990       7.10106853      -0.00037864      -0.00026664       0.00000055
Te       6.07292690       4.29420823       7.10106840       0.00037475       0.00026579      -0.00000079
Te       5.08636546       1.50379039       5.39229354       0.00019009      -0.00026567      -0.00033021
Te       3.11324221       4.29420795       8.80984337      -0.00019045       0.00026917       0.00032783
Te       3.11324213       4.29420796       5.39229356      -0.00018898       0.00026800      -0.00032741
Te       5.08636559       1.50379048       8.80984327       0.00019108      -0.00026760       0.00032951
