9
Lattice="4.029928817223827 1.0144256528229188e-07 2.32668059913728 1.3433097210776117 3.799453148236032 2.3266805650239366 2.590066876243961e-07 1.41365229414209e-07 4.653360749661811" Properties=species:S:1:pos:R:3:forces:R:3 energy=-60.74982452392578 free_energy=-60.74982452392578 stress="5.245276497589657e-06 -6.668328467185347e-08 -2.1690092921744508e-07 -6.668328467185347e-08 5.21895663041505e-06 7.856852590748531e-08 -2.1690092921744508e-07 7.856852590748531e-08 5.3876997299084906e-06" pbc="T T T"
W        1.34330949       0.94986299       2.32668106      -0.00000139      -0.00000331       0.00001227
W        4.02992938       2.84959024       6.98004433      -0.00000101       0.00000043       0.00002775
Ti       0.00000020      -0.00000004      -0.00000064      -0.00002117      -0.00000266      -0.00001249
O        1.46864393       1.03848792       4.65336059       0.00015220       0.00010397      -0.00000029
O        3.90459467       2.76096538       4.65336014      -0.00012201      -0.00008081      -0.00001358
O        3.29560717       1.03848831       3.59856297      -0.00006407       0.00009306       0.00010157
O        2.07763143       2.76096542       5.70815824       0.00005920      -0.00009514      -0.00012128
O        2.07763168       2.76096526       3.59856283       0.00007078      -0.00009984       0.00011852
O        3.29560731       1.03848819       5.70815807      -0.00007268       0.00008429      -0.00011223
