9
Lattice="4.974969287672537 -1.2869953152508708e-07 2.8722998360633243 1.6583230338735504 4.690445835101003 2.872299733314977 -1.642819948420325e-09 -1.2700217349657111e-07 5.744599674972085" Properties=species:S:1:pos:R:3:forces:R:3 energy=-54.36031723022461 free_energy=-54.36031723022461 stress="-1.9065446394961327e-05 2.6805091479786824e-08 7.472251439821775e-08 2.6805091479786824e-08 -1.90368082257919e-05 6.043895695029278e-08 7.472251439821775e-08 6.043895695029278e-08 -1.8927989003714174e-05" pbc="T T T"
W        1.65832270       1.17261162       2.87230008      -0.00000306       0.00000197       0.00000281
W        4.97496945       3.51783407       8.61689915       0.00000182      -0.00000105       0.00000027
V        0.00000018      -0.00000014       0.00000003       0.00000630       0.00000300      -0.00001206
S        1.78657949       1.26330227       5.74459977      -0.00182831      -0.00129235      -0.00000448
S        4.84671284       3.42714349       5.74459977       0.00181520       0.00128508      -0.00000196
S        4.08168000       1.26330195       4.41952282       0.00090966      -0.00128037      -0.00157595
S        2.55161269       3.42714321       7.06967646      -0.00091359       0.00129330       0.00158095
S        2.55161232       3.42714350       4.41952254      -0.00090620       0.00128466      -0.00157523
S        4.08167956       1.26330220       7.06967650       0.00091875      -0.00129426       0.00158429
