9
Lattice="5.251951564189258 1.0660137072654435e-08 3.0322155054993254 1.7506505416287865 4.951587500944979 3.0322154878638305 -1.5867269808707684e-07 -1.3379758271656273e-07 6.0644312858278235" Properties=species:S:1:pos:R:3:forces:R:3 energy=-47.987823486328125 free_energy=-47.987823486328125 stress="-0.000167778242030181 3.757160271788962e-08 -4.6992067126438997e-08 3.757160271788962e-08 -0.00016789727669674903 1.0587823950913844e-08 -4.6992067126438997e-08 1.0587823950913844e-08 -0.0001677934342296794" pbc="T T T"
W        1.75065137       1.23789644       3.03221600       0.00000251      -0.00000037       0.00000447
W        5.25195117       3.71369228       9.09664476       0.00000088       0.00000553      -0.00000422
V       -0.00000055      -0.00000055      -0.00000100       0.00000242      -0.00000082       0.00000583
Se       1.89375015       1.33908413       6.06443183      -0.00574017      -0.00405300       0.00000186
Se       5.10885145       3.61250290       6.06443162       0.00573450       0.00404769      -0.00000300
Se       4.30507575       1.33908315       4.67225159       0.00286573      -0.00405842      -0.00496238
Se       2.69752656       3.61250376       7.45661109      -0.00286260       0.00405622       0.00495982
Se       2.69752595       3.61250318       4.67225147      -0.00286600       0.00405651      -0.00496525
Se       4.30507576       1.33908398       7.45661159       0.00286248      -0.00405335       0.00496256
