9
Lattice="5.905585004510041 4.8785504284694264e-08 3.4095912017318133 1.9685283493711292 5.567839361926846 3.4095912562238055 -2.1527775156783317e-08 5.151636404824822e-08 6.81918244075081" Properties=species:S:1:pos:R:3:forces:R:3 energy=-36.953765869140625 free_energy=-36.953765869140625 stress="6.632754957536235e-05 -3.043907170763305e-08 6.5654868208753214e-09 -3.043907170763305e-08 6.6280786995776e-05 8.761372072285667e-09 6.5654868208753214e-09 8.761372072285667e-09 6.626125104958192e-05" pbc="T T T"
Y        1.96852657       1.39196152       3.40959137      -0.00001597       0.00001084       0.00000109
Y        5.90558717       4.17587905      10.22877442       0.00001831      -0.00000400       0.00000457
Ag       0.00000003      -0.00000030       0.00000040       0.00000036       0.00000172      -0.00000145
Cl       2.06001061       1.45664827       6.81918230       0.00068016       0.00048700      -0.00000199
Cl       5.81410258       4.11119077       6.81918196      -0.00068109      -0.00048909      -0.00000301
Cl       4.87558010       1.45664802       5.19361339      -0.00033899       0.00048409       0.00059444
Cl       2.99853326       4.11119119       8.44475118       0.00033635      -0.00048357      -0.00059562
Cl       2.99853346       4.11119110       5.19361343       0.00033785      -0.00048758       0.00059394
Cl       4.87557956       1.45664825       8.44475121      -0.00033703       0.00048062      -0.00059195
