9
Lattice="4.86497384889364 5.8783822564398555e-08 2.808794018235975 1.6216579906981463 4.586741444226407 2.808794043099565 2.2544835879400036e-08 4.639315399348633e-08 5.617587997423149" Properties=species:S:1:pos:R:3:forces:R:3 energy=-48.9501953125 free_energy=-48.9501953125 stress="0.00012779521057382226 2.5032869999108698e-08 -2.8645514404956884e-08 2.5032869999108698e-08 0.00012783260899595916 -9.23555187881675e-09 -2.8645514404956884e-08 -9.23555187881675e-09 0.00012782568228431046" pbc="T T T"
Y        1.62165805       1.14668484       2.80879398       0.00000252      -0.00000591       0.00000019
Y        4.86497388       3.44005579       8.42638223      -0.00000185      -0.00000518       0.00000369
Ag      -0.00000014      -0.00000008       0.00000005       0.00000023      -0.00000340       0.00000805
F        1.74669196       1.23509754       5.61758803      -0.00013906      -0.00009961       0.00000017
F        4.73993903       3.35164467       5.61758761       0.00013620       0.00010514      -0.00000148
F        3.99162846       1.23509859       4.32147369       0.00007372      -0.00009732      -0.00012410
F        2.49500382       3.35164370       6.91370266      -0.00006971       0.00009830       0.00011909
F        2.49500415       3.35164335       4.32147353      -0.00007206       0.00010210      -0.00012544
F        3.99162828       1.23509807       6.91370247       0.00007001      -0.00009410       0.00011969
