9
Lattice="6.68343515591417 2.526470099502348e-08 3.8586830472522733 2.2278117391079024 6.301203105556474 3.8586830530544898 -4.171412452700398e-09 4.156643465008825e-09 7.717366101729675" Properties=species:S:1:pos:R:3:forces:R:3 energy=-29.564363479614258 free_energy=-29.564363479614258 stress="0.00015431542124133557 1.796595205938445e-09 -7.283516012535074e-09 1.796595205938445e-09 0.00015433202497661114 -4.231913486307803e-09 -7.283516012535074e-09 -4.231913486307803e-09 0.00015431824431288987" pbc="T T T"
Y        2.22781178       1.57530081       3.85868309       0.00000001      -0.00000031       0.00000040
Y        6.68343503       4.72590218      11.57604975      -0.00000132      -0.00000063       0.00000346
Ag      -0.00000004      -0.00000013      -0.00000013      -0.00000053      -0.00000035      -0.00000149
I        2.29612400       1.62360477       7.71736614      -0.00405122      -0.00286474      -0.00000034
I        6.61512300       4.67759841       7.71736595       0.00405161       0.00286490      -0.00000168
I        5.53537330       1.62360489       5.84718432       0.00202501      -0.00286226      -0.00350780
I        3.37587361       4.67759831       9.58754771      -0.00202576       0.00286482       0.00350787
I        3.37587379       4.67759852       5.84718432      -0.00202410       0.00286310      -0.00350839
I        5.53537312       1.62360478       9.58754767       0.00202638      -0.00286463       0.00350791
