9
Lattice="6.203393386154835 -8.205418849490397e-08 3.5815308505834595 2.067797740417785 5.848615313419384 3.5815308117954605 1.3286905551984582e-08 -3.811012891053479e-08 7.1630616781533" Properties=species:S:1:pos:R:3:forces:R:3 energy=-33.51117706298828 free_energy=-33.51117706298828 stress="0.0002495852531865239 4.633031458478598e-10 6.13620310119245e-09 4.633031458478598e-10 0.0002495809458196163 -7.180495087411032e-10 6.13620310119245e-09 -7.180495087411032e-10 0.00024958921130746603" pbc="T T T"
Y        2.06779797       1.46215412       3.58153124       0.00000112       0.00000210       0.00000286
Y        6.20339353       4.38646106      10.74459221      -0.00000015      -0.00000075       0.00000010
Ag       0.00000009      -0.00000007       0.00000004       0.00000174       0.00000124      -0.00000006
Br       2.15044262       1.52059286       7.16306148      -0.00359993      -0.00254477      -0.00000070
Br       6.12074841       4.32802232       7.16306175       0.00359833       0.00254288      -0.00000025
Br       5.12817153       1.52059271       5.44386883       0.00179844      -0.00254550      -0.00311748
Br       3.14301923       4.32802262       8.88225439      -0.00179930       0.00254498       0.00311708
Br       3.14301909       4.32802239       5.44386894      -0.00180029       0.00254488      -0.00311771
Br       5.12817209       1.52059275       8.88225448       0.00179999      -0.00254501       0.00311616
