9
Lattice="6.730804556459187 -4.501944797577839e-09 3.886031821288122 2.243601507864123 6.345863358003419 3.8860318329121144 -1.0715755199607884e-08 6.659250359694166e-09 7.772063661136486" Properties=species:S:1:pos:R:3:forces:R:3 energy=-29.374475479125977 free_energy=-29.374475479125977 stress="0.00016499454795848578 8.72280203623177e-09 -1.2736285359693511e-09 8.72280203623177e-09 0.0001649762416491285 3.292142947142196e-10 -1.2736285359693511e-09 3.292142947142196e-10 0.00016498987679369748" pbc="T T T"
Y        2.24360172       1.58646555       3.88603174      -0.00000002      -0.00000077      -0.00000187
Y        6.73080469       4.75939734      11.65809586       0.00000141      -0.00000010       0.00000271
Au       0.00000018       0.00000014       0.00000015      -0.00000096      -0.00000026      -0.00000007
I        2.32038343       1.64075896       7.77206367      -0.00192524      -0.00136129       0.00000030
I        6.65402230       4.70510433       7.77206349       0.00192592       0.00136269      -0.00000094
I        5.57061277       1.64075902       5.89554299       0.00096288      -0.00136179      -0.00166745
I        3.40379318       4.70510447       9.64858410      -0.00096404       0.00136160       0.00166724
I        3.40379333       4.70510455       5.89554289      -0.00096288       0.00136156      -0.00166754
I        5.57061262       1.64075908       9.64858436       0.00096286      -0.00136170       0.00166763
