9
Lattice="6.010257058237211 -2.8552453846833725e-07 3.470023507773089 2.003418838364905 5.666524895321733 3.4700233550968607 -1.998894105955253e-07 -3.283325361829604e-07 6.94004736176476" Properties=species:S:1:pos:R:3:forces:R:3 energy=-36.054481506347656 free_energy=-36.054481506347656 stress="0.0002595210971776396 2.403194265809816e-08 1.1149653644793034e-08 2.403194265809816e-08 0.0002595364931039512 9.867060057899835e-09 1.1149653644793034e-08 9.867060057899835e-09 0.00025950229610316455" pbc="T T T"
Y        2.00341725       1.41662952       3.47002279      -0.00001037      -0.00001089      -0.00000272
Y        6.01025795       4.24989356      10.41006944       0.00000531       0.00000095      -0.00000714
Au      -0.00000021      -0.00000035      -0.00000023       0.00000235       0.00000315       0.00000446
Cl       2.08546615       1.47464776       6.94004683      -0.00225198      -0.00158961       0.00000340
Cl       5.92820982       4.19187717       6.94004696       0.00224453       0.00158894       0.00000348
Cl       4.96752352       1.47464736       5.27609135       0.00113148      -0.00159641      -0.00194553
Cl       3.04615221       4.19187764       8.60400417      -0.00111955       0.00159009       0.00194179
Cl       3.04615215       4.19187709       5.27609169      -0.00112688       0.00159863      -0.00194257
Cl       4.96752396       1.47464736       8.60400407       0.00112500      -0.00158474       0.00194472
