9
Lattice="6.235674038926128 -3.411778111332121e-08 3.6001681071155187 2.078557996046993 5.879049830631268 3.600168080722249 -2.1180701365467324e-08 -4.730202626834285e-08 7.20033625091708" Properties=species:S:1:pos:R:3:forces:R:3 energy=-33.17835998535156 free_energy=-33.17835998535156 stress="8.481714758090675e-05 7.168991622563681e-09 5.038590877859406e-09 7.168991622563681e-09 8.484590944135562e-05 -1.8987063032938067e-09 5.038590877859406e-09 -1.8987063032938067e-09 8.481662371195853e-05" pbc="T T T"
Y        2.07855801       1.46976239       3.60016832       0.00000060      -0.00000050       0.00000245
Y        6.23567401       4.40928732      10.80050415      -0.00000035       0.00000128      -0.00000281
Au      -0.00000001      -0.00000007       0.00000022      -0.00000051       0.00000005      -0.00000185
Br       2.14216297       1.51473788       7.20033604       0.00063311       0.00044753      -0.00000145
Br       6.17206881       4.36431164       7.20033613      -0.00063175      -0.00044621       0.00000142
Br       5.16459250       1.51473807       5.45533586      -0.00031725       0.00044628       0.00054800
Br       3.14963964       4.36431180       8.94533660       0.00031589      -0.00044644      -0.00054771
Br       3.14963962       4.36431170       5.45533583       0.00031632      -0.00044865       0.00054824
Br       5.16459248       1.51473827       8.94533664      -0.00031601       0.00044670      -0.00054632
