9
Lattice="4.619665372701389 -1.4789409965414833e-07 2.6671651302994244 1.5398883626324182 4.3554624085468 2.667165053221188 2.476344644092501e-08 -7.68907511877184e-08 5.33433021770736" Properties=species:S:1:pos:R:3:forces:R:3 energy=-54.7345085144043 free_energy=-54.7345085144043 stress="1.6483381841680966e-05 -1.887901168728945e-09 2.0634816522147048e-08 -1.887901168728945e-09 1.6433297787443735e-05 -6.285830522756441e-08 2.0634816522147048e-08 -6.285830522756441e-08 1.6419118765043095e-05" pbc="T T T"
Y        1.53988879       1.08886714       2.66716472       0.00000345       0.00001514      -0.00000900
Y        4.61966609       3.26659690       8.00149463       0.00000901       0.00000382      -0.00000585
Be      -0.00000025      -0.00000011      -0.00000029      -0.00000008       0.00000033       0.00000154
F        1.42303321       1.00623632       5.33433052      -0.00366813      -0.00259179       0.00000017
F        4.73652085       3.34922550       5.33433052       0.00366712       0.00258887       0.00000446
F        3.90814936       1.00623615       3.89954803       0.00183246      -0.00259283      -0.00317276
F        2.25140381       3.34922511       6.76911291      -0.00183821       0.00258449       0.00317663
F        2.25140432       3.34922575       3.89954803      -0.00183746       0.00258598      -0.00317252
F        3.90814873       1.00623584       6.76911253       0.00183180      -0.00259343       0.00317693
