9
Lattice="5.661100779152556 -2.413720429863736e-08 3.2684380766959427 1.887033653236827 5.337336932630591 3.2684379330348805 -1.3666489804024401e-08 -1.8561177534293027e-07 6.536876177062979" Properties=species:S:1:pos:R:3:forces:R:3 energy=-40.87042236328125 free_energy=-40.87042236328125 stress="4.5815326302545145e-05 1.866249732529468e-08 2.9451190375340275e-09 1.866249732529468e-08 4.584248017636128e-05 -3.9222538106287175e-08 2.9451190375340275e-09 -3.9222538106287175e-08 4.5753993617836386e-05" pbc="T T T"
Y        1.88703227       1.33433242       3.26843802      -0.00000769      -0.00001076       0.00000010
Y        5.66110089       4.00300203       9.80531472       0.00000223      -0.00000150       0.00000481
Be       0.00000036      -0.00000007      -0.00000021      -0.00000370       0.00000228       0.00000002
Cl       1.82248562       1.28869177       6.53687620       0.00021493       0.00015306      -0.00000038
Cl       5.72564911       4.04864546       6.53687593      -0.00021522      -0.00014994      -0.00000315
Cl       4.74985809       1.28869192       4.84675701      -0.00010460       0.00015403       0.00018485
Cl       2.79827645       4.04864567       8.22699518       0.00010777      -0.00014935      -0.00018947
Cl       2.79827670       4.04864567       4.84675661       0.00011045      -0.00015043       0.00019042
Cl       4.74985814       1.28869194       8.22699525      -0.00010446       0.00015262      -0.00018734
