9
Lattice="6.596656429511194 1.8358477747133793e-08 3.8085813378914746 2.198885493334981 6.219387404248209 3.8085813387181715 -4.762551157217387e-09 -2.355105342065548e-09 7.6171626840318885" Properties=species:S:1:pos:R:3:forces:R:3 energy=-31.0040225982666 free_energy=-31.0040225982666 stress="0.0001857728639151901 1.8268919710351383e-09 1.9840458165276686e-09 1.8268919710351383e-09 0.00018577039008960128 2.205240656749652e-09 1.9840458165276686e-09 2.205240656749652e-09 0.00018576595175545663" pbc="T T T"
Y        2.19888554       1.55484692       3.80858112      -0.00000027       0.00000005      -0.00000038
Y        6.59665602       4.66454081      11.42574467      -0.00000218       0.00000115       0.00000349
Be       0.00000011      -0.00000000      -0.00000005       0.00000044      -0.00000027      -0.00000058
I        2.15544053       1.52412624       7.61716269      -0.00166860      -0.00117975      -0.00000060
I        6.64010137       4.69526118       7.61716247       0.00166778       0.00118008      -0.00000145
I        5.51893637       1.52412667       5.67524741       0.00083458      -0.00117828      -0.00144605
I        3.27660571       4.69526064       9.55907798      -0.00083442       0.00117894       0.00144446
I        3.27660597       4.69526095       5.67524741      -0.00083252       0.00117927      -0.00144386
I        5.51893605       1.52412627       9.55907773       0.00083519      -0.00118128       0.00144499
