9
Lattice="6.842825164726154 7.302850598728488e-08 3.9507069499458627 2.280941776942714 6.451477537276507 3.9507069733019193 -1.181728472467559e-08 2.0249103538071795e-08 7.9014139203598575" Properties=species:S:1:pos:R:3:forces:R:3 energy=-31.587453842163086 free_energy=-31.587453842163086 stress="9.121392940869555e-05 1.2735068111169312e-08 -5.968927130339807e-09 1.2735068111169312e-08 9.120859613176435e-05 -1.22793086809736e-09 -5.968927130339807e-09 -1.22793086809736e-09 9.121107723331079e-05" pbc="T T T"
Y        2.28094156       1.61286960       3.95070707      -0.00000110       0.00000149       0.00000009
Y        6.84282513       4.83860806      11.85212121      -0.00000106       0.00000148       0.00000251
Ca       0.00000013       0.00000015      -0.00000022       0.00000087      -0.00000052      -0.00000082
I        2.38267414       1.68480504       7.90141386       0.00041148       0.00028949       0.00000027
I        6.74109283       4.76667245       7.90141366      -0.00041012      -0.00029077      -0.00000073
I        5.65148829       1.68480520       6.01416314      -0.00020519       0.00029061       0.00035685
I        3.47227857       4.76667260       9.78866486       0.00020508      -0.00029092      -0.00035619
I        3.47227877       4.76667237       6.01416308       0.00020516      -0.00029118       0.00035497
I        5.65148829       1.68480505       9.78866472      -0.00020511       0.00029033      -0.00035691
