9
Lattice="4.9305916676588 -7.641842360183915e-08 2.8466787549491896 1.6435306114448163 4.64860567375684 2.8466785339282614 2.543536129147478e-07 -9.08391784013567e-08 5.693357069344958" Properties=species:S:1:pos:R:3:forces:R:3 energy=-52.63064193725586 free_energy=-52.63064193725586 stress="-7.822174666216597e-05 1.6066299224348768e-07 -1.599879908553703e-07 1.6066299224348768e-07 -7.751863449811935e-05 9.243473897413423e-08 -1.599879908553703e-07 9.243473897413423e-08 -7.84884687163867e-05" pbc="T T T"
Y        1.64353489       1.16215081       2.84668007       0.00004344      -0.00000737       0.00001349
Y        4.93059560       3.48645667       8.54003680       0.00003378       0.00002738       0.00001580
Ca       0.00000050      -0.00000002       0.00000037       0.00001260       0.00000481      -0.00000305
F        1.72133644       1.21716849       5.69335574      -0.00741082      -0.00523823      -0.00001110
F        4.85278601       3.43143830       5.69335603       0.00739932       0.00524765      -0.00000998
F        4.06992025       1.21716565       4.33739912       0.00367200      -0.00525063      -0.00641757
F        2.50419734       3.43143742       7.04931424      -0.00372019       0.00523853       0.00640494
F        2.50419810       3.43143882       4.33739963      -0.00370723       0.00523138      -0.00640208
F        4.06992110       1.21716575       7.04931538       0.00367638      -0.00525373       0.00640929
