9
Lattice="6.3369900672534385 -2.069389945162228e-07 3.6586630653097645 2.1123298387534977 5.97457132548848 3.6586630454957367 4.441446390694563e-09 -2.1126568840053547e-08 7.317326122926743" Properties=species:S:1:pos:R:3:forces:R:3 energy=-36.20415115356445 free_energy=-36.20415115356445 stress="0.00024859263794496655 -2.509043817155998e-08 -1.7104120786370913e-08 -2.509043817155998e-08 0.0002485920849721879 1.3425672129585564e-08 -1.7104120786370913e-08 1.3425672129585564e-08 0.0002486491284798831" pbc="T T T"
Y        2.11232975       1.49364238       3.65866328      -0.00000163      -0.00000192       0.00000065
Y        6.33698977       4.48092845      10.97598873      -0.00000148       0.00000108      -0.00000241
Ca      -0.00000038      -0.00000045       0.00000005       0.00000690       0.00000639      -0.00000010
Br       2.20003524       1.55565983       7.31732621       0.00027809       0.00019698       0.00000009
Br       6.24928453       4.41891159       7.31732613      -0.00028330      -0.00020137       0.00000189
Br       5.23697230       1.55565980       5.56394984      -0.00013877       0.00019440       0.00024106
Br       3.21234801       4.41891156       9.07070251       0.00014048      -0.00019595      -0.00024238
Br       3.21234788       4.41891144       5.56394975       0.00013973      -0.00019684       0.00024331
Br       5.23697250       1.55565982       9.07070250      -0.00013991       0.00019716      -0.00024205
