9
Lattice="5.85825103299767 -1.217626088615518e-08 3.3822627751246954 1.952750409451018 5.52321191452338 3.3822626424524365 1.503849587421633e-07 -5.615143346121376e-08 6.764525289774973" Properties=species:S:1:pos:R:3:forces:R:3 energy=-37.50918960571289 free_energy=-37.50918960571289 stress="4.133245238335803e-05 4.596711011828347e-09 -3.4545479810077495e-09 4.596711011828347e-09 4.127487409277819e-05 -7.211513608496034e-09 -3.4545479810077495e-09 -7.211513608496034e-09 4.129470107727684e-05" pbc="T T T"
Y        1.95275009       1.38080425       3.38226140      -0.00000041       0.00000953      -0.00000895
Y        5.85825252       4.14240820      10.14678759       0.00000853      -0.00000354      -0.00000348
C       -0.00000001       0.00000018       0.00000029      -0.00000083      -0.00000076       0.00000164
Cl       2.01942313       1.42794758       6.76452523       0.00053257       0.00037982       0.00000173
Cl       5.79157893       4.09526390       6.76452575      -0.00053367      -0.00038087       0.00000267
Cl       4.84853984       1.42794780       5.13113434      -0.00026663       0.00038056       0.00046545
Cl       2.96246090       4.09526331       8.39791690       0.00026369      -0.00038474      -0.00046322
Cl       2.96246146       4.09526439       5.13113481       0.00026558      -0.00037886       0.00046602
Cl       4.84853950       1.42794771       8.39791646      -0.00026870       0.00037886      -0.00046201
