9
Lattice="6.254235919951854 -6.8651278244910775e-09 3.61088477663046 2.084745333955188 5.896550110129351 3.610884718126851 7.460762092019841e-08 -1.8896463242442986e-08 7.221769424036726" Properties=species:S:1:pos:R:3:forces:R:3 energy=-32.58061599731445 free_energy=-32.58061599731445 stress="6.261230009840801e-05 3.18611377281286e-08 2.413773403375785e-09 3.18611377281286e-08 6.268119614105672e-05 -1.7623056347559896e-09 2.413773403375785e-09 -1.7623056347559896e-09 6.266161653911695e-05" pbc="T T T"
Y        2.08474567       1.47413762       3.61088457       0.00000131       0.00000186       0.00000079
Y        6.25423595       4.42241269      10.83265381      -0.00000098       0.00000230      -0.00000072
Cd       0.00000012      -0.00000004       0.00000009      -0.00000159       0.00000035       0.00000169
Br       2.15464349       1.52356292       7.22176941       0.00068526       0.00048502       0.00000113
Br       6.18433768       4.37298718       7.22176956      -0.00068382      -0.00048448      -0.00000039
Br       5.17691371       1.52356298       5.47686081      -0.00034241       0.00048280       0.00059147
Br       3.16206739       4.37298709       8.96667836       0.00034400      -0.00048700      -0.00059459
Br       3.16206702       4.37298688       5.47686098       0.00034063      -0.00048502       0.00059297
Br       5.17691424       1.52356295       8.96667812      -0.00034235       0.00048422      -0.00059243
