9
Lattice="5.965051888142222 2.632892779100904e-07 3.4439241933888876 1.9883508084406496 5.62390507095875 3.4439243131976065 -2.4367547769481686e-08 1.2950466867095016e-07 6.88784842898359" Properties=species:S:1:pos:R:3:forces:R:3 energy=-36.531944274902344 free_energy=-36.531944274902344 stress="0.0001254283997695893 2.173003288419295e-08 2.527351128378541e-08 2.173003288419295e-08 0.00012549907842185348 3.464361242322411e-08 2.527351128378541e-08 3.464361242322411e-08 0.00012542595504783094" pbc="T T T"
Y        1.98835056       1.40597655       3.44392338      -0.00000001       0.00000347      -0.00000401
Y        5.96505280       4.21793140      10.33177188       0.00000182       0.00001155      -0.00000799
Cd       0.00000017      -0.00000002       0.00000003      -0.00000066      -0.00000162       0.00000020
Cl       2.03650702       1.44002790       6.88784892       0.00150231       0.00105789       0.00000366
Cl       5.91689591       4.18387692       6.88784919      -0.00150043      -0.00106318       0.00000264
Cl       4.94679843       1.44002756       5.20759104      -0.00075106       0.00105803       0.00130604
Cl       3.00660385       4.18387658       8.56810618       0.00075105      -0.00106542      -0.00129956
Cl       3.00660369       4.18387713       5.20759092       0.00074996      -0.00106181       0.00130439
Cl       4.94679824       1.44002791       8.56810623      -0.00075308       0.00106132      -0.00130528
