9
Lattice="5.01764728160355 -2.0447517441372007e-07 2.896940089753198 1.672549002415873 4.730682759120149 2.8969399142460253 7.955173273449576e-08 -1.586999664655912e-07 5.793880041718686" Properties=species:S:1:pos:R:3:forces:R:3 energy=-47.32891845703125 free_energy=-47.32891845703125 stress="0.00022160561638884246 -6.717079514828583e-08 -1.649348746468604e-08 -6.717079514828583e-08 0.0002214693377027288 -7.848483107864013e-08 -1.649348746468604e-08 -7.848483107864013e-08 0.00022149030701257288" pbc="T T T"
Y        1.67254311       1.18267473       2.89693818      -0.00006091       0.00003692      -0.00002473
Y        5.01764267       3.54801207       8.69081758      -0.00004302       0.00000241      -0.00001686
Cd      -0.00000065       0.00000033      -0.00000023      -0.00001105       0.00000377      -0.00000195
F        1.76150367       1.24556787       5.79388030       0.00710696       0.00500438       0.00000817
F        4.92869774       3.48510709       5.79387899      -0.00706851      -0.00505334       0.00000462
F        4.13689941       1.24557074       4.42244679      -0.00352067       0.00502226       0.00615752
F        2.55330233       3.48511094       7.16531734       0.00357085      -0.00503266      -0.00612465
F        2.55330023       3.48511429       4.42244757       0.00355349      -0.00500998       0.00614449
F        4.13689746       1.24557138       7.16531420      -0.00352655       0.00502586      -0.00614688
