9
Lattice="4.626234252510695 -1.51895517901448e-08 2.6709577876757997 1.542078014581668 4.361655922897745 2.6709578834023096 -3.260431830134474e-07 -1.1330679280194418e-07 5.341916140074997" Properties=species:S:1:pos:R:3:forces:R:3 energy=-51.485774993896484 free_energy=-51.485774993896484 stress="-0.00018638842448126525 1.729955023677121e-08 3.1903795161269954e-08 1.729955023677121e-08 -0.00018614080909173936 -2.5997451302828267e-08 3.1903795161269954e-08 -2.5997451302828267e-08 -0.00018649980484042317" pbc="T T T"
Y        1.54207791       1.09041589       2.67095764      -0.00000117       0.00001064      -0.00000246
Y        4.62623332       3.27124082       8.01287355      -0.00000674      -0.00000099      -0.00000254
C       -0.00000001      -0.00000021      -0.00000005       0.00000283       0.00000203       0.00000585
F        1.63765624       1.15799746       5.34191591      -0.00141263      -0.00099772      -0.00000006
F        4.53065588       3.20365770       5.34191628       0.00141525       0.00099289       0.00000218
F        3.80740606       1.15799735       4.08921025       0.00070262      -0.00099409      -0.00121766
F        2.36090607       3.20365805       6.59462209      -0.00070041       0.00098825       0.00121903
F        2.36090663       3.20365791       4.08920982      -0.00070488       0.00099456      -0.00122589
F        3.80740567       1.15799759       6.59462173       0.00070566      -0.00099570       0.00122172
