9
Lattice="6.632196229620682 4.6175945043860294e-08 3.8291002974567894 2.2107321063823657 6.252894677077674 3.8291003211736334 3.502153310224899e-08 5.3811054270639026e-08 7.658200534254543" Properties=species:S:1:pos:R:3:forces:R:3 energy=-31.083648681640625 free_energy=-31.083648681640625 stress="-0.0001511851151008159 -4.197000802452777e-10 3.4350000621685695e-09 -4.197000802452777e-10 -0.00015117703878786415 1.5446242063177351e-09 3.4350000621685695e-09 1.5446242063177351e-09 -0.00015118447481654584" pbc="T T T"
Y        2.21073217       1.56322363       3.82910030       0.00000132       0.00000010       0.00000047
Y        6.63219644       4.68967135      11.48730008       0.00000002       0.00000139      -0.00000288
C        0.00000004       0.00000023      -0.00000013       0.00000035      -0.00000050      -0.00000012
I        2.24524233       1.58762616       7.65820056      -0.00574072      -0.00405999      -0.00000007
I        6.59768583       4.66526846       7.65820080       0.00574116       0.00405984       0.00000212
I        5.50957501       1.58762619       5.77353739       0.00286910      -0.00405957      -0.00497133
I        3.33335338       4.66526844       9.54286399      -0.00286961       0.00405921       0.00497267
I        3.33335323       4.66526851       5.77353750      -0.00287164       0.00405940      -0.00497217
I        5.50957505       1.58762611       9.54286411       0.00287004      -0.00405981       0.00497139
