9
Lattice="6.032795707254055 -7.659997448334894e-08 3.483036291125302 2.0109318752130774 5.687774242969085 3.4830362131583867 7.239595175438908e-08 -4.4297889804091876e-08 6.966072456857107" Properties=species:S:1:pos:R:3:forces:R:3 energy=-38.107765197753906 free_energy=-38.107765197753906 stress="5.77104146941565e-05 1.3065238668730217e-08 -8.649546856531742e-09 1.3065238668730217e-08 5.767939001088962e-05 3.745370680263704e-09 -8.649546856531742e-09 3.745370680263704e-09 5.77207283640746e-05" pbc="T T T"
Y        2.01093090       1.42194311       3.48303650      -0.00000408      -0.00000269      -0.00000054
Y        6.03279625       4.26583094      10.44910848       0.00000275       0.00000266      -0.00000279
Co      -0.00000013       0.00000002       0.00000036      -0.00000025      -0.00000147      -0.00000279
Br       1.97629958       1.39745467       6.96607273       0.00000683       0.00000485      -0.00000059
Br       6.06742831       4.29031958       6.96607242      -0.00000631      -0.00000513       0.00000147
Br       5.04464646       1.39745441       5.19456178      -0.00000442       0.00000589       0.00000964
Br       2.99908158       4.29031964       8.73758282       0.00000335      -0.00000358      -0.00000529
Br       2.99908153       4.29031977       5.19456200       0.00000401      -0.00000583       0.00000862
Br       5.04464611       1.39745436       8.73758276      -0.00000176       0.00000532      -0.00000777
