9
Lattice="6.608287729467109 2.458335455501199e-09 3.8152966893962357 2.202762559233798 6.230353326924509 3.815296723297637 -6.292063399784077e-09 3.707138356145715e-08 7.630593389690631" Properties=species:S:1:pos:R:3:forces:R:3 energy=-33.50225067138672 free_energy=-33.50225067138672 stress="5.236695142230019e-05 -7.677781743709033e-10 1.242299929593571e-09 -7.677781743709033e-10 5.235728167463094e-05 -4.122563179720373e-09 1.242299929593571e-09 -4.122563179720373e-09 5.2332256018416956e-05" pbc="T T T"
Y        2.20276261       1.55758849       3.81529658       0.00000125       0.00000020      -0.00000042
Y        6.60828784       4.67276512      11.44588975       0.00000029       0.00000040      -0.00000153
Co       0.00000005      -0.00000018       0.00000036      -0.00000072       0.00000001      -0.00000192
I        2.17132930       1.53536165       7.63059343      -0.00366698      -0.00259314      -0.00000079
I        6.63972097       4.69499164       7.63059342       0.00366738       0.00259325       0.00000086
I        5.52262319       1.53536167       5.69572325       0.00183317      -0.00259375      -0.00317460
I        3.28842733       4.69499162       9.56546365      -0.00183387       0.00259431       0.00317621
I        3.28842704       4.69499174       5.69572302      -0.00183431       0.00259325      -0.00317475
I        5.52262282       1.53536174       9.56546375       0.00183373      -0.00259447       0.00317691
