9
Lattice="4.5832451344444705 -2.995040449110361e-07 2.646137720104873 1.527748194310195 4.321124247550817 2.6461375494334947 8.401398177467926e-08 -1.4962202150304716e-07 5.29227529469326" Properties=species:S:1:pos:R:3:forces:R:3 energy=-54.26676559448242 free_energy=-54.26676559448242 stress="-7.206171721918508e-05 -1.0532997407608491e-07 1.6984836648248347e-08 -1.0532997407608491e-07 -7.199899846455082e-05 -3.828883166079322e-08 1.6984836648248347e-08 -3.828883166079322e-08 -7.193047349574044e-05" pbc="T T T"
Y        1.52774930       1.08028094       2.64613844       0.00001045       0.00000196       0.00000657
Y        4.58324582       3.24084277       7.93841211       0.00000540      -0.00000062      -0.00000788
Co       0.00000018       0.00000003      -0.00000007      -0.00000637       0.00000849       0.00000190
F        1.54965518       1.09577234       5.29227434       0.00114363       0.00081280      -0.00000376
F        4.56133800       3.22535188       5.29227622      -0.00114930      -0.00081325       0.00000370
F        3.80841639       1.09577147       3.98817853      -0.00057438       0.00080556       0.00098771
F        2.30257649       3.22535197       6.59637194       0.00057340      -0.00081074      -0.00099319
F        2.30257594       3.22535194       3.98817871       0.00057024      -0.00080788       0.00099128
F        3.80841670       1.09577138       6.59637217      -0.00057292       0.00080347      -0.00098693
