9
Lattice="5.739551065980165 -1.7070956701880423e-07 3.313731168481648 1.913183490629735 5.4113004771891315 3.313731232712657 -1.1844402516721391e-07 -5.085992715153191e-09 6.627462542114392" Properties=species:S:1:pos:R:3:forces:R:3 energy=-42.16931915283203 free_energy=-42.16931915283203 stress="0.0001865390077000484 2.42666384764334e-08 -6.170020583340374e-08 2.42666384764334e-08 0.00018641843053046614 -3.581938656793682e-08 -6.170020583340374e-08 -3.581938656793682e-08 0.0001864970981841907" pbc="T T T"
Y        1.91318359       1.35282541       3.31373034      -0.00000123       0.00000612      -0.00000717
Y        5.73955159       4.05847651       9.94119112       0.00000182       0.00000521      -0.00001924
Co      -0.00000008       0.00000019       0.00000083      -0.00000179      -0.00000339      -0.00001403
Cl       1.87291909       1.32435345       6.62746302      -0.00072350      -0.00051525       0.00000375
Cl       5.77981557       4.08694606       6.62746323       0.00073004       0.00051545       0.00000580
Cl       4.80309140       1.32435281       4.93572728       0.00035840      -0.00051611      -0.00061932
Cl       2.84964320       4.08694627       8.31919855      -0.00036328       0.00051567       0.00063437
Cl       2.84964194       4.08694647       4.93572684      -0.00036388       0.00050832      -0.00061911
Cl       4.80309139       1.32435404       8.31919853       0.00036331      -0.00051595       0.00063490
