9
Lattice="6.724461937781075 -1.6858914296829373e-08 3.882369893876038 2.241487288295255 6.339883481061932 3.8823699084317265 2.0494604910758884e-08 3.2318824910656374e-08 7.764739752254371" Properties=species:S:1:pos:R:3:forces:R:3 energy=-36.25490188598633 free_energy=-36.25490188598633 stress="8.117033576127142e-05 -1.1511370523464848e-08 1.5639484152174532e-09 -1.1511370523464848e-08 8.117064862744883e-05 -6.26714502516279e-09 1.5639484152174532e-09 -6.26714502516279e-09 8.118325058603659e-05" pbc="T T T"
Y        2.24148762       1.58497094       3.88236993       0.00000089      -0.00000049       0.00000076
Y        6.72446116       4.75491209      11.64710874      -0.00000295      -0.00000219      -0.00000384
Cr       0.00000008       0.00000014      -0.00000006       0.00000072      -0.00000055      -0.00000084
I        2.22601174       1.57402819       7.76473980       0.00029248       0.00020750       0.00000007
I        6.73993745       4.76585538       7.76474024      -0.00029163      -0.00020649       0.00000047
I        5.61145597       1.57402798       5.81015273      -0.00014663       0.00020791       0.00025362
I        3.35449361       4.76585555       9.71932687       0.00014585      -0.00020545      -0.00025070
I        3.35449330       4.76585536       5.81015299       0.00014651      -0.00020617       0.00025204
I        5.61145605       1.57402838       9.71932700      -0.00014538       0.00020596      -0.00025153
