9
Lattice="6.124971280191201 -2.5200965659810385e-07 3.5362540983407533 2.0416568591678472 5.7746784019499 3.536254092507464 -9.120959090794048e-08 -7.163924128265905e-08 7.072508354661204" Properties=species:S:1:pos:R:3:forces:R:3 energy=-40.87209701538086 free_energy=-40.87209701538086 stress="5.550205969484523e-05 -7.137509783206042e-08 5.067215980147921e-09 -7.137509783206042e-08 5.547741602640599e-05 3.2815032913191544e-09 5.067215980147921e-09 3.2815032913191544e-09 5.560394856729545e-05" pbc="T T T"
Y        2.04165753       1.44366943       3.53625407       0.00000254      -0.00000124      -0.00000013
Y        6.12497081       4.33100888      10.60876323      -0.00000124       0.00000175       0.00000361
Cr       0.00000052       0.00000033       0.00000019      -0.00000821      -0.00000677      -0.00000369
Br       1.97582294       1.39711761       7.07250828       0.00349030       0.00246665      -0.00000088
Br       6.19080414       4.37756001       7.07250819      -0.00348344      -0.00246015      -0.00000254
Br       5.13705954       1.39711797       5.24736721      -0.00174297       0.00246373       0.00301728
Br       3.02956880       4.37755970       8.89764881       0.00173974      -0.00246042      -0.00301531
Br       3.02956853       4.37756028       5.24736719       0.00174399      -0.00246385       0.00301796
Br       5.13705933       1.39711816       8.89764900      -0.00174093       0.00246015      -0.00301650
