9
Lattice="4.838921702503368 5.566761195611631e-07 2.793752899308717 1.6129747804829337 4.562178073981545 2.793752284761167 8.082744004040076e-07 -1.811277101419389e-07 5.587504398644956" Properties=species:S:1:pos:R:3:forces:R:3 energy=-55.56440734863281 free_energy=-55.56440734863281 stress="8.284109935630113e-05 6.005158184052561e-07 -1.7874651803140296e-07 6.005158184052561e-07 8.361310756299645e-05 -1.1189051463134092e-07 -1.7874651803140296e-07 -1.1189051463134092e-07 8.48860654514283e-05" pbc="T T T"
Y        1.61298129       1.14053958       2.79375399       0.00006871      -0.00004177       0.00002327
Y        4.83891341       3.42163173       8.38125948      -0.00008980      -0.00005580       0.00004659
Cr       0.00000067      -0.00000174       0.00000246      -0.00000137      -0.00001735       0.00001034
F        1.68408196       1.19082519       5.58750010      -0.00354262      -0.00252678      -0.00001960
F        4.76781058       3.37135645       5.58749908       0.00353725       0.00256142      -0.00002901
F        3.99688067       1.19083224       4.25220321       0.00175908      -0.00247274      -0.00312772
F        2.45501928       3.37135121       6.92280378      -0.00174286       0.00251228       0.00310859
F        2.45502009       3.37135278       4.25220926      -0.00173942       0.00253043      -0.00311259
F        3.99688118       1.19082653       6.92280692       0.00175088      -0.00248997       0.00310014
