9
Lattice="5.935443059603819 -3.916131320184735e-08 3.4268293313186162 1.9784810005308935 5.5959892553865505 3.4268293008611566 -3.1233974364706263e-07 -2.581601280412565e-07 6.853659203625417" Properties=species:S:1:pos:R:3:forces:R:3 energy=-44.44340133666992 free_energy=-44.44340133666992 stress="6.696892523905262e-05 1.2457743281402145e-08 -1.419768747012995e-08 1.2457743281402145e-08 6.712430331390351e-05 -3.250009328326087e-08 -1.419768747012995e-08 -3.250009328326087e-08 6.705898704240099e-05" pbc="T T T"
Y        1.97848356       1.39900213       3.42682918       0.00001477       0.00002495      -0.00000116
Y        5.93544513       4.19698902      10.28048572       0.00001463      -0.00001666      -0.00001139
Cr       0.00000006      -0.00000059       0.00000041      -0.00000264       0.00000213      -0.00000256
Cl       1.90888238       1.34978586       6.85365895       0.00140122       0.00100246       0.00000035
Cl       6.00503898       4.24620329       6.85365985      -0.00140047      -0.00099710       0.00000627
Cl       4.98100007       1.34978566       5.07997171      -0.00070567       0.00099212       0.00121343
Cl       2.93292244       4.24620223       8.62734625       0.00069490      -0.00100216      -0.00120986
Cl       2.93292292       4.24620279       5.07997288       0.00069094      -0.00099832       0.00121245
Cl       4.98099923       1.34978550       8.62734644      -0.00070736       0.00099266      -0.00120771
