9
Lattice="4.6331606238993635 -2.5518278555088417e-08 2.6749564753815314 1.544386795336318 4.368185824198977 2.674956571056428 -1.0308962720249515e-07 4.428195470850838e-08 5.349913129319491" Properties=species:S:1:pos:R:3:forces:R:3 energy=-51.9580192565918 free_energy=-51.9580192565918 stress="0.00019143846293445677 1.38319293796485e-08 -6.077664949089012e-08 1.38319293796485e-08 0.0001917406334541738 1.0586759024988623e-08 -6.077664949089012e-08 1.0586759024988623e-08 0.00019156317284796387" pbc="T T T"
Y        1.54438789       1.09204616       2.67495672       0.00001021      -0.00000063       0.00000262
Y        4.63316100       3.27614116       8.02486951       0.00000690       0.00001831       0.00000206
Cu       0.00000029       0.00000029       0.00000008       0.00000088      -0.00000133      -0.00000456
F        1.61798362       1.14408696       5.34991322      -0.00086968      -0.00062088      -0.00000114
F        4.55956358       3.22409928       5.34991330       0.00087050       0.00062271      -0.00000080
F        3.82416785       1.14408653       4.07617129       0.00042792      -0.00062406      -0.00075509
F        2.35337852       3.22409836       6.62365491      -0.00043971       0.00062032       0.00075946
F        2.35337803       3.22409896       4.07617103      -0.00043657       0.00061414      -0.00075287
F        3.82416818       1.14408568       6.62365436       0.00042965      -0.00062837       0.00074996
