9
Lattice="6.041982276404538 -8.091493683418599e-09 3.4883402047421606 2.013994102852393 5.696435477112037 3.4883401729654606 4.865772910083864e-08 -4.512126866029627e-09 6.9766803252067" Properties=species:S:1:pos:R:3:forces:R:3 energy=-35.520164489746094 free_energy=-35.520164489746094 stress="0.0001409418327966705 -9.729553163140281e-09 -4.20676993240221e-10 -9.729553163140281e-09 0.0001409259857609868 6.511217787164014e-09 -4.20676993240221e-10 6.511217787164014e-09 0.0001409450196661055" pbc="T T T"
Y        2.01399456       1.42410813       3.48834029       0.00000355      -0.00000243       0.00000041
Y        6.04198294       4.27232702      10.46502163       0.00000244       0.00000040       0.00000685
Cu      -0.00000020      -0.00000027      -0.00000044      -0.00000092       0.00000082       0.00000116
Br       2.03637256       1.43993287       6.97668028      -0.00294694      -0.00208266      -0.00000009
Br       6.01960380       4.25650280       6.97668018       0.00294490       0.00208332      -0.00000267
Br       5.02379578       1.43993316       5.25189030       0.00147348      -0.00208299      -0.00255287
Br       3.03218020       4.25650280       8.70147003      -0.00147430       0.00208319       0.00254802
Br       3.03218023       4.25650262       5.25189044      -0.00147359       0.00208524      -0.00254996
Br       5.02379580       1.43993274       8.70147011       0.00147137      -0.00208492       0.00254909
