9
Lattice="6.601438197013351 -1.4538333201241245e-08 3.8113420843408146 2.2004793812471455 6.223895621583301 3.8113420913563822 -1.3415561790076503e-08 -8.93944985222582e-10 7.622684191918068" Properties=species:S:1:pos:R:3:forces:R:3 energy=-31.06607437133789 free_energy=-31.06607437133789 stress="0.00011489015014376491 3.281682703359934e-09 -1.7542475250209577e-09 3.281682703359934e-09 0.00011489313328638673 -1.035111218961049e-09 -1.7542475250209577e-09 -1.035111218961049e-09 0.00011488363816170022" pbc="T T T"
Y        2.20047968       1.55597353       3.81134212       0.00000175      -0.00000090      -0.00000090
Y        6.60143776       4.66792235      11.43402639      -0.00000275       0.00000330       0.00000185
Cu       0.00000000       0.00000010      -0.00000014       0.00000062      -0.00000024       0.00000052
I        2.22361921       1.57233577       7.62268426      -0.00375085      -0.00265467       0.00000060
I        6.57829845       4.65155973       7.62268416       0.00375057       0.00265242      -0.00000054
I        5.48962853       1.57233610       5.73705243       0.00187549      -0.00265369      -0.00324780
I        3.31228888       4.65155946       9.50831585      -0.00187515       0.00265263       0.00324796
I        3.31228901       4.65155941       5.73705253      -0.00187550       0.00265382      -0.00324895
I        5.48962873       1.57233599       9.50831589       0.00187584      -0.00265277       0.00324729
