9
Lattice="4.677031765317764 -3.0524669186777555e-08 2.7002856937573974 1.559010616804214 4.40954746864916 2.700285594781354 1.547204757681566e-07 -1.1816570774198392e-08 5.400571119531188" Properties=species:S:1:pos:R:3:forces:R:3 energy=-55.28046798706055 free_energy=-55.28046798706055 stress="0.0005380979273468256 3.1118311483169236e-08 -4.9072284014073375e-08 3.1118311483169236e-08 0.0005382655654102564 -7.3134373224093e-08 -4.9072284014073375e-08 -7.3134373224093e-08 0.0005381704540923238" pbc="T T T"
Y        1.55901113       1.10238675       2.70028565       0.00000401      -0.00000330       0.00000204
Y        4.67703175       3.30716083       8.10085754      -0.00000123       0.00000544       0.00000884
Fe       0.00000007      -0.00000007       0.00000002       0.00000289       0.00000348       0.00000025
F        1.62362049       1.14807255       5.40057101      -0.00491449      -0.00347719      -0.00000246
F        4.61242238       3.26147477       5.40057095       0.00491165       0.00347321      -0.00000372
F        3.86522137       1.14807254       4.10638158       0.00245237      -0.00347267      -0.00425798
F        2.37082079       3.26147501       6.69476051      -0.00245627       0.00347403       0.00425449
F        2.37082124       3.26147537       4.10638235      -0.00245252       0.00347824      -0.00425617
F        3.86522110       1.14807189       6.69476004       0.00245415      -0.00348121       0.00425506
