9
Lattice="5.737845067351474 2.3598917700097508e-07 3.31274635215668 1.9126152005425394 5.409692195307297 3.31274642906091 1.6525988769490414e-07 2.110444151210623e-07 6.625492418074823" Properties=species:S:1:pos:R:3:forces:R:3 energy=-43.350582122802734 free_energy=-43.350582122802734 stress="-7.979760994203389e-05 5.01003114550258e-08 3.4827493666789167e-10 5.01003114550258e-08 -7.975353219080716e-05 3.493501310458669e-08 3.4827493666789167e-10 3.493501310458669e-08 -7.971511513460428e-05" pbc="T T T"
Y        1.91261357       1.35242313       3.31274545      -0.00000838       0.00000208      -0.00000270
Y        5.73784545       4.05726989       9.93823939      -0.00000095       0.00000447       0.00000317
Fe      -0.00000061       0.00000041       0.00000341       0.00002923      -0.00000784      -0.00010631
Cl       1.83036249       1.29426205       6.62549265       0.00610583       0.00431484       0.00000179
Cl       5.82009877       4.11543119       6.62549277      -0.00611956      -0.00433140      -0.00000291
Cl       4.82266479       1.29426067       4.89788543      -0.00306966       0.00434573       0.00532664
Cl       2.82779719       4.11542964       8.35309758       0.00303574      -0.00429413      -0.00525889
Cl       2.82779575       4.11543155       4.89788574       0.00306777      -0.00433619       0.00531380
Cl       4.82266431       1.29426203       8.35309837      -0.00303998       0.00430241      -0.00527467
