9
Lattice="6.623433036520348 1.0260748527876765e-07 3.8240409426783133 2.2078111246694414 6.2446327214902855 3.8240409153868167 -1.4521786760476609e-09 -3.445194805719374e-08 7.648081887871799" Properties=species:S:1:pos:R:3:forces:R:3 energy=-34.549530029296875 free_energy=-34.549530029296875 stress="-9.328417218057439e-05 1.8134677759462647e-08 -2.586502123591572e-09 1.8134677759462647e-08 -9.328280430054292e-05 -7.726579376310383e-10 -2.586502123591572e-09 -7.726579376310383e-10 -9.329283784609288e-05" pbc="T T T"
Y        2.20781050       1.56115699       3.82404143      -0.00000400      -0.00000373       0.00000118
Y        6.62343422       4.68347428      11.47212266       0.00000414      -0.00000187      -0.00000103
Fe       0.00000010       0.00000002       0.00000019      -0.00000089      -0.00000012       0.00000094
I        2.17677846       1.53921571       7.64808200      -0.00042453      -0.00029936      -0.00000084
I        6.65446523       4.70541774       7.64808179       0.00042445       0.00030197       0.00000031
I        5.53504413       1.53921499       5.70918671       0.00021171      -0.00029881      -0.00036605
I        3.29620022       4.70541816       9.58697671      -0.00021157       0.00030045       0.00036477
I        3.29619974       4.70541812       5.70918669      -0.00021148       0.00029942      -0.00036470
I        5.53504406       1.53921515       9.58697684       0.00021215      -0.00029793       0.00036550
