9
Lattice="5.9526656818273365 2.6746950566157588e-08 3.4367730622292316 1.9842218599385042 5.612226743684189 3.436773164803433 -1.1140245831062923e-09 1.2483948123155842e-07 6.873546126387957" Properties=species:S:1:pos:R:3:forces:R:3 energy=-39.71003723144531 free_energy=-39.71003723144531 stress="-9.661392687121406e-05 5.81649111097704e-08 -1.8240962518234483e-08 5.81649111097704e-08 -9.667890844866633e-05 1.1516086750873455e-08 -1.8240962518234483e-08 1.1516086750873455e-08 -9.670300642028451e-05" pbc="T T T"
Y        1.98422018       1.40305717       3.43677216      -0.00000795       0.00000077      -0.00000373
Y        5.95266517       4.20917027      10.31031910      -0.00000024       0.00000042       0.00000005
Fe       0.00000035       0.00000009       0.00000024      -0.00000177      -0.00000899       0.00000482
Br       1.86688933       1.32009021       6.87354630       0.00418877       0.00296093       0.00000364
Br       6.06999865       4.29213682       6.87354588      -0.00418115      -0.00296141       0.00000198
Br       5.01922123       1.32009002       5.05354656      -0.00209227       0.00296224       0.00363244
Br       2.91766688       4.29213653       8.69354605       0.00209678      -0.00296413      -0.00362832
Br       2.91766678       4.29213692       5.05354687       0.00209481      -0.00295853       0.00362721
Br       5.01922161       1.32008953       8.69354631      -0.00209678       0.00296857      -0.00363809
