9
Lattice="6.347420305924085 -1.040764174484052e-07 3.664684831650482 2.1158067176367736 5.984405289778273 3.66468475003699 -1.607543989471466e-08 -1.1132278534084927e-07 7.32936969114446" Properties=species:S:1:pos:R:3:forces:R:3 energy=-34.761417388916016 free_energy=-34.761417388916016 stress="0.0001568979787407443 -4.479598469941948e-09 7.034016702434087e-10 -4.479598469941948e-09 0.00015686995175201446 -1.4827084005020197e-10 7.034016702434087e-10 -1.4827084005020197e-10 0.00015688521671108902" pbc="T T T"
Y        2.11580594       1.49610278       3.66468498      -0.00000302       0.00000730       0.00000056
Y        6.34742148       4.48830467      10.99405429       0.00000639       0.00000292      -0.00000237
Ge       0.00000009       0.00000001       0.00000011      -0.00000022      -0.00000239      -0.00000093
Br       2.18773675       1.54696335       7.32936948      -0.00420773      -0.00297520      -0.00000061
Br       6.27549048       4.43744114       7.32936971       0.00420961       0.00297335       0.00000116
Br       5.25355203       1.54696292       5.55932062       0.00210403      -0.00297722      -0.00364152
Br       3.20967481       4.43744100       9.09941895      -0.00210752       0.00297470       0.00364506
Br       3.20967463       4.43744130       5.55932046      -0.00210741       0.00297345      -0.00364345
Br       5.25355184       1.54696306       9.09941847       0.00210568      -0.00297698       0.00364214
