9
Lattice="5.004009160861895 2.0011219479837524e-06 2.889069617895588 1.6680048552226747 4.717818145670024 2.889069765246283 6.946231631554576e-08 2.2958483197541593e-07 5.778139115478975" Properties=species:S:1:pos:R:3:forces:R:3 energy=-49.06745910644531 free_energy=-49.06745910644531 stress="0.00018965841445606202 -2.256193738503498e-06 2.0758906771334296e-07 -2.256193738503498e-06 0.0002031230687862262 1.3083466399166355e-07 2.0758906771334296e-07 1.3083466399166355e-07 0.00018325907876715064" pbc="T T T"
Y        1.66797585       1.17932339       2.88902848      -0.00032433      -0.00150491      -0.00048835
Y        5.00407872       3.53847879       8.66714733       0.00079048       0.00130874      -0.00066569
Ge       0.00000375      -0.00000012      -0.00000720       0.00000517       0.00000566      -0.00000410
F        1.75228886       1.23900503       5.77816531      -0.00526130      -0.00419664       0.00024438
F        4.91971811       3.47883073       5.77817626       0.00514454       0.00436035       0.00037193
F        4.12787166       1.23896388       4.40663335       0.00271094      -0.00464284      -0.00415704
F        2.54412886       3.47883069       7.14965675      -0.00276786       0.00439528       0.00430879
F        2.54411999       3.47886153       4.40665035      -0.00294957       0.00464535      -0.00401163
F        4.12787078       1.23898818       7.14966397       0.00265130      -0.00437096       0.00440156
