9
Lattice="6.815904208154609 3.360439819777895e-08 3.9351641309397087 2.271968088645729 6.426096203661507 3.9351641524547145 1.960305925513629e-08 4.021183531931016e-08 7.870328227925922" Properties=species:S:1:pos:R:3:forces:R:3 energy=-31.006540298461914 free_energy=-31.006540298461914 stress="0.00015426512982230633 5.734907215781959e-09 -4.4149452982367166e-09 5.734907215781959e-09 0.00015427153266500682 7.231947041219655e-09 -4.4149452982367166e-09 7.231947041219655e-09 0.00015426742902491242" pbc="T T T"
Y        2.27196876       1.60652329       3.93516394       0.00000194      -0.00000165      -0.00000059
Y        6.81590451       4.81957126      11.80549259       0.00000073      -0.00000331       0.00000052
Ge      -0.00000002      -0.00000001      -0.00000007      -0.00000022       0.00000061       0.00000047
I        2.36175584       1.67001398       7.87032824      -0.00109306      -0.00077234       0.00000026
I        6.72611596       4.75608278       7.87032823       0.00109228       0.00077470       0.00000088
I        5.63502623       1.67001421       5.98050458       0.00054605      -0.00077182      -0.00094694
I        3.45284568       4.75608293       9.76015187      -0.00054678       0.00077187       0.00094551
I        3.45284602       4.75608260       5.98050483      -0.00054706       0.00077353      -0.00094700
I        5.63502628       1.67001406       9.76015187       0.00054616      -0.00077159       0.00094682
