9
Lattice="6.090850223277354 -6.518764441579572e-08 3.51655404557123 2.030283294473648 5.742508578850984 3.516554135336409 -7.662366639618044e-08 5.5758289147494196e-08 7.033108223858534" Properties=species:S:1:pos:R:3:forces:R:3 energy=-38.0517692565918 free_energy=-38.0517692565918 stress="-0.00017368880799040198 9.178307003310238e-09 2.673393062480045e-09 9.178307003310238e-09 -0.00017367152031511068 1.0073225809037467e-08 2.673393062480045e-09 1.0073225809037467e-08 -0.0001736660924507305" pbc="T T T"
Y        2.03028419       1.43562734       3.51655296       0.00000445       0.00000220      -0.00000567
Y        6.09085006       4.30688235      10.54966024      -0.00000129       0.00000638      -0.00001162
Ge       0.00000044      -0.00000068       0.00000309      -0.00000303       0.00000320      -0.00001851
Cl       2.08743383       1.47603892       7.03310847      -0.00603950      -0.00427085       0.00000307
Cl       6.03369912       4.26646951       7.03310972       0.00604114       0.00427034       0.00000629
Cl       5.04713291       1.47603764       5.32432545       0.00301710      -0.00427336      -0.00522533
Cl       3.07400132       4.26646848       8.74189101      -0.00302120       0.00427076       0.00523785
Cl       3.07400013       4.26647045       5.32432479      -0.00301820       0.00426784      -0.00522518
Cl       5.04713167       1.47604030       8.74188982       0.00302038      -0.00427639       0.00523916
