9
Lattice="6.844508105954836 -4.747621138623684e-08 3.951678640078841 2.2815026689493063 6.453064080650933 3.9516786197699036 2.603481740888746e-08 -6.463865111550064e-09 7.903357235064058" Properties=species:S:1:pos:R:3:forces:R:3 energy=-26.236665725708008 free_energy=-26.236665725708008 stress="4.570040255202912e-05 -2.8897244597203553e-09 1.286373896292048e-09 -2.8897244597203553e-09 4.571478712023236e-05 -8.047872590566385e-09 1.286373896292048e-09 -8.047872590566385e-09 4.57171154266689e-05" pbc="T T T"
Y        2.28150263       1.61326558       3.95167867       0.00000013      -0.00000175       0.00000043
Y        6.84450791       4.83979856      11.85503607      -0.00000047       0.00000190       0.00000076
Hg      -0.00000012      -0.00000017      -0.00000017      -0.00000000       0.00000061       0.00000065
I        2.39413203       1.69290667       7.90335720       0.00037409       0.00026359       0.00000034
I        6.73187872       4.76015741       7.90335720      -0.00037493      -0.00026307       0.00000031
I        5.64744229       1.69290683       6.02505778      -0.00018700       0.00026403       0.00032242
I        3.47856866       4.76015736       9.78165691       0.00018829      -0.00026561      -0.00032455
I        3.47856881       4.76015726       6.02505764       0.00018664      -0.00026344       0.00032353
I        5.64744227       1.69290657       9.78165671      -0.00018676       0.00026379      -0.00032378
