9
Lattice="4.9331395688190405 -3.316754749703675e-08 2.8481490521389157 1.6443797904320667 4.651008715344384 2.8481491120164018 1.923165991107837e-08 8.69334815021196e-08 5.696298070967621" Properties=species:S:1:pos:R:3:forces:R:3 energy=-43.83595657348633 free_energy=-43.83595657348633 stress="1.0046169336419553e-06 1.7004620644911483e-07 -4.1408959816635615e-08 1.7004620644911483e-07 6.40224016024149e-07 -2.538028276433124e-08 -4.1408959816635615e-08 -2.538028276433124e-08 1.1794763850048184e-06" pbc="T T T"
Y        1.64438165       1.16275770       2.84814841       0.00002175       0.00006098      -0.00001023
Y        4.93313741       3.48825577       8.54444691      -0.00002374      -0.00000281      -0.00000573
Hg       0.00000008       0.00000132      -0.00000146       0.00000073       0.00000278      -0.00000712
F        1.79030286       1.26593510       5.69629994      -0.00051886      -0.00037020       0.00001274
F        4.78721877       3.38507145       5.69629821       0.00053906       0.00034788       0.00000066
F        4.03798661       1.26593512       4.39859504       0.00024769      -0.00036329      -0.00046211
F        2.53953246       3.38507061       6.99400288      -0.00025323       0.00034028       0.00048298
F        2.53953013       3.38507219       4.39859493      -0.00026551       0.00034872      -0.00047034
F        4.03798747       1.26593540       6.99400014       0.00025237      -0.00036412       0.00045878
