9
Lattice="6.38411251202701 -6.909983242197624e-09 3.6858690838992083 2.128037479040824 6.0189990809765925 3.685869115861382 -1.1368879903975063e-07 -4.124457343363603e-08 7.371738364713185" Properties=species:S:1:pos:R:3:forces:R:3 energy=-30.04712677001953 free_energy=-30.04712677001953 stress="6.798930553486571e-05 4.7812704906391446e-09 1.9497194969630982e-08 4.7812704906391446e-09 6.798860704293475e-05 1.1473074934542637e-08 1.9497194969630982e-08 1.1473074934542637e-08 6.79736549500376e-05" pbc="T T T"
Y        2.12803764       1.50474943       3.68586937       0.00000149      -0.00000206       0.00000090
Y        6.38411257       4.51424996      11.05760618       0.00000117       0.00000388      -0.00000812
Hg      -0.00000017      -0.00000010      -0.00000002       0.00000086       0.00000141      -0.00000280
Br       2.24437966       1.58701600       7.37173848       0.00036103       0.00025459      -0.00000102
Br       6.26777029       4.43198317       7.37173889      -0.00036278      -0.00025608       0.00000356
Br       5.26192243       1.58701542       5.62955911      -0.00018327       0.00025415       0.00031558
Br       3.25022747       4.43198305       9.11391757       0.00018200      -0.00025374      -0.00031194
Br       3.25022701       4.43198309       5.62955898       0.00017989      -0.00025674       0.00031473
Br       5.26192255       1.58701603       9.11391773      -0.00018043       0.00025460      -0.00031099
