9
Lattice="6.107432604596561 3.3327618747853545e-08 3.5261279079359715 2.035810916646191 5.758142331089402 3.5261278784464922 1.938240154309575e-07 1.009372147997793e-07 7.052255480158883" Properties=species:S:1:pos:R:3:forces:R:3 energy=-33.4689826965332 free_energy=-33.4689826965332 stress="6.842781294835731e-05 -1.2715241304306346e-08 1.5181532420083244e-10 -1.2715241304306346e-08 6.842338916612789e-05 -1.0082716883630383e-08 1.5181532420083244e-10 -1.0082716883630383e-08 6.83834296069108e-05" pbc="T T T"
Y        2.03581037       1.43953553       3.52612789      -0.00000060       0.00000050       0.00000002
Y        6.10743420       4.31860799      10.57838372       0.00000827       0.00000602       0.00000134
Hg       0.00000041       0.00000014       0.00000011      -0.00000043       0.00000181       0.00000166
Cl       2.13914748       1.51260513       7.05225561       0.00082296       0.00058159       0.00000022
Cl       6.00409613       4.24553737       7.05225551      -0.00082302      -0.00058036       0.00000042
Cl       5.03785889       1.51260569       5.37868406      -0.00041050       0.00057872       0.00071308
Cl       3.10538414       4.24553680       8.72582744       0.00040777      -0.00058334      -0.00071590
Cl       3.10538415       4.24553622       5.37868358       0.00040770      -0.00058372       0.00071436
Cl       5.03785908       1.51260494       8.72582720      -0.00041220       0.00057876      -0.00071505
