9
Lattice="6.116957539549068 -1.646424436014895e-07 3.5316271572550417 2.038985726750517 5.767123199027203 3.5316270958355265 -3.8344447151622977e-08 -1.0233678831922484e-07 7.06325438092461" Properties=species:S:1:pos:R:3:forces:R:3 energy=-37.24751281738281 free_energy=-37.24751281738281 stress="-0.00023805983073543757 9.56196122281483e-10 -1.9891368552293898e-09 9.56196122281483e-10 -0.0002380949299549684 -1.1227193397189694e-08 -1.9891368552293898e-09 -1.1227193397189694e-08 -0.00023808519472368062" pbc="T T T"
Y        2.03898703       1.44178210       3.53162710       0.00000506       0.00000509       0.00000111
Y        6.11695669       4.32534213      10.59488049      -0.00000412      -0.00000077      -0.00000693
In       0.00000004       0.00000009       0.00000014      -0.00000070      -0.00000050      -0.00000162
Cl       2.06821767       1.46245016       7.06325392       0.00509098       0.00359696      -0.00000096
Cl       6.08772525       4.30467217       7.06325502      -0.00508681      -0.00359842       0.00000295
Cl       5.08284841       1.46245042       5.32275582      -0.00254697       0.00359839       0.00440666
Cl       3.07309514       4.30467178       8.80375278       0.00254564      -0.00360066      -0.00440243
Cl       3.07309413       4.30467203       5.32275643       0.00254241      -0.00360000       0.00440565
Cl       5.08284849       1.46245095       8.80375272      -0.00254560       0.00359985      -0.00440440
