9
Lattice="4.740977191086983 -6.536186077688915e-08 2.7372045995422933 1.5803257008215628 4.469836390897031 2.7372045439729455 -8.184642026340968e-08 -1.2593244675833208e-07 5.474409340846701" Properties=species:S:1:pos:R:3:forces:R:3 energy=-53.868595123291016 free_energy=-53.868595123291016 stress="0.000264464266365394 -2.0220559449057873e-08 -7.804436563674244e-08 -2.0220559449057873e-08 0.0002644271880853921 -4.901247407929077e-08 -7.804436563674244e-08 -4.901247407929077e-08 0.00026453801547177136" pbc="T T T"
Y        1.58032618       1.11746179       2.73720403       0.00000501       0.00001874       0.00000222
Y        4.74097721       3.35237850       8.21161592       0.00000107       0.00001807       0.00000934
Mg       0.00000022       0.00000070       0.00000031      -0.00000016       0.00000394      -0.00000223
F        1.57479727       1.11354788       5.47440969       0.00354809       0.00250003       0.00000236
F        4.74650651       3.35628685       5.47440917      -0.00354165      -0.00251344      -0.00000722
F        3.95357814       1.11354914       4.10101818      -0.00177488       0.00250617       0.00306809
F        2.36772322       3.35628601       6.84780010       0.00176525      -0.00251493      -0.00306463
F        2.36772345       3.35628619       4.10101796       0.00177139      -0.00251505       0.00306463
F        3.95357898       1.11354790       6.84779865      -0.00177449       0.00249651      -0.00307244
