9
Lattice="6.728554305661963 1.8242497649199203e-08 3.8847326589040923 2.242851448107204 6.3437418216560415 3.8847326663738007 1.5414288719209767e-08 2.0048033700237438e-08 7.769465291109847" Properties=species:S:1:pos:R:3:forces:R:3 energy=-30.386760711669922 free_energy=-30.386760711669922 stress="0.00020320105249993503 1.4635873846202685e-08 -7.200370299997871e-10 1.4635873846202685e-08 0.00020319836039561778 -2.0810309031560337e-09 -7.200370299997871e-10 -2.0810309031560337e-09 0.00020319198665674776" pbc="T T T"
Y        2.24285098       1.58593598       3.88473265      -0.00000197       0.00000155       0.00000012
Y        6.72855456       4.75780648      11.65419835       0.00000226      -0.00000065       0.00000238
Mg       0.00000017       0.00000014       0.00000004      -0.00000231      -0.00000167       0.00000128
I        2.28594454       1.61640669       7.76946525      -0.00207446      -0.00146680      -0.00000054
I        6.68546096       4.72733470       7.76946507       0.00207932       0.00146869      -0.00000121
I        5.58558221       1.61640692       5.86441872       0.00103692      -0.00146739      -0.00179721
I        3.38582359       4.72733489       9.67451180      -0.00103868       0.00146662       0.00179689
I        3.38582380       4.72733482       5.86441890      -0.00103878       0.00146697      -0.00179791
I        5.58558227       1.61640681       9.67451171       0.00103780      -0.00146727       0.00179617
