9
Lattice="5.989584973400664 -5.208643399225081e-08 3.4580884987496625 1.9965282987781576 5.647034882052184 3.4580884581870874 7.104429237346087e-08 5.570861893899827e-10 6.916176874447015" Properties=species:S:1:pos:R:3:forces:R:3 energy=-41.17555618286133 free_energy=-41.17555618286133 stress="0.0003124331415165216 -1.493482670866797e-08 1.3101403295578962e-09 -1.493482670866797e-08 0.0003124138165730983 -3.00792919460946e-08 1.3101403295578962e-09 -3.00792919460946e-08 0.0003123912028968334" pbc="T T T"
Y        1.99652797       1.41175875       3.45808888      -0.00000076       0.00000003       0.00000207
Y        5.98958517       4.23527683      10.37426485       0.00000199       0.00000217      -0.00000189
Mn      -0.00000020      -0.00000020       0.00000024       0.00000566       0.00000038      -0.00000421
Br       1.92275191       1.35959083       6.91617681       0.00421992       0.00298371      -0.00000027
Br       6.06336182       4.28744393       6.91617701      -0.00422446      -0.00298867       0.00000052
Br       5.02820897       1.35959064       5.12324033      -0.00211180       0.00298655       0.00365979
Br       2.95790446       4.28744400       8.70911345       0.00210968      -0.00298344      -0.00365496
Br       2.95790425       4.28744382       5.12324037       0.00210989      -0.00298539       0.00365536
Br       5.02820905       1.35959075       8.70911338      -0.00211004       0.00298489      -0.00365651
