9
Lattice="5.782725649246451 -3.825008630586818e-08 3.3386584639305763 1.927575219923315 5.452006027840073 3.33865839539263 2.0702228830073063e-07 6.244539856374389e-08 6.6773165692879095" Properties=species:S:1:pos:R:3:forces:R:3 energy=-45.177764892578125 free_energy=-45.177764892578125 stress="0.00021689242566935718 4.757926941323376e-09 2.7990769702057605e-09 4.757926941323376e-09 0.00021684152306988835 -2.5393710245680268e-08 2.7990769702057605e-09 -2.5393710245680268e-08 0.00021685275714844465" pbc="T T T"
Y        1.92757577       1.36300156       3.33865933       0.00000233      -0.00000186       0.00000795
Y        5.78272700       4.08900340      10.01597486       0.00000869      -0.00000374      -0.00000079
Mn      -0.00000007       0.00000009      -0.00000014      -0.00000016       0.00000496      -0.00000206
Cl       1.90089698       1.34413705       6.67731603      -0.00079972      -0.00056128      -0.00000333
Cl       5.80940383       4.10786978       6.67731694       0.00079381       0.00056285       0.00000009
Cl       4.83227724       1.34413677       4.98488344       0.00039785      -0.00056161      -0.00069161
Cl       2.87802339       4.10786971       8.36975002      -0.00040150       0.00056264       0.00068754
Cl       2.87802292       4.10786939       4.98488315      -0.00040017       0.00056018      -0.00068782
Cl       4.83227720       1.34413650       8.36975002       0.00039911      -0.00056194       0.00069007
