9
Lattice="6.888509357930198 -7.619801923116156e-08 3.9770827827042394 2.296169735100631 6.494549032581889 3.977082746393334 4.243681155876604e-09 -4.147086108928471e-08 7.954165558058196" Properties=species:S:1:pos:R:3:forces:R:3 energy=-35.73703384399414 free_energy=-35.73703384399414 stress="6.032888632034883e-05 -7.702777971019259e-09 1.531160087608896e-08 -7.702777971019259e-09 6.032894452800974e-05 -2.0354992358306845e-08 1.531160087608896e-08 -2.0354992358306845e-08 6.0336147726047784e-05" pbc="T T T"
Y        2.29616990       1.62363758       3.97708249       0.00000013       0.00000216      -0.00000172
Y        6.88850880       4.87091177      11.93124827      -0.00000112       0.00000005       0.00000142
Nb      -0.00000000      -0.00000006       0.00000034      -0.00000057       0.00000226      -0.00000065
I        2.32294254       1.64256844       7.95416556       0.00064534       0.00045635       0.00000005
I        6.86173665       4.85198028       7.95416554      -0.00064564      -0.00045760      -0.00000003
I        5.72703814       1.64256832       5.98881024      -0.00032373       0.00045761       0.00055891
I        3.45764124       4.85198042       9.91952109       0.00032401      -0.00045905      -0.00055966
I        3.45764119       4.85198055       5.98881002       0.00032476      -0.00045787       0.00056091
I        5.72703794       1.64256836       9.91952085      -0.00032327       0.00045617      -0.00055909
