9
Lattice="5.1046742015236095 -7.846962831452731e-07 2.9471867256579696 1.7015564827629543 4.812725828901963 2.9471881885372406 -3.2296913661781996e-06 -4.920829774952876e-07 5.894379045306387" Properties=species:S:1:pos:R:3:forces:R:3 energy=-55.981658935546875 free_energy=-55.981658935546875 stress="2.0761974155902863e-05 2.5226694333468913e-07 1.067884340955061e-06 2.5226694333468913e-07 3.444372123340145e-05 7.480113595192961e-07 1.067884340955061e-06 7.480113595192961e-07 2.1575977370957844e-05" pbc="T T T"
Y        1.70160469       1.20313729       2.94722716       0.00039154      -0.00047091       0.00032825
Y        5.10470619       3.60960542       8.84158636       0.00028930       0.00062253       0.00015351
Nb       0.00001327       0.00000512       0.00000828      -0.00004380      -0.00003102      -0.00002004
F        1.75173571       1.23861006       5.89436372       0.00021231      -0.00020397      -0.00017046
F        5.05449061       3.57412725       5.89437459      -0.00013077       0.00042099      -0.00005141
F        4.22875791       1.23859918       4.46422069      -0.00040117      -0.00034177       0.00000918
F        2.57741081       3.57413709       7.32449189      -0.00006920       0.00037730      -0.00024378
F        2.57740856       3.57409436       4.46423412      -0.00004917       0.00009435       0.00012124
F        4.22878240       1.23858083       7.32451003      -0.00019827      -0.00046808      -0.00012672
