9
Lattice="5.768522493673288 1.4270098957596394e-07 3.3304578969428418 1.9228408903785297 5.438615253406155 3.3304580275146325 -1.373768742749656e-07 6.27770539478451e-08 6.6609160318294" Properties=species:S:1:pos:R:3:forces:R:3 energy=-40.68014144897461 free_energy=-40.68014144897461 stress="5.481379776028916e-05 1.9865847633582234e-08 -1.5173689860148443e-08 1.9865847633582234e-08 5.4806678235763684e-05 -2.3450557051774013e-08 -1.5173689860148443e-08 -2.3450557051774013e-08 5.4828331485623494e-05" pbc="T T T"
Y        1.92283987       1.35965353       3.33045900      -0.00000689      -0.00000229       0.00000375
Y        5.76852199       4.07896066       9.99137453      -0.00000207      -0.00000360       0.00000369
Ni       0.00000002       0.00000045       0.00000083       0.00000084      -0.00000221      -0.00001282
Cl       1.90154792       1.34459758       6.66091563       0.00043233       0.00030712      -0.00000334
Cl       5.78981566       4.09401798       6.66091588      -0.00043083      -0.00030624      -0.00000247
Cl       4.81774908       1.34459759       4.97724658      -0.00021731       0.00031270       0.00037778
Cl       2.87361510       4.09401787       8.34458437       0.00021286      -0.00029805      -0.00037185
Cl       2.87361496       4.09401778       4.97724650       0.00022024      -0.00030945       0.00037597
Cl       4.81774837       1.34459839       8.34458454      -0.00020909       0.00030199      -0.00037073
