9
Lattice="6.582001032150867 -4.175787895286066e-09 3.8001200438238674 2.1940003350042803 6.205570163417983 3.800120052672928 -6.009567697711141e-09 6.5884317832556686e-09 7.600240098056595" Properties=species:S:1:pos:R:3:forces:R:3 energy=-32.729217529296875 free_energy=-32.729217529296875 stress="0.00017292659322265536 -1.843677877033656e-09 2.9175657445534853e-09 -1.843677877033656e-09 0.00017292019037995487 4.875184700381396e-10 2.9175657445534853e-09 4.875184700381396e-10 0.00017292582197114825" pbc="T T T"
Y        2.19400029       1.55139257       3.80012011      -0.00000011      -0.00000038       0.00000116
Y        6.58200085       4.65417803      11.40035988      -0.00000107       0.00000143      -0.00000065
Ni      -0.00000007       0.00000013      -0.00000035       0.00000034      -0.00000039       0.00000069
I        2.17577629       1.53850591       7.60023999      -0.00809135      -0.00572221       0.00000062
I        6.60022500       4.66706409       7.60024020       0.00809198       0.00572145       0.00000031
I        5.49411278       1.53850609       5.68439743       0.00404674      -0.00572208      -0.00700735
I        3.28188859       4.66706407       9.51608278      -0.00404598       0.00572097       0.00700817
I        3.28188858       4.66706391       5.68439775      -0.00404663       0.00572240      -0.00700927
I        5.49411316       1.53850587       9.51608299       0.00404601      -0.00572124       0.00700641
