9
Lattice="4.657461894361068 -1.0447306381703002e-07 2.6889871224050355 1.5524872627119752 4.3910967751416745 2.688987013130367 1.2167274635435977e-07 -4.7797993989188154e-08 5.377974034066745" Properties=species:S:1:pos:R:3:forces:R:3 energy=-52.167945861816406 free_energy=-52.167945861816406 stress="2.2581649318453856e-05 -5.421184567921955e-08 1.1864545790274406e-08 -5.421184567921955e-08 2.267793934151996e-05 -2.2232679697253843e-08 1.1864545790274406e-08 -2.2232679697253843e-08 2.2468992028734647e-05" pbc="T T T"
Y        1.55248625       1.09777382       2.68898736      -0.00001062      -0.00000642       0.00000114
Y        4.65746266       3.29332361       8.06696046       0.00000646       0.00001400      -0.00000557
Ni       0.00000036       0.00000006       0.00000055      -0.00001195       0.00000402      -0.00001124
F        1.57902270       1.11653662       5.37797424       0.00127718       0.00089672      -0.00000182
F        4.63092718       3.27455963       5.37797443      -0.00127131      -0.00089908       0.00000400
F        3.86795109       1.11653607       4.05646108      -0.00063452       0.00089616       0.00111109
F        2.34199761       3.27456014       6.69948722       0.00063610      -0.00089690      -0.00110808
F        2.34199796       3.27455993       4.05646025       0.00063807      -0.00090379       0.00111052
F        3.86795124       1.11653686       6.69948708      -0.00062916       0.00089514      -0.00110039
