9
Lattice="6.070161486520605 3.356083619696482e-08 3.5046093048140867 2.023387186328642 5.7230030218666945 3.5046093177808824 -3.4927664537127235e-08 -8.816629496085278e-09 7.0092186701247945" Properties=species:S:1:pos:R:3:forces:R:3 energy=-37.04735565185547 free_energy=-37.04735565185547 stress="0.00023038881772663444 1.3870159243367652e-08 1.1554035950211983e-08 1.3870159243367652e-08 0.00023038568906486034 5.808378222837973e-10 1.1554035950211983e-08 5.808378222837973e-10 0.00023038842482492328" pbc="T T T"
Y        2.02338689       1.43075093       3.50460932      -0.00000141       0.00000190      -0.00000096
Y        6.07016179       4.29225234      10.51382911       0.00000093       0.00000088       0.00000662
Ni       0.00000009      -0.00000019       0.00000039      -0.00000205       0.00000048      -0.00000412
Br       2.00264586       1.41608488       7.00921860      -0.00342113      -0.00241892      -0.00000041
Br       6.09090247       4.30691822       7.00921832       0.00342353       0.00242033      -0.00000260
Br       5.06883853       1.41608472       5.23895153       0.00171080      -0.00241911      -0.00296353
Br       3.02471017       4.30691825       8.77948530      -0.00171251       0.00241898       0.00296281
Br       3.02471054       4.30691836       5.23895149      -0.00170988       0.00241889      -0.00296275
Br       5.06883824       1.41608467       8.77948507       0.00171172      -0.00242345       0.00296489
