9
Lattice="6.134363990282337 8.285928252174436e-09 3.5416766384887874 2.0447879975371697 5.783533824539585 3.541676650674905 1.1486078608845136e-08 2.304678751332815e-08 7.0833532570831395" Properties=species:S:1:pos:R:3:forces:R:3 energy=-36.775611877441406 free_energy=-36.775611877441406 stress="0.00021444974117912352 5.220209597922576e-09 -5.1593960215257084e-09 5.220209597922576e-09 0.00021447334438562393 -4.887524274188593e-10 -5.1593960215257084e-09 -4.887524274188593e-10 0.00021446279424708337" pbc="T T T"
Y        2.04478771       1.44588347       3.54167679      -0.00000153       0.00000162       0.00000091
Y        6.13436430       4.33764977      10.62502994       0.00000137      -0.00000329      -0.00000137
Pd       0.00000012      -0.00000014      -0.00000011       0.00000086       0.00000304      -0.00000056
Br       2.03539656       1.43924283       7.08335311      -0.00039677      -0.00027885      -0.00000008
Br       6.14375576       4.34429139       7.08335336       0.00039290       0.00027759       0.00000087
Br       5.11666572       1.43924277       5.30438175       0.00019924      -0.00027930      -0.00034279
Br       3.06248601       4.34429141       8.86232493      -0.00019782       0.00027948       0.00034074
Br       3.06248605       4.34429114       5.30438156      -0.00019702       0.00027823      -0.00034069
Br       5.11666577       1.43924283       8.86232485       0.00019871      -0.00027855       0.00034315
