9
Lattice="4.707061770427029 -3.822863100188069e-08 2.7176233547601956 1.5690205467137228 4.437860483533885 2.7176233675536605 -2.8089972700348284e-08 -4.1938759150949455e-09 5.435246758173627" Properties=species:S:1:pos:R:3:forces:R:3 energy=-51.19657516479492 free_energy=-51.19657516479492 stress="-0.0002813151222653687 -3.512503354841101e-08 2.471731441744396e-08 -3.512503354841101e-08 -0.00028132402803748846 6.6220722239052066e-09 2.471731441744396e-08 6.6220722239052066e-09 -0.00028121998184360564" pbc="T T T"
Y        1.56902044       1.10946564       2.71762305      -0.00000220       0.00000635      -0.00000236
Y        4.70706145       3.32839519       8.15286952      -0.00000461       0.00000045      -0.00000788
Pd      -0.00000015       0.00000022       0.00000018       0.00000337       0.00000477       0.00000058
F        1.68176541       1.18918770       5.43524678       0.00182857       0.00129259       0.00000143
F        4.59431728       3.24867230       5.43524707      -0.00182986      -0.00130096       0.00000421
F        3.86617875       1.18918766       4.17407517      -0.00091662       0.00129277       0.00158481
F        2.40990333       3.24867239       6.69641894       0.00091697      -0.00129557      -0.00158080
F        2.40990360       3.24867277       4.17407488       0.00091654      -0.00129530       0.00158307
F        3.86617908       1.18918786       6.69641843      -0.00091238       0.00129500      -0.00158335
