9
Lattice="6.646706358173963 3.977391604076681e-08 3.8374776324208906 2.21556882079043 6.266574831402016 3.837477637213055 -3.1219813628102275e-08 -1.6206559009967003e-08 7.6749553189160995" Properties=species:S:1:pos:R:3:forces:R:3 energy=-32.68619155883789 free_energy=-32.68619155883789 stress="5.008396692574024e-05 7.4427575214031094e-09 -1.6392023294287128e-09 7.4427575214031094e-09 5.0091857701772824e-05 -2.9063196294032423e-09 -1.6392023294287128e-09 -2.9063196294032423e-09 5.008715015719645e-05" pbc="T T T"
Y        2.21556864       1.56664309       3.83747781      -0.00000091      -0.00000107       0.00000075
Y        6.64670641       4.69993181      11.51243239       0.00000135       0.00000211      -0.00000433
Pd      -0.00000006       0.00000007      -0.00000000       0.00000029      -0.00000060      -0.00000015
I        2.21942163       1.56936780       7.67495535      -0.00020407      -0.00014497      -0.00000038
I        6.64285371       4.69720711       7.67495559       0.00020359       0.00014397       0.00000045
I        5.53699569       1.56936749       5.75955297       0.00010127      -0.00014469      -0.00017476
I        3.32527961       4.69720712       9.59035770      -0.00010164       0.00014583       0.00017732
I        3.32527928       4.69720717       5.75955290      -0.00010251       0.00014373      -0.00017571
I        5.53699569       1.56936778       9.59035763       0.00010256      -0.00014429       0.00017684
