9
Lattice="5.879231090238425 -2.2667483519877904e-07 3.394375521700246 1.9597435841124768 5.542991768829358 3.394375346629021 6.413841340174461e-08 -1.6906485797862007e-07 6.7887509323094655" Properties=species:S:1:pos:R:3:forces:R:3 energy=-39.73867416381836 free_energy=-39.73867416381836 stress="7.489921699743718e-05 2.1035178043860014e-09 1.3498276274503951e-08 2.1035178043860014e-09 7.485763489967212e-05 8.965376885328169e-09 1.3498276274503951e-08 8.965376885328169e-09 7.491353608202189e-05" pbc="T T T"
Y        1.95974268       1.38574815       3.39437335      -0.00000857       0.00000082      -0.00001453
Y        5.87922982       4.15724566      10.18313025      -0.00000712       0.00001692       0.00002983
Pd       0.00000010      -0.00000021      -0.00000019       0.00000284      -0.00000381       0.00000375
Cl       1.96793608       1.39154007       6.78875143       0.00082353       0.00057589       0.00000625
Cl       5.87103921       4.15145070       6.78874912      -0.00081882      -0.00058399      -0.00000988
Cl       4.89526346       1.39154019       5.09865779      -0.00040546       0.00057904       0.00071003
Cl       2.94371155       4.15145098       8.47884430       0.00041139      -0.00058439      -0.00071159
Cl       2.94371261       4.15145108       5.09865754       0.00041488      -0.00057510       0.00070423
Cl       4.89526349       1.39153884       8.47884359      -0.00041261       0.00057462      -0.00071821
