9
Lattice="6.031183354347244 -1.24750195909923e-07 3.482105033681349 2.0103943732792007 5.6862537114550635 3.4821049653592944 -7.131677153652219e-08 -1.341056208085091e-07 6.964210190887017" Properties=species:S:1:pos:R:3:forces:R:3 energy=-39.270912170410156 free_energy=-39.270912170410156 stress="0.00011724763317033648 -2.434159895869925e-08 1.24346577479173e-08 -2.434159895869925e-08 0.00011721522605512291 -1.6845376649143873e-08 1.24346577479173e-08 -1.6845376649143873e-08 0.00011724032810889184" pbc="T T T"
Y        2.01039902       1.42156362       3.48210458       0.00002589       0.00000080      -0.00000357
Y        6.03118125       4.26469143      10.44631308      -0.00001066       0.00000846      -0.00001197
Pt      -0.00000018      -0.00000040      -0.00000000       0.00000030       0.00000884       0.00000805
Cl       1.98492096       1.40355014       6.96421074       0.00138301       0.00097296       0.00000194
Cl       6.05665639       4.28270314       6.96421034      -0.00138903      -0.00097668       0.00000428
Cl       5.03872147       1.40355040       5.20109687      -0.00069839       0.00097245       0.00119296
Cl       3.00285524       4.28270249       8.72732437       0.00069752      -0.00098416      -0.00119650
Cl       3.00285478       4.28270184       5.20109739       0.00068936      -0.00097916       0.00119475
Cl       5.03872167       1.40355095       8.72732340      -0.00069788       0.00097638      -0.00119042
