9
Lattice="4.7302884355107935 -8.094715305788343e-08 2.73103265420403 1.5767626791034892 4.459759914952837 2.731032751918966 -4.5360535880244857e-07 -2.010715171209874e-07 5.462066094075395" Properties=species:S:1:pos:R:3:forces:R:3 energy=-48.19118881225586 free_energy=-48.19118881225586 stress="0.000448637583758682 -4.6489736860166886e-07 1.0230879752270994e-06 -4.6489736860166886e-07 0.00044520775554701686 7.328764013436739e-07 1.0230879752270994e-06 7.328764013436739e-07 0.00044758094009011984" pbc="T T T"
Y        1.57674425       1.11496069       2.73103203      -0.00026561       0.00031273      -0.00000441
Y        4.73028689       3.34481436       8.19307580      -0.00001706      -0.00009205      -0.00033068
Pt       0.00000190      -0.00000182       0.00000236       0.00002595      -0.00001380       0.00002818
F        1.63884103       1.15884244       5.46206290       0.00277275       0.00204362      -0.00003353
F        4.66821552       3.30090881       5.46207878      -0.00268376      -0.00215062       0.00016815
F        3.91087182       1.15883913       4.15031682      -0.00132553       0.00197211       0.00248265
F        2.39618766       3.30091541       6.77382379       0.00143647      -0.00205603      -0.00235260
F        2.39617783       3.30091331       4.15031545       0.00130323      -0.00208749       0.00244756
F        3.91087611       1.15884611       6.77381804      -0.00124709       0.00207096      -0.00240551
