9
Lattice="6.307638099890584 1.315571290131106e-07 3.6417165627927632 2.102546103044887 5.946898412135097 3.6417166568175197 -2.1032842564209013e-08 1.0028389132176111e-07 7.283433162015457" Properties=species:S:1:pos:R:3:forces:R:3 energy=-40.224124908447266 free_energy=-40.224124908447266 stress="0.00018434970115777105 4.15348857529807e-08 -2.549944255747505e-08 4.15348857529807e-08 0.0001843410573201254 5.282275239437695e-08 -2.549944255747505e-08 5.282275239437695e-08 0.00018427619943395257" pbc="T T T"
Y        2.10254610       1.48672445       3.64171627       0.00000148      -0.00000244      -0.00000056
Y        6.30763827       4.46017392      10.92514920       0.00000088      -0.00000025      -0.00000299
Sc      -0.00000009       0.00000116      -0.00000045      -0.00000023      -0.00001971       0.00000761
Br       2.11174779       1.49323148       7.28343311       0.00102425       0.00072497       0.00000169
Br       6.29843581       4.45366726       7.28343353      -0.00101471      -0.00071880       0.00000136
Br       5.25176406       1.49323125       5.47054376      -0.00050992       0.00072220       0.00088656
Br       3.15842011       4.45366717       9.09632221       0.00050944      -0.00071925      -0.00087994
Br       3.15841988       4.45366734       5.47054416       0.00050798      -0.00071862       0.00088215
Br       5.25176481       1.49323058       9.09632373      -0.00051907       0.00073153      -0.00089598
