9
Lattice="6.094540160626307 -2.403409080355945e-07 3.518685945264888 2.031512900510256 5.745989595252734 3.518686395199146 2.6548633087603594e-07 7.387817385767614e-07 7.037371430693906" Properties=species:S:1:pos:R:3:forces:R:3 energy=-34.80606460571289 free_energy=-34.80606460571289 stress="0.0001174855133285746 1.7160668619453645e-07 -9.182357274539754e-08 1.7160668619453645e-07 0.00011706883378792554 -6.307347177880729e-08 -9.182357274539754e-08 -6.307347177880729e-08 0.00011724208161467686" pbc="T T T"
Y        2.03150785       1.43650178       3.51868029      -0.00003925       0.00002807      -0.00003381
Y        6.09453202       4.30948361      10.55606249      -0.00005079      -0.00006094       0.00003231
S        0.00000097       0.00000041       0.00000023       0.00000681       0.00000107       0.00000909
Cl       2.12686920       1.50392692       7.03737167      -0.00249052      -0.00175047       0.00001189
Cl       5.99918580       4.24206191       7.03736827       0.00250638       0.00174868      -0.00001402
Cl       5.03110821       1.50393058       5.36061364       0.00127357      -0.00173777      -0.00215828
Cl       3.09495125       4.24206240       8.71413303      -0.00123167       0.00174671       0.00215942
Cl       3.09495279       4.24206261       5.36061268      -0.00122395       0.00176448      -0.00216627
Cl       5.03110480       1.50392999       8.71413327       0.00124946      -0.00173938       0.00215960
