9
Lattice="6.844444840069235 6.0748768781533e-08 3.951642116699044 2.28148168218321 6.453004491494561 3.951642096689836 5.6140452787473935e-08 1.519112963002177e-08 7.903284136159966" Properties=species:S:1:pos:R:3:forces:R:3 energy=-35.52908706665039 free_energy=-35.52908706665039 stress="8.710231486475095e-05 -1.6537143876504956e-10 8.717316646311701e-09 -1.6537143876504956e-10 8.710769179742783e-05 -1.502978541623179e-08 8.717316646311701e-09 -1.502978541623179e-08 8.712175622349605e-05" pbc="T T T"
Y        2.28148155       1.61325115       3.95164283       0.00000112      -0.00000109       0.00000347
Y        6.84444503       4.83975308      11.85492573      -0.00000147       0.00000120      -0.00000104
Sc       0.00000007       0.00000014       0.00000031      -0.00000017       0.00000043      -0.00000279
I        2.31310957       1.63561553       7.90328420       0.00085872       0.00060867      -0.00000194
I        6.81281690       4.81738901       7.90328426      -0.00085858      -0.00060868      -0.00000072
I        5.68788986       1.63561543       5.95485359      -0.00043179       0.00060955       0.00074536
I        3.43803674       4.81738896       9.85171438       0.00042926      -0.00060667      -0.00074425
I        3.43803634       4.81738906       5.95485367       0.00043088      -0.00061047       0.00074556
I        5.68789025       1.63561589       9.85171440      -0.00042792       0.00060712      -0.00074375
