9
Lattice="6.086815552659317 -3.5932327522095965e-07 3.514224539526501 2.028938410059889 5.73870405378339 3.5142241389377697 8.099173435335548e-08 -4.3334913396522065e-07 7.028448938771274" Properties=species:S:1:pos:R:3:forces:R:3 energy=-44.16557693481445 free_energy=-44.16557693481445 stress="-3.8401711208280176e-05 -4.617296411879579e-08 6.54899334762149e-09 -4.617296411879579e-08 -3.8379497709684074e-05 -1.68038276626703e-08 6.54899334762149e-09 -1.68038276626703e-08 -3.8276783016044647e-05" pbc="T T T"
Y        2.02894097       1.43467317       3.51422690       0.00000810      -0.00001070       0.00001104
Y        6.08681490       4.30403204      10.54266814      -0.00000165       0.00001998      -0.00002439
Sc       0.00000020      -0.00000103       0.00000205      -0.00000047       0.00001069      -0.00002644
Cl       2.02985660       1.43532338       7.02844919      -0.00151974      -0.00108463      -0.00000392
Cl       6.08589700       4.30337961       7.02845045       0.00151956       0.00108045       0.00000755
Cl       5.07188623       1.43532336       5.27213207       0.00075331      -0.00108618      -0.00131828
Cl       3.04386843       4.30337817       8.78476553      -0.00076482       0.00109082       0.00133133
Cl       3.04386497       4.30337898       5.27213153      -0.00076404       0.00107265      -0.00131267
Cl       5.07188714       1.43532534       8.78476466       0.00076941      -0.00109273       0.00133568
