9
Lattice="4.785224856752596 1.3194276825710778e-07 2.762750981000371 1.595075070014926 4.5115541356349675 2.762750992488688 2.2767130012328496e-07 1.750581443788824e-07 5.525501567662501" Properties=species:S:1:pos:R:3:forces:R:3 energy=-45.32773208618164 free_energy=-45.32773208618164 stress="-0.00013472247519530356 5.1108695942048143e-08 -2.749153793502046e-07 5.1108695942048143e-08 -0.00013575205230154097 -2.632370694755082e-07 -2.749153793502046e-07 -2.632370694755082e-07 -0.00013490699348039925" pbc="T T T"
Y        1.59507463       1.12788997       2.76275015      -0.00000424       0.00002686      -0.00001253
Y        4.78522553       3.38366436       8.28825440       0.00000266      -0.00002561       0.00003391
Se       0.00000041      -0.00000002      -0.00000019      -0.00000260       0.00000321       0.00000059
F        1.81913294       1.28632310       5.52550175      -0.00254285      -0.00177640       0.00000399
F        4.56116765       3.22523151       5.52550073       0.00254250       0.00177622      -0.00001676
F        3.87565959       1.28632404       4.33816671       0.00128707      -0.00176978      -0.00220007
F        2.50464054       3.22523092       6.71283675      -0.00128177       0.00177324       0.00219136
F        2.50464255       3.22523145       4.33816645      -0.00125912       0.00178224      -0.00220269
F        3.87565699       1.28632246       6.71283712       0.00125793      -0.00178951       0.00220221
