9
Lattice="6.840595521224603 -3.951584359119358e-08 3.9494196693230585 2.280198489411243 6.449375258778077 3.949419635388254 -2.0055961774893204e-09 -4.297962090422098e-08 7.898839342119933" Properties=species:S:1:pos:R:3:forces:R:3 energy=-28.388261795043945 free_energy=-28.388261795043945 stress="0.00010629447206156328 6.4905849583851705e-09 -6.294515464411177e-10 6.4905849583851705e-09 0.0001062996598193422 1.4576656548470623e-09 -6.294515464411177e-10 1.4576656548470623e-09 0.00010631127952365205" pbc="T T T"
Y        2.28019880       1.61234375       3.94941946       0.00000193      -0.00000030      -0.00000073
Y        6.84059536       4.83703146      11.84825910      -0.00000208      -0.00000033       0.00000054
Se       0.00000011      -0.00000013      -0.00000008      -0.00000067      -0.00000005      -0.00000029
I        2.42625579       1.71562165       7.89883944      -0.00073409      -0.00051959       0.00000061
I        6.69453830       4.73375352       7.89883922       0.00073484       0.00052001      -0.00000034
I        5.62746743       1.71562180       6.05061882       0.00036708      -0.00051871      -0.00063652
I        3.49332639       4.73375334       9.74705997      -0.00036690       0.00051922       0.00063685
I        3.49332640       4.73375336       6.05061871      -0.00036742       0.00051877      -0.00063676
I        5.62746746       1.71562195       9.74705990       0.00036737      -0.00051883       0.00063679
