9
Lattice="6.416329418554177 -6.031571721742756e-09 3.7044694171408445 2.1387765403274104 6.049373190204613 3.7044692904194476 2.618572083272425e-08 -1.3668529816106403e-07 7.408938788926696" Properties=species:S:1:pos:R:3:forces:R:3 energy=-31.600818634033203 free_energy=-31.600818634033203 stress="9.411646897206083e-05 -6.258314311224922e-09 5.6474021015162634e-09 -6.258314311224922e-09 9.413744555786252e-05 1.1929044418934609e-08 5.6474021015162634e-09 1.1929044418934609e-08 9.413901716470718e-05" pbc="T T T"
Y        2.13877671       1.51234427       3.70446918       0.00000198       0.00000618      -0.00000118
Y        6.41632991       4.53702990      11.11340615       0.00000204      -0.00000048      -0.00001042
Se      -0.00000013      -0.00000028       0.00000039       0.00000056       0.00000042       0.00000089
Br       2.19846619       1.55455039       7.40893884       0.00038832       0.00027546       0.00000017
Br       6.35663984       4.49482253       7.40893914      -0.00038898      -0.00027752       0.00000516
Br       5.31709614       1.55454993       5.60839701      -0.00019622       0.00027329       0.00033766
Br       3.23800980       4.49482255       9.20948137       0.00019580      -0.00027657      -0.00033456
Br       3.23800915       4.49482268       5.60839714       0.00019154      -0.00027734       0.00033742
Br       5.31709636       1.55455023       9.20948088      -0.00019503       0.00027660      -0.00033528
