9
Lattice="4.4614690685204765 -6.707171702564956e-08 2.575829925036747 1.487156297324345 4.2063143771806875 2.575829917438789 -2.4097701167369257e-07 -1.7970203112531104e-07 5.151660267457929" Properties=species:S:1:pos:R:3:forces:R:3 energy=-46.01190948486328 free_energy=-46.01190948486328 stress="5.327506369212642e-05 4.8351285641956565e-08 1.414616008332814e-06 4.8351285641956565e-08 5.035127469454892e-05 1.0181444167756126e-06 1.414616008332814e-06 1.0181444167756126e-06 5.441192479338497e-05" pbc="T T T"
Y        1.48715458       1.05157700       2.57582682      -0.00002023      -0.00001606      -0.00006150
Y        4.46146777       3.15473152       7.72748037      -0.00002224      -0.00007293      -0.00014438
S        0.00000002      -0.00000051       0.00000015      -0.00000194       0.00000161      -0.00001862
F        1.63145794       1.15362004       5.15165969       0.00694978       0.00498450      -0.00000781
F        4.31716637       3.05269615       5.15166600      -0.00696504      -0.00496209       0.00010458
F        3.64573937       1.15361687       3.98871532      -0.00348842       0.00494659       0.00604320
F        2.30288950       3.05269566       6.31460821       0.00354326      -0.00495827      -0.00599098
F        2.30288466       3.05269790       3.98871648       0.00346076      -0.00494587       0.00606179
F        3.64574064       1.15362167       6.31460809      -0.00345623       0.00502145      -0.00598812
