9
Lattice="6.737462527244627 4.504697383156843e-08 3.8898758896604613 2.245820894217977 6.352140624702281 3.889875873496283 1.1721211496687673e-09 -1.896816605795613e-08 7.779751777290739" Properties=species:S:1:pos:R:3:forces:R:3 energy=-29.09585189819336 free_energy=-29.09585189819336 stress="5.399531437433325e-05 3.137426318744474e-09 -2.027334744525433e-09 3.137426318744474e-09 5.400115696829744e-05 -4.923017105085137e-09 -2.027334744525433e-09 -4.923017105085137e-09 5.400730879046023e-05" pbc="T T T"
Y        2.24582117       1.58803525       3.88987564       0.00000236      -0.00000074      -0.00000183
Y        6.73746288       4.76410558      11.66962820       0.00000157       0.00000180       0.00000167
S       -0.00000024       0.00000014      -0.00000067      -0.00000012       0.00000076       0.00000140
I        2.37205908       1.67729917       7.77975224      -0.00178623      -0.00126286       0.00000027
I        6.61122424       4.67484152       7.77975159       0.00178552       0.00126301      -0.00000124
I        5.55143285       1.67729883       5.94413958       0.00089124      -0.00126342      -0.00154659
I        3.43185033       4.67484133       9.61536398      -0.00089374       0.00126231       0.00154608
I        3.43185053       4.67484171       5.94413950      -0.00089267       0.00126295      -0.00154600
I        5.55143283       1.67729913       9.61536418       0.00089216      -0.00126372       0.00154632
