9
Lattice="4.999973730657356 -3.524994517798214e-07 2.8867355102925116 1.666657656747901 4.714018911099634 2.886735373688284 1.5258108278389238e-08 -1.5651620683674632e-07 5.773470994157187" Properties=species:S:1:pos:R:3:forces:R:3 energy=-49.35594177246094 free_energy=-49.35594177246094 stress="-0.00019685481674969196 1.6650983525323682e-07 -5.73122562741446e-08 1.6650983525323682e-07 -0.00019693498325068504 1.3411434629517771e-08 -5.73122562741446e-08 1.3411434629517771e-08 -0.00019639085803646594" pbc="T T T"
Y        1.66665763       1.17850125       2.88673508       0.00000299      -0.00003414      -0.00000557
Y        4.99997254       3.53551139       8.66020654      -0.00001580      -0.00002211       0.00000204
Sn      -0.00000037      -0.00000100      -0.00000018       0.00000019      -0.00000654       0.00000170
F        1.78366962       1.26124397       5.77347118       0.00155984       0.00110316       0.00000345
F        4.88296067       3.45277563       5.77347090      -0.00157344      -0.00108992      -0.00000140
F        4.10813807       1.26124568       4.43143689      -0.00078100       0.00111426       0.00134012
F        2.55849382       3.45277451       7.11550326       0.00079158      -0.00109464      -0.00135280
F        2.55849466       3.45277621       4.43143922       0.00079589      -0.00108558       0.00135617
F        4.10813904       1.26124589       7.11550480      -0.00078015       0.00111534      -0.00134359
