9
Lattice="6.407109756849863 3.060323656838898e-08 3.6991465601375086 2.1357032440005943 6.040681211391271 3.699146624458439 -1.103195626225755e-07 7.690081724357494e-10 7.398293311354084" Properties=species:S:1:pos:R:3:forces:R:3 energy=-34.1807861328125 free_energy=-34.1807861328125 stress="0.00011989167978754267 -4.990424185002951e-10 1.0881080925173592e-08 -4.990424185002951e-10 0.00011988032201770693 -6.801484708773842e-09 1.0881080925173592e-08 -6.801484708773842e-09 0.00011988655751338229" pbc="T T T"
Y        2.13570279       1.51016992       3.69914711      -0.00000095      -0.00000207       0.00000213
Y        6.40710941       4.53051114      11.09743988      -0.00000242       0.00000023       0.00000001
Sn      -0.00000012      -0.00000009      -0.00000019       0.00000035       0.00000076       0.00000173
Br       2.22409437       1.57267189       7.39829327      -0.00047022      -0.00033391      -0.00000080
Br       6.31871903       4.46800935       7.39829308       0.00046933       0.00033310      -0.00000016
Br       5.29506251       1.57267217       5.62526848       0.00023487      -0.00033224      -0.00040773
Br       3.24775032       4.46800942       9.17131800      -0.00023302       0.00033256       0.00040618
Br       3.24775028       4.46800929       5.62526860      -0.00023426       0.00033236      -0.00040683
Br       5.29506300       1.57267192       9.17131774       0.00023627      -0.00033075       0.00040543
