9
Lattice="6.916107071939683 -5.719439574863082e-08 3.993016311141514 2.30536898713941 6.5205682563533545 3.993016281553074 3.6012055558152195e-08 -1.0773895244719545e-08 7.98603255990831" Properties=species:S:1:pos:R:3:forces:R:3 energy=-30.19785499572754 free_energy=-30.19785499572754 stress="5.392048115027137e-05 -1.3818685751232351e-08 -1.072778221811177e-08 -1.3818685751232351e-08 5.3926341934129596e-05 1.5098223116183362e-08 -1.072778221811177e-08 1.5098223116183362e-08 5.393005267251283e-05" pbc="T T T"
Y        2.30536914       1.63014191       3.99301647       0.00000143      -0.00000161       0.00000080
Y        6.91610713       4.89042612      11.97904948      -0.00000038      -0.00000032       0.00000222
Sn       0.00000013       0.00000001       0.00000004      -0.00000124      -0.00000017       0.00000023
I        2.41641689       1.70866468       7.98603232       0.00045364       0.00032082      -0.00000043
I        6.80505899       4.81190343       7.98603237      -0.00045297      -0.00031994      -0.00000135
I        5.70789858       1.70866479       6.08569448      -0.00022640       0.00032163       0.00039248
I        3.51357752       4.81190352       9.88637042       0.00022652      -0.00032040      -0.00039352
I        3.51357752       4.81190366       6.08569468       0.00022665      -0.00031998       0.00039242
I        5.70789852       1.70866462       9.88637032      -0.00022731       0.00031999      -0.00039285
