9
Lattice="5.7788747029118035 -4.9108860191904964e-08 3.3364348782118185 1.9262914641533344 5.448374830268642 3.336434977256795 -2.35824481393667e-08 1.046295255685557e-07 6.672869797269641" Properties=species:S:1:pos:R:3:forces:R:3 energy=-43.65630340576172 free_energy=-43.65630340576172 stress="0.00026643380988389254 8.320670019656973e-08 -1.633254420596586e-08 8.320670019656973e-08 0.0002663918421603739 -1.5283171395097384e-09 -1.633254420596586e-08 -1.5283171395097384e-09 0.0002664417552296072" pbc="T T T"
Y        1.92629277       1.36209951       3.33643425       0.00001036       0.00004100      -0.00000567
Y        5.77887504       4.08628275      10.00930608      -0.00000096       0.00000602       0.00001082
Ti      -0.00000023      -0.00000034      -0.00000063       0.00000097       0.00000132       0.00000721
Cl       1.95622776       1.38326093       6.67286930      -0.00772321      -0.00546750      -0.00000067
Cl       5.74893974       4.06511212       6.67286912       0.00772995       0.00545344      -0.00000125
Cl       4.80076160       1.38326091       5.03057752       0.00386146      -0.00546589      -0.00669011
Cl       2.90440377       4.06511153       8.31516317      -0.00386506       0.00544444       0.00669041
Cl       2.90440427       4.06511243       5.03057736      -0.00386551       0.00545055      -0.00669169
Cl       4.80076007       1.38325981       8.31516246       0.00385192      -0.00546336       0.00668147
