9
Lattice="6.20489668120938 -2.2257727034903206e-08 3.5823986916875854 2.068298868726551 5.850032343571346 3.582398698659232 3.5250326732226875e-08 3.346427401801046e-08 7.164797322319772" Properties=species:S:1:pos:R:3:forces:R:3 energy=-39.611637115478516 free_energy=-39.611637115478516 stress="5.069188318884699e-06 -7.969081394776367e-09 -1.069922994645367e-08 -7.969081394776367e-09 5.036856236984022e-06 -6.002282226802436e-09 -1.069922994645367e-08 -6.002282226802436e-09 5.063542630523443e-06" pbc="T T T"
Y        2.06829893       1.46250772       3.58239765      -0.00000071      -0.00000055      -0.00000476
Y        6.20489665       4.38752352      10.74719687       0.00000007      -0.00000371       0.00000474
Ti      -0.00000025       0.00000004      -0.00000019       0.00000504       0.00000025      -0.00000520
Br       2.08308240       1.47296224       7.16479838       0.00017902       0.00012544       0.00000087
Br       6.19011297       4.37707103       7.16479749      -0.00018314      -0.00012851      -0.00000287
Br       5.16335577       1.47296159       5.38640044      -0.00009233       0.00013286       0.00015941
Br       3.10984020       4.37707050       8.94319361       0.00008823      -0.00012422      -0.00015315
Br       3.10983996       4.37707096       5.38640080       0.00009283      -0.00012812       0.00015691
Br       5.16335568       1.47296186       8.94319376      -0.00008900       0.00012681      -0.00015587
