9
Lattice="6.838789038568049 -8.655351584407244e-08 3.948376772341989 2.2795962664583223 6.4476722028979765 3.948376769098905 3.692166269871244e-08 2.213559349064245e-08 7.896753480733771" Properties=species:S:1:pos:R:3:forces:R:3 energy=-35.21675109863281 free_energy=-35.21675109863281 stress="0.0001934151805471629 5.84404880044076e-09 -3.7209328951348652e-09 5.84404880044076e-09 0.0001934134925249964 1.1379155395729867e-08 -3.7209328951348652e-09 1.1379155395729867e-08 0.0001934026659000665" pbc="T T T"
Y        2.27959642       1.61191778       3.94837665      -0.00000027      -0.00000031      -0.00000188
Y        6.83878870       4.83575400      11.84512946      -0.00000123      -0.00000146      -0.00000391
Ti      -0.00000016      -0.00000009       0.00000018       0.00000144      -0.00000034       0.00000274
I        2.29588873       1.62343859       7.89675356      -0.00049786      -0.00035083       0.00000047
I        6.82249680       4.82423373       7.89675389       0.00049664       0.00035101       0.00000131
I        5.69084464       1.62343853       5.93667499       0.00024873      -0.00035246      -0.00043066
I        3.42754091       4.82423359       9.85683211      -0.00024687       0.00035200       0.00043178
I        3.42754074       4.82423383       5.93667508      -0.00024892       0.00035238      -0.00043009
I        5.69084456       1.62343861       9.85683218       0.00024833      -0.00035007       0.00043029
