9
Lattice="4.985775741655534 3.055604921232054e-07 2.87853729642096 1.661924900825637 4.700633490196827 2.8785383953692976 -4.173303340250186e-06 -1.605039458398203e-06 5.757081821215244" Properties=species:S:1:pos:R:3:forces:R:3 energy=-56.976985931396484 free_energy=-56.976985931396484 stress="-0.00036572455428540707 -2.3258060366515565e-07 2.757993570412509e-06 -2.3258060366515565e-07 -0.0003638696507550776 1.8162006654165452e-06 2.757993570412509e-06 1.8162006654165452e-06 -0.00036639615427702665" pbc="T T T"
Y        1.66192601       1.17518720       2.87866997       0.00005199       0.00032465       0.00135534
Y        4.98577731       3.52554040       8.63565814       0.00010942       0.00065789       0.00049159
Ti       0.00001413       0.00002088       0.00005008       0.00000652       0.00005198       0.00009132
F        1.65818732       1.17248320       5.75699892      -0.00075912      -0.00086898      -0.00076846
F        4.98954963       3.52812757       5.75705837       0.00102037       0.00058478      -0.00017369
F        4.15662919       1.17249624       4.31454508      -0.00000167      -0.00081164      -0.00088841
F        2.49099159       3.52817954       7.19957712      -0.00053418       0.00096911       0.00060666
F        2.49099537       3.52805546       4.31451821      -0.00058556       0.00016373      -0.00111538
F        4.15671543       1.17243877       7.19955371       0.00069180      -0.00107139       0.00040036
