9
Lattice="6.182710655329324 -1.7752798874383335e-08 3.569589812351286 2.0609035825913358 5.829115454268382 3.569589729988093 8.074042608951902e-08 -4.378169829234085e-08 7.139179484856043" Properties=species:S:1:pos:R:3:forces:R:3 energy=-40.41246032714844 free_energy=-40.41246032714844 stress="8.823884127195925e-05 -2.7884402342692738e-08 -1.3413414379215283e-08 -2.7884402342692738e-08 8.824501855997369e-05 -2.9136533186147062e-08 -1.3413414379215283e-08 -2.9136533186147062e-08 8.822965901345015e-05" pbc="T T T"
Y        2.06090476       1.45727835       3.56959083       0.00000628      -0.00000308       0.00000579
Y        6.18270921       4.37183694      10.70876844      -0.00000747       0.00000350      -0.00000298
V        0.00000017       0.00000003       0.00000045      -0.00000035       0.00000025      -0.00000347
Br       2.06629999       1.46109418       7.13917898      -0.00015107      -0.00010934      -0.00000225
Br       6.17731446       4.36802108       7.13917984       0.00015213       0.00011006       0.00000131
Br       5.14956030       1.46109455       5.35905791       0.00007314      -0.00010817      -0.00013372
Br       3.09405412       4.36802079       8.91930092      -0.00007401       0.00010898       0.00013392
Br       3.09405368       4.36802076       5.35905799      -0.00007559       0.00010786      -0.00013477
Br       5.14956060       1.46109486       8.91930080       0.00007682      -0.00011017       0.00013623
