9
Lattice="5.882479532471627 1.6233309299570061e-07 3.3962508493974157 1.9608266664987528 5.546054904517458 3.3962508448494244 -2.0436505341656357e-07 -1.5007804442328667e-07 6.79250205276548" Properties=species:S:1:pos:R:3:forces:R:3 energy=-44.368988037109375 free_energy=-44.368988037109375 stress="8.486124716000631e-05 -4.209867654481059e-08 -4.6723669377968235e-09 -4.209867654481059e-08 8.477686787955463e-05 -9.750082685666683e-11 -4.6723669377968235e-09 -9.750082685666683e-11 8.483442070428282e-05" pbc="T T T"
Y        1.96082282       1.38651316       3.39625129      -0.00002359      -0.00000103       0.00000355
Y        5.88247727       4.15954007      10.18875311      -0.00001200      -0.00000699      -0.00000106
V        0.00000034       0.00000070      -0.00000028       0.00000162      -0.00000018      -0.00000267
Cl       1.95641220       1.38339245       6.79250204       0.00081795       0.00057648       0.00000098
Cl       5.88689548       4.16266202       6.79250191      -0.00081301      -0.00058092      -0.00000325
Cl       4.90427442       1.38339200       5.09055319      -0.00040185       0.00058040       0.00070962
Cl       2.93903356       4.16266381       8.49445062       0.00041452      -0.00057119      -0.00070715
Cl       2.93903283       4.16266266       5.09055300       0.00041358      -0.00057375       0.00070453
Cl       4.90427498       1.38339284       8.49445007      -0.00039724       0.00057754      -0.00070471
