9
Lattice="7.945514989520984 0.02034614219291555 4.245249131745574 3.531549794496136 4.234993301787705 2.9694759967715 1.276908460787593 -0.8337232915638286 6.629487584615191" Properties=species:S:1:pos:R:3:forces:R:3 energy=-61.48122024536133 free_energy=-61.48122024536133 stress="-6.573920836672187e-05 -0.00014075518993195146 2.391616908425931e-05 -0.00014075518993195146 -2.282506466144696e-05 -1.4873649888613727e-05 2.391616908425931e-05 -1.4873649888613727e-05 -6.14072268945165e-05" pbc="T T T"
Y        4.78922309       1.18421253       3.26285653       0.00017012      -0.00153381      -0.00447568
Y        8.80011302       2.86944160       8.94853104      -0.00061357       0.00462336      -0.00082204
V        0.04739322       0.29531974       0.20343757       0.00068402      -0.00601363       0.00379924
F        5.69074247      -0.46515143       7.91478646      -0.00103757       0.00468253      -0.00224710
F        7.82065013       3.42645014       7.05066883      -0.00023139       0.00328529      -0.00032875
F        5.96724226       0.74797788       5.15186385      -0.00202796       0.00081110       0.00001395
F        6.61483503       2.63663849       9.51084506       0.00052521       0.00167976      -0.00084304
F        2.93212965       2.27197038       3.90422642      -0.00115106      -0.00272441       0.00447656
F        8.35355389       0.71959170       9.42965103       0.00368213      -0.00481032       0.00042716
