9
Lattice="6.137366306605572 9.159527127414944e-08 3.5434100721141912 2.0457888247726794 5.78636479387723 3.5434101248597947 -1.1822994670655455e-07 -1.9001240450335452e-08 7.086820349008656" Properties=species:S:1:pos:R:3:forces:R:3 energy=-33.43821334838867 free_energy=-33.43821334838867 stress="0.00019805376359727234 2.586173275531678e-09 -5.626733301511422e-09 2.586173275531678e-09 0.00019806984346359968 3.5969980327621442e-09 -5.626733301511422e-09 3.5969980327621442e-09 0.00019805305055342615" pbc="T T T"
Y        2.04578814       1.44659132       3.54341047      -0.00000231       0.00000147       0.00000100
Y        6.13736658       4.33977284      10.63022983       0.00000188      -0.00000499      -0.00000227
Zn       0.00000041      -0.00000014      -0.00000018      -0.00000140      -0.00000001       0.00000199
Br       2.05322446       1.45184935       7.08682024      -0.00067417      -0.00047305      -0.00000049
Br       6.12993050       4.33451562       7.08682037       0.00067526       0.00047585       0.00000148
Br       5.11075393       1.45184930       5.32155462       0.00033838      -0.00047627      -0.00058357
Br       3.07240106       4.33451600       8.85208607      -0.00033645       0.00047509       0.00058019
Br       3.07240099       4.33451589       5.32155481      -0.00033785       0.00047605      -0.00058091
Br       5.11075401       1.45184928       8.85208592       0.00033663      -0.00047413       0.00058263
