9
Lattice="4.827984400694094 3.1751756093686814e-07 2.787437772418741 1.6093281767122602 4.551868217608235 2.7874382161888858 -1.766217602414413e-07 4.186148224973923e-07 5.574875850755274" Properties=species:S:1:pos:R:3:forces:R:3 energy=-49.35243225097656 free_energy=-49.35243225097656 stress="7.711121725151315e-06 -7.22488877613614e-08 1.2061370568972052e-07 -7.22488877613614e-08 7.67657911637798e-06 5.368878319700343e-08 1.2061370568972052e-07 5.368878319700343e-08 7.647920938325115e-06" pbc="T T T"
Y        1.60932758       1.13796473       2.78743847      -0.00001143      -0.00001893       0.00000229
Y        4.82798599       3.41390290       8.36231285       0.00002042       0.00000812      -0.00000126
Zn      -0.00000002      -0.00000001       0.00000029       0.00000173      -0.00000475      -0.00000395
F        1.63678421       1.15738251       5.57487534       0.00118923       0.00084165      -0.00000455
F        4.80052788       3.39448723       5.57487783      -0.00119257      -0.00083494       0.00000869
F        4.00959290       1.15738202       4.20493570      -0.00059289       0.00083709       0.00103518
F        2.42771894       3.39448811       6.94481539       0.00058681      -0.00082770      -0.00103796
F        2.42772041       3.39448776       4.20493620       0.00059357      -0.00083196       0.00104025
F        4.00959188       1.15738051       6.94481538      -0.00059450       0.00083184      -0.00103781
