9
Lattice="6.696322527461186 1.8046936375124924e-08 3.8661236375096926 2.2321075386059435 6.313353431187412 3.8661236159674615 6.48369319302996e-09 -2.1799093404966305e-08 7.732247263789299" Properties=species:S:1:pos:R:3:forces:R:3 energy=-28.724088668823242 free_energy=-28.724088668823242 stress="7.945377001306042e-05 6.683515074712432e-09 -1.6113746448276345e-10 6.683515074712432e-09 7.945932156872004e-05 5.207678288599027e-09 -1.6113746448276345e-10 5.207678288599027e-09 7.946707046357915e-05" pbc="T T T"
Y        2.23210754       1.57833869       3.86612376       0.00000040       0.00000210      -0.00000002
Y        6.69632259       4.73501498      11.59837085      -0.00000113      -0.00000062      -0.00000163
Zn      -0.00000000      -0.00000002      -0.00000035       0.00000045      -0.00000079       0.00000210
I        2.25430740       1.59403617       7.73224712      -0.00000387      -0.00000345       0.00000115
I        6.67412259       4.71931722       7.73224714       0.00000377       0.00000335       0.00000144
I        5.56916865       1.59403619       5.81841122       0.00000291      -0.00000445      -0.00000417
I        3.35926120       4.71931764       9.64608350      -0.00000054       0.00000098       0.00000367
I        3.35926130       4.71931700       5.81841120      -0.00000312       0.00000349      -0.00000528
I        5.56916903       1.59403587       9.64608362       0.00000117      -0.00000058       0.00000273
