9
Lattice="5.816753378543378 4.167546492562106e-09 3.358304128721924 1.938917817697515 5.484087752184936 3.3583040924865015 1.2629331623034191e-07 4.492372281747419e-08 6.716608038697415" Properties=species:S:1:pos:R:3:forces:R:3 energy=-37.54393768310547 free_energy=-37.54393768310547 stress="5.882397817913443e-05 1.2973923269044008e-08 -2.0145213497357872e-08 1.2973923269044008e-08 5.88457151025068e-05 -1.128649973480833e-08 -2.0145213497357872e-08 -1.128649973480833e-08 5.8884113968815655e-05" pbc="T T T"
Y        1.93891741       1.37102270       3.35830343      -0.00000303       0.00000612      -0.00000636
Y        5.81675417       4.11306532      10.07491349       0.00000556      -0.00000431       0.00000910
Zn       0.00000020       0.00000017       0.00000048      -0.00000117      -0.00000178      -0.00000620
Cl       1.93118713       1.36555588       6.71660824       0.00083420       0.00059108       0.00000069
Cl       5.82448415       4.11853189       6.71660745      -0.00083205      -0.00059150      -0.00000330
Cl       4.85115989       1.36555600       5.03076135      -0.00041627       0.00059260       0.00072195
Cl       2.90451115       4.11853150       8.40245460       0.00041182      -0.00058942      -0.00071795
Cl       2.90451137       4.11853212       5.03076163       0.00041562      -0.00058959       0.00072226
Cl       4.85115983       1.36555568       8.40245439      -0.00041471       0.00058675      -0.00072016
