9
Lattice="6.265068391164141 -4.620824806132001e-08 3.617138945378547 2.0883560970725092 5.906763071874945 3.6171389276250068 -2.7806256473335275e-08 -4.1405547542277234e-08 7.23427793891893" Properties=species:S:1:pos:R:3:forces:R:3 energy=-15.662759780883789 free_energy=-15.662759780883789 stress="0.00010930344433290884 1.2097965296220536e-08 -5.742336606218146e-10 1.2097965296220536e-08 0.00010930150892818347 -8.11062061956136e-09 -5.742336606218146e-10 -8.11062061956136e-09 0.00010928283882094547" pbc="T T T"
Zn       2.08835609       1.47669077       3.61713907       0.00000018       0.00000024       0.00000015
Zn       6.26506846       4.43007224      10.85141683      -0.00000004      -0.00000015      -0.00000008
Au      -0.00000004      -0.00000002      -0.00000010       0.00000006      -0.00000025       0.00000002
Br       2.14516588       1.51686141       7.23427791       0.00159130       0.00112580      -0.00000015
Br       6.20825859       4.38990166       7.23427790      -0.00159261      -0.00112636      -0.00000014
Br       5.19248548       1.51686120       5.47490714      -0.00079663       0.00112697       0.00137943
Br       3.16093896       4.38990160       8.99364870       0.00079687      -0.00112619      -0.00137985
Br       3.16093900       4.38990173       5.47490706       0.00079671      -0.00112642       0.00137967
Br       5.19248541       1.51686129       8.99364879      -0.00079584       0.00112644      -0.00137928
