9
Lattice="6.253378047339853 -2.677442804485312e-08 3.610389396510528 2.084459309078145 5.895741293530596 3.610389422130995 -4.064867560368992e-08 2.6355763619212035e-09 7.220778863426641" Properties=species:S:1:pos:R:3:forces:R:3 energy=-15.357198715209961 free_energy=-15.357198715209961 stress="-0.00030928413616493344 -7.133166501915866e-09 2.051348868548075e-09 -7.133166501915866e-09 -0.00030928978230804205 4.076392556839892e-09 2.051348868548075e-09 4.076392556839892e-09 -0.00030928500927984715" pbc="T T T"
Zn       2.08445934       1.47393537       3.61038953      -0.00000015       0.00000005      -0.00000001
Zn       6.25337789       4.42180581      10.83116876       0.00000007      -0.00000006       0.00000118
Ag       0.00000007       0.00000002      -0.00000028       0.00000061      -0.00000137       0.00000152
Br       2.12306552       1.50123406       7.22077875       0.00661750       0.00467908      -0.00000006
Br       6.21477172       4.39450718       7.22077860      -0.00661728      -0.00467886      -0.00000015
Br       5.19184512       1.50123432       5.44901806      -0.00330814       0.00467855       0.00572944
Br       3.14599209       4.39450714       8.99253944       0.00330809      -0.00467840      -0.00573002
Br       3.14599217       4.39450718       5.44901820       0.00330797      -0.00467813       0.00572947
Br       5.19184530       1.50123401       8.99253956      -0.00330859       0.00467914      -0.00573134
