9
Lattice="6.034173418554059 6.644563005026838e-08 3.4838315897723717 2.011391274580165 5.68907286160199 3.483831464343128 8.643213880449728e-08 -9.250207889798276e-08 6.967663029839901" Properties=species:S:1:pos:R:3:forces:R:3 energy=-17.483579635620117 free_energy=-17.483579635620117 stress="0.0003068265796173364 -1.3664578801808602e-08 -3.857648422922466e-09 -1.3664578801808602e-08 0.0003068098158109933 1.7130449947444504e-08 -3.857648422922466e-09 1.7130449947444504e-08 0.00030683825025334954" pbc="T T T"
Zn       2.01139095       1.42226721       3.48383136      -0.00000083      -0.00000234      -0.00000040
Zn       6.03417340       4.26680512      10.45149464      -0.00000065       0.00000089      -0.00000070
Au       0.00000012      -0.00000007       0.00000048       0.00000025      -0.00000045      -0.00000653
Cl       2.01248143       1.42303904       6.96766317       0.00601113       0.00425053       0.00000032
Cl       6.03308332       4.26603389       6.96766308      -0.00601074      -0.00424889      -0.00000006
Cl       5.02793302       1.42303838       5.22669078      -0.00300567       0.00424966       0.00520551
Cl       3.01763189       4.26603424       8.70863500       0.00300498      -0.00424758      -0.00520262
Cl       3.01763178       4.26603468       5.22669111       0.00300589      -0.00424996       0.00520819
Cl       5.02793324       1.42303872       8.70863475      -0.00300434       0.00424808      -0.00520384
