9
Lattice="6.690276722293054 -2.100693882513427e-08 3.8626330574651604 2.2300922317260015 6.307653430708906 3.8626330388159063 1.3383043256554536e-08 -1.3377339118183222e-08 7.725266091750192" Properties=species:S:1:pos:R:3:forces:R:3 energy=-14.018777847290039 free_energy=-14.018777847290039 stress="0.0001745551562635228 3.6772125344697315e-09 3.041006058079887e-10 3.6772125344697315e-09 0.0001745463378028944 -6.536630126063869e-10 3.041006058079887e-10 -6.536630126063869e-10 0.00017454431508667767" pbc="T T T"
Zn       2.23009223       1.57691333       3.86263303       0.00000024       0.00000023      -0.00000027
Zn       6.69027670       4.73074004      11.58789914      -0.00000003      -0.00000021       0.00000020
Au       0.00000003       0.00000005      -0.00000027       0.00000059      -0.00000036       0.00000130
I        2.33806202       1.65325936       7.72526606      -0.00210328      -0.00148670      -0.00000009
I        6.58230699       4.65439395       7.72526619       0.00210308       0.00148657      -0.00000007
I        5.52124576       1.65325967       5.88745421       0.00105094      -0.00148661      -0.00182104
I        3.39912317       4.65439387       9.56307811      -0.00105104       0.00148655       0.00182079
I        3.39912328       4.65439379       5.88745422      -0.00105134       0.00148691      -0.00182119
I        5.52124573       1.65325951       9.56307804       0.00105079      -0.00148641       0.00182049
