9
Lattice="6.035675365082324 -6.39199469334725e-08 3.484698806062139 2.011891796943507 5.690489106875746 3.4846986868155696 1.2148297719884133e-07 -6.014520510382524e-08 6.9693974017096" Properties=species:S:1:pos:R:3:forces:R:3 energy=-16.920438766479492 free_energy=-16.920438766479492 stress="-0.0002936578821390867 -2.8559536957573073e-09 2.2762163265355184e-09 -2.8559536957573073e-09 -0.00029366087983362377 -4.486056859320797e-09 2.2762163265355184e-09 -4.486056859320797e-09 -0.0002936513628810644" pbc="T T T"
Zn       2.01189225       1.42262134       3.48469964       0.00000197      -0.00000300       0.00000279
Zn       6.03567396       4.26786622      10.45409540      -0.00000444      -0.00000193      -0.00000138
Ag       0.00000007       0.00000011      -0.00000013       0.00000087      -0.00000128       0.00000166
Cl       1.99453086       1.41034623       6.96939665      -0.00321865      -0.00227568      -0.00000189
Cl       6.05303657       4.28014311       6.96939779       0.00321832       0.00227633       0.00000116
Cl       5.03841005       1.41034593       5.21201286       0.00160901      -0.00227541      -0.00278810
Cl       3.00915757       4.28014349       8.72678199      -0.00160785       0.00227758       0.00278789
Cl       3.00915796       4.28014341       5.21201269      -0.00160804       0.00227746      -0.00278959
Cl       5.03840986       1.41034604       8.72678279       0.00160876      -0.00227419       0.00278738
