9
Lattice="5.02088848336823 1.4082727602235925e-07 2.8988110289017177 1.6736295356058504 4.733739272842799 2.8988111875981972 3.1240985575709514e-08 2.1645342863453835e-07 5.7976220036924095" Properties=species:S:1:pos:R:3:forces:R:3 energy=-26.460323333740234 free_energy=-26.460323333740234 stress="8.127706678351387e-05 -2.6390175378310232e-08 -1.5904079164741347e-09 -2.6390175378310232e-08 8.127513865474612e-05 -1.3640857332575251e-08 -1.5904079164741347e-09 -1.3640857332575251e-08 8.128456101985648e-05" pbc="T T T"
Zn       1.67362947       1.18343545       2.89881119      -0.00000168       0.00000297       0.00000149
Zn       5.02088875       3.55030422       8.69643404       0.00000226      -0.00000208       0.00000328
Au       0.00000041      -0.00000043      -0.00000014      -0.00002401       0.00001861      -0.00000459
F        1.67778461       1.18637361       5.79762171      -0.00469725      -0.00332033      -0.00000012
F        5.01673334       3.54736616       5.79762189       0.00470407       0.00332402      -0.00000140
F        4.18199649       1.18637296       4.35181526       0.00235448      -0.00332650      -0.00407602
F        2.51252135       3.54736662       7.24342936      -0.00234742       0.00331758       0.00406332
F        2.51252150       3.54736677       4.35181444      -0.00234489       0.00331508      -0.00406249
F        4.18199613       1.18637309       7.24342919       0.00235443      -0.00332932       0.00407668
