9
Lattice="6.671927656590498 -3.816190187241911e-08 3.852039215655387 2.2239758632285214 6.290353734519972 3.8520391919647805 7.509276925828662e-08 2.4083669344538784e-08 7.704078301246249" Properties=species:S:1:pos:R:3:forces:R:3 energy=-13.532537460327148 free_energy=-13.532537460327148 stress="8.193133544409648e-05 4.190204183629476e-09 -5.531973212846708e-10 4.190204183629476e-09 8.193248504539952e-05 -4.3633652246910515e-09 -5.531973212846708e-10 -4.3633652246910515e-09 8.192029054043815e-05" pbc="T T T"
Zn       2.22397593       1.57258840       3.85203913      -0.00000004       0.00000004      -0.00000013
Zn       6.67192767       4.71776529      11.55611746      -0.00000003      -0.00000009      -0.00000050
Ag       0.00000010       0.00000000      -0.00000018      -0.00000009      -0.00000001       0.00000167
I        2.32051894       1.64085463       7.70407824       0.00078808       0.00055712       0.00000054
I        6.57538473       4.64949910       7.70407853      -0.00078838      -0.00055715      -0.00000028
I        5.51166835       1.64085447       5.86166755      -0.00039440       0.00055782       0.00068262
I        3.38423518       4.64949914       9.54648937       0.00039463      -0.00055797      -0.00068349
I        3.38423513       4.64949920       5.86166747       0.00039492      -0.00055756       0.00068279
I        5.51166833       1.64085468       9.54648928      -0.00039472       0.00055774      -0.00068321
