9
Lattice="4.1896868924821895 -8.319757016004401e-09 2.41891679933231 1.396562306821413 3.950074528176591 2.418916769590771 6.616079873566678e-09 -3.174752235051122e-08 4.837833587205209" Properties=species:S:1:pos:R:3:forces:R:3 energy=-36.21674346923828 free_energy=-36.21674346923828 stress="-0.00019892764976248145 6.569702293290902e-08 -2.0525614985444918e-08 6.569702293290902e-08 -0.00019896258891094476 -3.680563054331287e-08 -2.0525614985444918e-08 -3.680563054331287e-08 -0.00019873748533427715" pbc="T T T"
Zn       1.39656251       0.98751862       2.41891657      -0.00000042       0.00000015       0.00000103
Zn       4.18968687       2.96255615       7.25675052       0.00000093      -0.00000050      -0.00000097
Be      -0.00000001       0.00000009       0.00000020       0.00000179      -0.00000343      -0.00000049
F        1.36250946       0.96343970       4.83783370       0.00293005       0.00206268      -0.00000351
F        4.22373953       2.98663467       4.83783381      -0.00292575      -0.00206950      -0.00000299
F        3.50843239       0.96343957       3.59888432      -0.00147003       0.00207826       0.00253835
F        2.07781697       2.98663445       6.07678195       0.00146115      -0.00206470      -0.00252151
F        2.07781649       2.98663510       3.59888502       0.00146759      -0.00207394       0.00252941
F        3.50843247       0.96343953       6.07678248      -0.00146541       0.00207135      -0.00253913
