9
Lattice="6.148958962887266 1.2116640103133573e-08 3.5501029799103345 2.049652994464669 5.797293974339748 3.5501029878572163 -3.328470818917677e-08 -1.3802934999025319e-08 7.100206017471482" Properties=species:S:1:pos:R:3:forces:R:3 energy=-18.3266658782959 free_energy=-18.3266658782959 stress="8.555045496905223e-05 -8.772136794732432e-09 4.547906051755035e-09 -8.772136794732432e-09 8.554201485821977e-05 -3.6317746587855027e-09 4.547906051755035e-09 -3.6317746587855027e-09 8.555171370971948e-05" pbc="T T T"
Zn       2.04965237       1.44932326       3.55010271      -0.00000078      -0.00000020      -0.00000057
Zn       6.14895847       4.34796977      10.65030966      -0.00000126      -0.00000192       0.00000101
Be      -0.00000004      -0.00000003      -0.00000002       0.00000008       0.00000028       0.00000046
Br       1.98886732       1.40634163       7.10020603      -0.00027649      -0.00019582       0.00000064
Br       6.20974486       4.39095248       7.10020583       0.00027640       0.00019635       0.00000034
Br       5.15452594       1.40634178       5.27251206       0.00013982      -0.00019641      -0.00023955
Br       3.04408646       4.39095259       8.92789989      -0.00013772       0.00019591       0.00023845
Br       3.04408662       4.39095267       5.27251197      -0.00013845       0.00019726      -0.00023925
Br       5.15452569       1.40634168       8.92789991       0.00013836      -0.00019532       0.00023861
