9
Lattice="6.566711656019972 -2.47734330960791e-07 3.79129235686255 2.1889036396012944 6.191156071494028 3.791292377946055 -3.359446017022448e-07 -2.117268521132464e-07 7.582585295598276" Properties=species:S:1:pos:R:3:forces:R:3 energy=-17.437049865722656 free_energy=-17.437049865722656 stress="0.00010449624096509069 -1.5927209773280993e-08 -7.491165021633606e-09 -1.5927209773280993e-08 0.0001044828532030806 1.7606746061105127e-09 -7.491165021633606e-09 1.7606746061105127e-09 0.00010440810001455247" pbc="T T T"
Zn       2.18890316       1.54778597       3.79129466       0.00000028       0.00000063      -0.00000049
Zn       6.56671399       4.64336714      11.37387900      -0.00000034      -0.00000015      -0.00000032
C       -0.00000163      -0.00000002       0.00000269       0.00000058      -0.00000033      -0.00000158
Br       1.89662788       1.34111820       7.58258423      -0.00434670      -0.00307050      -0.00000104
Br       6.85898967       4.85003875       7.58258459       0.00433302       0.00306430      -0.00000215
Br       5.61839726       1.34111737       5.43381758       0.00217272      -0.00306487      -0.00375488
Br       3.13721671       4.85003825       9.73135005      -0.00216939       0.00307229       0.00375491
Br       3.13721648       4.85003868       5.43381711      -0.00216535       0.00306809      -0.00375149
Br       5.61839624       1.34111804       9.73135023       0.00217500      -0.00306922       0.00375715
