9
Lattice="6.375821101193072 -6.574682941909254e-08 3.6810820110402727 2.1252736524918454 6.0111816762245045 3.6810819866515367 2.1698061691238018e-08 -1.4527157849704865e-08 7.36216398449838" Properties=species:S:1:pos:R:3:forces:R:3 energy=-15.09893798828125 free_energy=-15.09893798828125 stress="3.96588075091131e-05 -3.7798311147696495e-09 7.352512820801849e-09 -3.7798311147696495e-09 3.9646671211812645e-05 -5.0657278372057135e-09 7.352512820801849e-09 -5.0657278372057135e-09 3.9630558603676036e-05" pbc="T T T"
Zn       2.12527358       1.50279547       3.68108194      -0.00000053       0.00000054       0.00000010
Zn       6.37582105       4.50838621      11.04324578       0.00000003       0.00000027      -0.00000129
Cd      -0.00000029      -0.00000022       0.00000038      -0.00000091       0.00000148      -0.00000006
Br       2.23110626       1.57763021       7.36216387      -0.00244656      -0.00173047       0.00000010
Br       6.26998863       4.43355137       7.36216407       0.00244674       0.00172983      -0.00000104
Br       5.26026793       1.57763014       5.61327691       0.00122242      -0.00172964      -0.00211939
Br       3.24082704       4.43355136       9.11105117      -0.00122248       0.00172988       0.00212020
Br       3.24082687       4.43355148       5.61327677      -0.00122340       0.00172964      -0.00211880
Br       5.26026802       1.57763029       9.11105108       0.00122467      -0.00173159       0.00212014
