9
Lattice="6.015364280844065 1.0728484810815273e-07 3.472972166086321 2.005121486264192 5.671340050514095 3.472972238543195 9.345448600415697e-08 1.5482339452361982e-07 6.945944170304729" Properties=species:S:1:pos:R:3:forces:R:3 energy=-22.833887100219727 free_energy=-22.833887100219727 stress="-3.387731567272567e-06 2.4451920488388623e-09 -6.07824190979045e-08 2.4451920488388623e-09 -3.450789790804265e-06 -4.5900367950935106e-08 -6.07824190979045e-08 -4.5900367950935106e-08 -3.3425517358409707e-06" pbc="T T T"
Zn       2.00511942       1.41783096       3.47297213      -0.00000540      -0.00000900      -0.00000061
Zn       6.01536321       4.25350619      10.41890872      -0.00000270       0.00000136      -0.00001601
Co       0.00000047       0.00000085       0.00000040       0.00000003      -0.00000295       0.00000341
Cl       1.82017853       1.28706049       6.94594486       0.00004515       0.00003329       0.00000225
Cl       6.20030775       4.38427997       6.94594675      -0.00004199      -0.00002792       0.00000212
Cl       5.10527558       1.28706032       5.04929466      -0.00001954       0.00003034       0.00003824
Cl       2.91521178       4.38428093       8.84259634       0.00002286      -0.00002918      -0.00003535
Cl       2.91521118       4.38428002       5.04929398       0.00002225      -0.00002739       0.00003913
Cl       5.10527561       1.28706151       8.84259651      -0.00002098       0.00003144      -0.00003296
