9
Lattice="6.09022554725062 -3.6227819129769164e-08 3.5161935022680817 2.0300752053630204 5.74192019501368 3.5161934033644076 4.578082621476846e-08 -8.875982405545507e-08 7.0323869252414175" Properties=species:S:1:pos:R:3:forces:R:3 energy=-28.066198348999023 free_energy=-28.066198348999023 stress="-1.6082813090179116e-05 -1.0109998394014497e-09 -2.5817947779671613e-09 -1.0109998394014497e-09 -1.6105743270600215e-05 -3.4254898917396304e-09 -2.5817947779671613e-09 -3.4254898917396304e-09 -1.610105755389668e-05" pbc="T T T"
Zn       2.03007544       1.43547971       3.51619226       0.00000074      -0.00000134      -0.00000085
Zn       6.09022512       4.30644051      10.54857966      -0.00000074       0.00000025      -0.00000116
Cr      -0.00000006      -0.00000003      -0.00000053      -0.00000010       0.00000135       0.00000934
Cl       1.88694504       1.33427154       7.03238703       0.00004117       0.00002901       0.00000112
Cl       6.23335615       4.40764887       7.03238683      -0.00004250      -0.00003006       0.00000095
Cl       5.14675277       1.33427192       5.15033636      -0.00001879       0.00002687       0.00003409
Cl       2.97354771       4.40764855       8.91443864       0.00002337      -0.00003257      -0.00003873
Cl       2.97354767       4.40764782       5.15033646       0.00001923      -0.00002654       0.00003400
Cl       5.14675347       1.33427133       8.91443865      -0.00002247       0.00003316      -0.00003886
