9
Lattice="6.565926622009653 -1.7937036530438868e-09 3.7908395163131976 2.188642210676438 6.190414977275952 3.7908395075992196 1.8322911387316267e-08 2.283867211349888e-09 7.581679000890155" Properties=species:S:1:pos:R:3:forces:R:3 energy=-14.965322494506836 free_energy=-14.965322494506836 stress="0.00010686699533835053 6.420988740707401e-10 -1.5269152608965442e-09 6.420988740707401e-10 0.00010685089364415035 -6.159441845454694e-09 -1.5269152608965442e-09 -6.159441845454694e-09 0.00010686109453672543" pbc="T T T"
Zn       2.18864221       1.54760375       3.79083956       0.00000005      -0.00000014       0.00000017
Zn       6.56592667       4.64281126      11.37251845      -0.00000001      -0.00000001       0.00000010
Cu       0.00000000      -0.00000009       0.00000008      -0.00000027       0.00000016      -0.00000004
I        2.21402082       1.56554917       7.58167899      -0.00029989      -0.00021199       0.00000007
I        6.54054800       4.62486584       7.58167908       0.00030024       0.00021218      -0.00000064
I        5.45891637       1.56554903       5.70823784       0.00015002      -0.00021172      -0.00025934
I        3.29565263       4.62486589       9.45512015      -0.00014994       0.00021126       0.00025940
I        3.29565243       4.62486595       5.70823784      -0.00014983       0.00021203      -0.00025958
I        5.45891628       1.56554914       9.45512009       0.00014966      -0.00021180       0.00025993
