9
Lattice="6.191103813913083 -4.133083938489208e-08 3.5744354562289535 2.0637012352941473 5.837028711341419 3.5744354511074907 -4.447452384560996e-08 -3.7720721431724704e-08 7.148870989490046" Properties=species:S:1:pos:R:3:forces:R:3 energy=-17.03912925720215 free_energy=-17.03912925720215 stress="-4.100759178982116e-05 -3.4357645617433263e-09 -2.819319666613751e-09 -3.4357645617433263e-09 -4.1018298361450434e-05 -4.18106926858286e-09 -2.819319666613751e-09 -4.18106926858286e-09 -4.101487866137177e-05" pbc="T T T"
Zn       2.06370155       1.45925749       3.57443550       0.00000081       0.00000063      -0.00000014
Zn       6.19110382       4.37777142      10.72330652       0.00000036      -0.00000005       0.00000048
Cu      -0.00000013       0.00000008      -0.00000020      -0.00000078       0.00000027      -0.00000027
Br       2.02952324       1.43508967       7.14887105      -0.00105450      -0.00074507      -0.00000012
Br       6.22528174       4.40193887       7.14887089       0.00105402       0.00074466      -0.00000025
Br       5.17634214       1.43508964       5.33205418       0.00052744      -0.00074528      -0.00091283
Br       3.07846283       4.40193889       8.96568776      -0.00052729       0.00074522       0.00091298
Br       3.07846283       4.40193892       5.33205399      -0.00052713       0.00074510      -0.00091302
Br       5.17634200       1.43508958       8.96568790       0.00052728      -0.00074561       0.00091308
