9
Lattice="4.2569919443451 -1.3133799693659149e-08 2.4577753988757562 1.4189973391496702 4.013530291283688 2.45777533522174 2.3003277809447958e-08 -6.169415130165435e-08 4.915550757908672" Properties=species:S:1:pos:R:3:forces:R:3 energy=-32.709049224853516 free_energy=-32.709049224853516 stress="6.418728298740461e-05 4.362053829254364e-08 2.0926393062836723e-08 4.362053829254364e-08 6.400727579602972e-05 9.465083827819853e-09 2.0926393062836723e-08 9.465083827819853e-09 6.42047671135515e-05" pbc="T T T"
Zn       1.41899730       1.00338250       2.45777535      -0.00000023      -0.00000138       0.00000001
Zn       4.25699183       3.01014755       7.37332619      -0.00000003      -0.00000013       0.00000036
C       -0.00000012       0.00000011      -0.00000030       0.00000008       0.00000106      -0.00000031
F        1.27747816       0.90331316       4.91555055      -0.00010514      -0.00006965      -0.00000050
F        4.39851163       3.11021714       4.91555072       0.00010550       0.00007227      -0.00000112
F        3.61825294       0.90331324       3.56410369       0.00005177      -0.00007066      -0.00009149
F        2.05773629       3.11021733       6.26699784      -0.00005203       0.00006831       0.00009012
F        2.05773616       3.11021709       3.56410392      -0.00005198       0.00006944      -0.00008863
F        3.61825311       0.90331286       6.26699799       0.00005129      -0.00006917       0.00009102
