9
Lattice="6.549709608195279 -3.429655997346911e-08 3.7814765841370725 2.1832364744386283 6.175125494790704 3.7814766348711735 -6.091533503857177e-08 1.9062734809862152e-08 7.56295327378256" Properties=species:S:1:pos:R:3:forces:R:3 energy=-15.435872077941895 free_energy=-15.435872077941895 stress="-6.774559733457863e-05 1.5490536853235426e-08 -8.218354885514145e-09 1.5490536853235426e-08 -6.776888039894402e-05 -1.7525934481454897e-08 -8.218354885514145e-09 -1.7525934481454897e-08 -6.779106479370967e-05" pbc="T T T"
Zn       2.18323641       1.54378127       3.78147662      -0.00000015       0.00000003       0.00000014
Zn       6.54970955       4.63134407      11.34442989      -0.00000028      -0.00000045      -0.00000010
C       -0.00000049      -0.00000035       0.00000028       0.00000105      -0.00000194      -0.00000123
I        2.17823210       1.54024285       7.56295321      -0.00160664      -0.00113612      -0.00000092
I        6.55471442       4.63488285       7.56295322       0.00160718       0.00113717       0.00000070
I        5.46059369       1.54024265       5.66788063       0.00080341      -0.00113600      -0.00139076
I        3.27235232       4.63488304       9.45802585      -0.00080368       0.00113621       0.00139180
I        3.27235239       4.63488286       5.66788076      -0.00080374       0.00113678      -0.00139064
I        5.46059365       1.54024269       9.45802557       0.00080317      -0.00113574       0.00139117
