9
Lattice="6.319119231378974 2.945493123525418e-08 3.6483453104544434 2.1063731462432376 5.957722829751423 3.648345238840125 6.36238066632788e-08 -4.272047142567481e-08 7.296690510709251" Properties=species:S:1:pos:R:3:forces:R:3 energy=-25.477222442626953 free_energy=-25.477222442626953 stress="-2.4927210688474588e-05 -1.6651101830689186e-08 -1.6108902656242208e-08 -1.6651101830689186e-08 -2.4930526706157252e-05 1.7882276992509105e-08 -1.6108902656242208e-08 1.7882276992509105e-08 -2.4913528250181116e-05" pbc="T T T"
Zn       2.10637310       1.48943109       3.64834473       0.00000009      -0.00000001      -0.00000032
Zn       6.31911914       4.46829184      10.94503528      -0.00000035      -0.00000004      -0.00000040
Cr       0.00000012       0.00000062      -0.00000024      -0.00000157      -0.00000879       0.00000269
Br       2.00136493       1.41517844       7.29669068       0.00354268       0.00250525       0.00000062
Br       6.42412709       4.54254421       7.29669070      -0.00353694      -0.00250235       0.00000084
Br       5.31843681       1.41517883       5.38157840      -0.00176839       0.00250205       0.00306487
Br       3.10705573       4.54254409       9.21180283       0.00176820      -0.00250115      -0.00306218
Br       3.10705587       4.54254371       5.38157867       0.00176753      -0.00250085       0.00306242
Br       5.31843697       1.41517842       9.21180316      -0.00177123       0.00250609      -0.00306834
