9
Lattice="6.865445691433437 1.4804480181722998e-08 3.9637668530533414 2.288481906595279 6.472804127866133 3.9637668608597023 -4.724853532733855e-08 -2.3848976541709684e-08 7.927533787943575" Properties=species:S:1:pos:R:3:forces:R:3 energy=-13.071158409118652 free_energy=-13.071158409118652 stress="7.815855497028679e-05 2.2557200551887036e-09 -1.1162001989362125e-08 2.2557200551887036e-09 7.815216667950153e-05 1.41348053261936e-08 -1.1162001989362125e-08 1.41348053261936e-08 7.814442506060004e-05" pbc="T T T"
Zn       2.28848181       1.61820097       3.96376694      -0.00000044       0.00000004       0.00000002
Zn       6.86544564       4.85460308      11.89130068      -0.00000014       0.00000012       0.00000033
Cd       0.00000031      -0.00000009       0.00000004      -0.00000170       0.00000020       0.00000099
I        2.41581244       1.70823736       7.92753387      -0.00349152      -0.00246963      -0.00000064
I        6.73811493       4.76456661       7.92753369       0.00349319       0.00247040       0.00000027
I        5.65753943       1.70823751       6.05592179       0.00174622      -0.00246932      -0.00302428
I        3.49638816       4.76456672       9.79914562      -0.00174518       0.00246817       0.00302243
I        3.49638812       4.76456681       6.05592163      -0.00174573       0.00246780      -0.00302263
I        5.65753937       1.70823741       9.79914565       0.00174528      -0.00246792       0.00302358
