9
Lattice="5.915446088807837 -1.9752253451366766e-07 3.415284423619667 1.971815187346745 5.577136223379154 3.415284405196121 -1.6430792545607222e-07 -1.387474166128615e-07 6.830569131828912" Properties=species:S:1:pos:R:3:forces:R:3 energy=-18.767562866210938 free_energy=-18.767562866210938 stress="-0.00015665151295252144 -3.410247018109658e-08 -8.274872342894923e-09 -3.410247018109658e-08 -0.00015657824405934662 1.0193323518592479e-08 -8.274872342894923e-09 1.0193323518592479e-08 -0.00015671871369704604" pbc="T T T"
Zn       1.97181717       1.39428554       3.41528402       0.00000415       0.00000661      -0.00000195
Zn       5.91544426       4.18285058      10.24585737      -0.00000443      -0.00000614       0.00001516
Cu      -0.00000059       0.00000093      -0.00000063       0.00000531      -0.00000684       0.00000294
Cl       1.89260794       1.33827626       6.83056894       0.00159234       0.00112420      -0.00000044
Cl       5.99465299       4.23886043       6.83056780      -0.00159329      -0.00112721      -0.00000239
Cl       4.96914221       1.33827691       5.05433076      -0.00079677       0.00113094       0.00137678
Cl       2.91811864       4.23885856       8.60680621       0.00079560      -0.00112754      -0.00137800
Cl       2.91811996       4.23885871       5.05433136       0.00079659      -0.00112340       0.00137118
Cl       4.96914193       1.33827558       8.60680590      -0.00079942       0.00112939      -0.00138322
