9
Lattice="6.758847192526553 6.271070487973188e-08 3.902222352824121 2.252949119893241 6.372302358700387 3.9022223587242832 1.9621060905138782e-09 8.613575520892889e-09 7.804444702249787" Properties=species:S:1:pos:R:3:forces:R:3 energy=-22.36678123474121 free_energy=-22.36678123474121 stress="6.968170055188239e-05 9.792398003583003e-09 -6.204630698114499e-10 9.792398003583003e-09 6.968246452743188e-05 -5.520701229499991e-09 -6.204630698114499e-10 -5.520701229499991e-09 6.967250374145806e-05" pbc="T T T"
Zn       2.25294907       1.59307553       3.90222234       0.00000026       0.00000007       0.00000008
Zn       6.75884730       4.77922683      11.70666707      -0.00000015      -0.00000036      -0.00000013
Cr       0.00000002       0.00000026      -0.00000056      -0.00000162      -0.00000442       0.00000761
I        2.17394768       1.53721314       7.80444473       0.00063286       0.00044733       0.00000055
I        6.83784862       4.83508909       7.80444458      -0.00063053      -0.00044569       0.00000025
I        5.67187320       1.53721337       5.78491614      -0.00031546       0.00044644       0.00054719
I        3.33992272       4.83508950       9.82397359       0.00031796      -0.00044898      -0.00055039
I        3.33992311       4.83508894       5.78491628       0.00031481      -0.00044428       0.00054550
I        5.67187350       1.53721302       9.82397348      -0.00031813       0.00044994      -0.00055081
