9
Lattice="6.241096434564631 -8.145241557290524e-08 3.603298673342814 2.08036543159544 5.88416195345914 3.6032986210327094 2.6807639632472082e-08 -4.511067075539326e-08 7.206597300253325" Properties=species:S:1:pos:R:3:forces:R:3 energy=-20.480716705322266 free_energy=-20.480716705322266 stress="-8.149620953190606e-06 -7.793919287735207e-09 1.8380846844578969e-10 -7.793919287735207e-09 -8.144018465827685e-06 4.213998039404032e-10 1.8380846844578969e-10 4.213998039404032e-10 -8.14359555079136e-06" pbc="T T T"
Zn       2.08036555       1.47104043       3.60329898      -0.00000009      -0.00000028      -0.00000006
Zn       6.24109645       4.41312139      10.80989587       0.00000005      -0.00000021      -0.00000056
Co      -0.00000001      -0.00000001      -0.00000028      -0.00000016       0.00000025       0.00000034
Br       2.00141492       1.41521393       7.20659739       0.00725511       0.00512915      -0.00000063
Br       6.32004662       4.46894765       7.20659734      -0.00725345      -0.00512914      -0.00000014
Br       5.24038913       1.41521411       5.33657486      -0.00362773       0.00512933       0.00628246
Br       3.08107315       4.46894758       9.07661957       0.00362585      -0.00512769      -0.00628042
Br       3.08107285       4.46894782       5.33657483       0.00362672      -0.00512981       0.00628105
Br       5.24038896       1.41521439       9.07661969      -0.00362634       0.00512838      -0.00628223
