9
Lattice="4.490846588605403 -4.1851963987811684e-08 2.592791494895836 1.496948822280519 4.234010660809361 2.5927914968522354 3.8030850060322765e-08 2.928795344720459e-08 5.185582923920317" Properties=species:S:1:pos:R:3:forces:R:3 energy=-29.947460174560547 free_energy=-29.947460174560547 stress="0.00025616545462980866 -6.7485870225425515e-09 -2.7258775237015698e-09 -6.7485870225425515e-09 0.0002561990113463253 1.708343155826242e-08 -2.7258775237015698e-09 1.708343155826242e-08 0.000256139348493889" pbc="T T T"
Zn       1.49694924       1.05850285       2.59279146       0.00000159       0.00000049      -0.00000055
Zn       4.49084644       3.17550809       7.77837439       0.00000080       0.00000191       0.00000123
Cu      -0.00000002       0.00000005      -0.00000002      -0.00000249      -0.00000323      -0.00000605
F        1.53215318       1.08339548       5.18558320      -0.00154147      -0.00108925      -0.00000133
F        4.45564243       3.15061483       5.18558288       0.00154504       0.00109315       0.00000195
F        3.72476997       1.08339594       3.91967487       0.00076971      -0.00109240      -0.00133672
F        2.26302536       3.15061483       6.45149088      -0.00077208       0.00109233       0.00133888
F        2.26302531       3.15061488       3.91967498      -0.00077358       0.00108813      -0.00133501
F        3.72476992       1.08339559       6.45149100       0.00077248      -0.00109123       0.00133792
