9
Lattice="4.867009291130005 -2.52527261063809e-08 2.8099691918406524 1.6223364671533236 4.588660728283415 2.8099690869040526 -7.71849975701012e-08 -1.830985930776671e-07 5.619938517369677" Properties=species:S:1:pos:R:3:forces:R:3 energy=-37.7397346496582 free_energy=-37.7397346496582 stress="-0.0002788352721836418 2.355689510125103e-08 1.527795667755072e-09 2.355689510125103e-08 -0.00027887988835573196 -3.7096632432565002e-09 1.527795667755072e-09 -3.7096632432565002e-09 -0.0002789425489027053" pbc="T T T"
Zn       1.62233512       1.14716427       2.80996967      -0.00000867      -0.00000423       0.00000224
Zn       4.86700940       3.44149450       8.42990663       0.00000034      -0.00000694      -0.00000553
Cr       0.00000027       0.00000020      -0.00000042      -0.00000402      -0.00000680       0.00001154
F        1.57149738       1.11121546       5.61993895       0.00113933       0.00080414       0.00000053
F        4.91784822       3.47744511       5.61993837      -0.00113368      -0.00079810      -0.00000061
F        4.08126154       1.11121671       4.17092497      -0.00056433       0.00080518       0.00098616
F        2.40808507       3.47744440       7.06895151       0.00056994      -0.00080273      -0.00098880
F        2.40808394       3.47744405       4.17092560       0.00056354      -0.00080073       0.00098445
F        4.08126248       1.11121718       7.06895140      -0.00056249       0.00081018      -0.00099007
