9
Lattice="6.581628326764606 -2.9118348648403127e-08 3.799905038732443 2.1938760560599926 6.205218775748092 3.7999050827412573 1.0767649426169377e-08 6.151349897161945e-08 7.599810058814699" Properties=species:S:1:pos:R:3:forces:R:3 energy=-18.097122192382812 free_energy=-18.097122192382812 stress="0.00010194788774242625 1.608733590785505e-09 -6.877842739783091e-10 1.608733590785505e-09 0.00010194602509727702 9.415446200478073e-11 -6.877842739783091e-10 9.415446200478073e-11 0.00010194164497079328" pbc="T T T"
Zn       2.19387608       1.55130460       3.79990504      -0.00000001      -0.00000011       0.00000004
Zn       6.58162830       4.65391404      11.39971517      -0.00000003       0.00000003       0.00000001
Co      -0.00000015       0.00000011       0.00000012       0.00000037       0.00000017      -0.00000028
I        2.16877446       1.53355517       7.59981006      -0.00011727      -0.00008336       0.00000015
I        6.60672989       4.67166358       7.59981006       0.00011681       0.00008297      -0.00000039
I        5.49724106       1.53355516       5.67811898       0.00005863      -0.00008263      -0.00010127
I        3.27826342       4.67166370       9.52150123      -0.00005867       0.00008292       0.00010179
I        3.27826339       4.67166363       5.67811889      -0.00005842       0.00008310      -0.00010176
I        5.49724110       1.53355527       9.52150114       0.00005858      -0.00008312       0.00010172
