9
Lattice="4.8815076299405105 -5.5791052599298015e-08 2.8183397120189646 1.6271691082391984 4.602329903469012 2.8183397971331274 -7.895104889092776e-09 9.866042187232108e-08 5.636679437712634" Properties=species:S:1:pos:R:3:forces:R:3 energy=-25.94585418701172 free_energy=-25.94585418701172 stress="0.0002508816251065582 -7.991307171550943e-08 1.6996930085610984e-08 -7.991307171550943e-08 0.0002506465243641287 2.3331930165682024e-08 1.6996930085610984e-08 2.3331930165682024e-08 0.00025086262030526996" pbc="T T T"
Zn       1.62716879       1.15058337       2.81833969      -0.00000773       0.00000649       0.00000271
Zn       4.88150767       3.45174643       8.45501910       0.00000388      -0.00000820      -0.00000559
Cd      -0.00000016       0.00000005      -0.00000009       0.00000583       0.00000345      -0.00000447
F        1.73698138       1.22823228       5.63667955       0.00292188       0.00207087       0.00000265
F        4.77169551       3.37409783       5.63667896      -0.00292861      -0.00207490      -0.00000282
F        4.01301653       1.22823115       4.32261029      -0.00146288       0.00206915       0.00253558
F        2.49566051       3.37409829       6.95074910       0.00146362      -0.00206620      -0.00253147
F        2.49565919       3.37409773       4.32261006       0.00146165      -0.00207391       0.00253618
F        4.01301753       1.22823264       6.95074888      -0.00145799       0.00207362      -0.00253248
