9
Lattice="6.700163411032114 -2.5729087785831693e-08 3.8683411360696622 2.233387806831761 6.3169746624881755 3.8683410885907796 5.800478284650113e-08 -1.7133930246647045e-08 7.736682171672069" Properties=species:S:1:pos:R:3:forces:R:3 energy=-20.252132415771484 free_energy=-20.252132415771484 stress="-5.2684495130961295e-06 4.506190143249711e-10 1.2688975203900554e-08 4.506190143249711e-10 -5.260224497760646e-06 -4.452868296311863e-09 1.2688975203900554e-08 -4.452868296311863e-09 -5.288233296596445e-06" pbc="T T T"
Zn       2.23338782       1.57924367       3.86834111      -0.00000013      -0.00000012       0.00000006
Zn       6.70016352       4.73773100      11.60502322       0.00000009       0.00000010      -0.00000014
Fe       0.00000016       0.00000041      -0.00000010      -0.00000006      -0.00001003      -0.00000018
I        1.98989426       1.40706782       7.73668219       0.00432280       0.00305659      -0.00000047
I        6.94365639       4.90990670       7.73668217      -0.00431773      -0.00305277       0.00000070
I        5.70521654       1.40706778       5.59163995      -0.00216187       0.00305628       0.00374503
I        3.22833497       4.90990685       9.88172438       0.00216006      -0.00305396      -0.00374167
I        3.22833497       4.90990660       5.59164011       0.00215841      -0.00305279       0.00374072
I        5.70521629       1.40706764       9.88172455      -0.00216150       0.00305693      -0.00374409
