9
Lattice="6.4807184363154064 -7.238330243848931e-08 3.741644413243635 2.1602394061191883 6.110079987843365 3.741644420880267 1.4854477299168297e-08 1.9856586801920314e-08 7.483288800758739" Properties=species:S:1:pos:R:3:forces:R:3 energy=-23.707378387451172 free_energy=-23.707378387451172 stress="7.132408063625917e-05 -2.6038629030722404e-08 2.286234312975921e-08 -2.6038629030722404e-08 7.130597077775747e-05 -6.536825303271598e-09 2.286234312975921e-08 -6.536825303271598e-09 7.134375482564792e-05" pbc="T T T"
Zn       2.16023909       1.52751990       3.74164436       0.00000011       0.00000017       0.00000011
Zn       6.48071864       4.58256070      11.22493360      -0.00000002      -0.00000034      -0.00000039
Fe      -0.00000012      -0.00000016      -0.00000014       0.00000048       0.00000065      -0.00000703
Br       1.83903799       1.30039590       7.48328907      -0.00344983      -0.00243801      -0.00000122
Br       6.80192005       4.80968395       7.48328884       0.00345013       0.00243835       0.00000095
Br       5.56119945       1.30039624       5.33429782       0.00172447      -0.00243913      -0.00298661
Br       3.07975833       4.80968370       9.63227951      -0.00172627       0.00244071       0.00299145
Br       3.07975853       4.80968378       5.33429801      -0.00172749       0.00243950      -0.00298995
Br       5.56119941       1.30039597       9.63227947       0.00172834      -0.00244197       0.00299250
