9
Lattice="4.5283344186659535 -5.8709692249880856e-08 2.6144350629280986 1.5094447793475476 4.269354599786059 2.614435013603461 7.647573702200727e-08 -6.333575392820481e-09 5.228869993396347" Properties=species:S:1:pos:R:3:forces:R:3 energy=-34.482177734375 free_energy=-34.482177734375 stress="-0.0008001174428500235 3.3104938790273764e-09 1.33973694360634e-08 3.3104938790273764e-09 -0.0008002168615348637 -5.596453078737795e-08 1.33973694360634e-08 -5.596453078737795e-08 -0.0008001328678801656" pbc="T T T"
Zn       1.50944461       1.06733845       2.61443507      -0.00000198       0.00000049      -0.00000018
Zn       4.52833441       3.20201529       7.84330508       0.00000000      -0.00000464       0.00000078
Fe      -0.00000014       0.00000004      -0.00000005       0.00000004      -0.00000408       0.00000536
F        1.54563096       1.09292652       5.22887002      -0.00387846      -0.00273975      -0.00000030
F        4.49214845       3.17642810       5.22887009       0.00388023       0.00274307      -0.00000026
F        3.75551903       1.09292622       3.95299087       0.00193977      -0.00274160      -0.00335873
F        2.28226053       3.17642852       6.50474928      -0.00193842       0.00274264       0.00335703
F        2.28226067       3.17642842       3.95299072      -0.00194035       0.00274624      -0.00336317
F        3.75551866       1.09292646       6.50474928       0.00193916      -0.00274220       0.00335948
