9
Lattice="6.2066794852122005 4.018448267087001e-08 3.583428040291155 2.068893203362905 5.851713817401682 3.583428033814669 2.0163783015084184e-07 1.3464745571316096e-07 7.166855731335314" Properties=species:S:1:pos:R:3:forces:R:3 energy=-22.924331665039062 free_energy=-22.924331665039062 stress="-0.0001158111626864411 -2.8130362483835825e-09 -3.0063400657809325e-08 -2.8130362483835825e-09 -0.00011582389561226591 -1.3546552324328331e-08 -3.0063400657809325e-08 -1.3546552324328331e-08 -0.00011581183935049921" pbc="T T T"
Zn       2.06889317       1.46292823       3.58342895       0.00000038      -0.00000024       0.00000040
Zn       6.20667969       4.38878518      10.75028301       0.00000007      -0.00000034      -0.00000048
Ge       0.00000023      -0.00000014       0.00000014      -0.00000202       0.00000346      -0.00000132
Cl       1.85402024       1.31099023       7.16685587      -0.00681913      -0.00482236       0.00000135
Cl       6.42155282       4.54072395       7.16685666       0.00682014       0.00482212      -0.00000150
Cl       5.27966923       1.31099081       5.18905600       0.00341110      -0.00482319      -0.00590605
Cl       2.99590382       4.54072406       9.14465515      -0.00341064       0.00482066       0.00590643
Cl       2.99590269       4.54072349       5.18905639      -0.00340851       0.00482260      -0.00590527
Cl       5.27966968       1.31099014       9.14465514       0.00340898      -0.00482273       0.00590631
