9
Lattice="6.793513354049357 -2.507807326583878e-08 3.922236821056339 2.2645044194538553 6.40498591153305 3.9222368353493287 -2.0663043533767614e-08 2.8942604273789814e-09 7.844473677902139" Properties=species:S:1:pos:R:3:forces:R:3 energy=-16.412303924560547 free_energy=-16.412303924560547 stress="0.00014042033581063151 4.4711079283388244e-09 8.941378748517081e-10 4.4711079283388244e-09 0.00014041521353647113 5.151228332778146e-09 8.941378748517081e-10 5.151228332778146e-09 0.0001404028298566118" pbc="T T T"
Zn       2.26450449       1.60124652       3.92223686       0.00000025      -0.00000027       0.00000028
Zn       6.79351326       4.80373936      11.76671041      -0.00000014       0.00000022      -0.00000033
Ge       0.00000011       0.00000004       0.00000015      -0.00000004       0.00000031      -0.00000008
I        2.35023850       1.66186961       7.84447358      -0.00521106      -0.00368479       0.00000010
I        6.70777929       4.74311629       7.84447377       0.00521085       0.00368454      -0.00000001
I        5.61839406       1.66186957       5.95760306       0.00260559      -0.00368470      -0.00451308
I        3.43962368       4.74311619       9.73134415      -0.00260547       0.00368460       0.00451270
I        3.43962354       4.74311630       5.95760314      -0.00260559       0.00368463      -0.00451277
I        5.61839404       1.66186969       9.73134424       0.00260559      -0.00368464       0.00451319
