9
Lattice="6.40847490884166 -1.675391643634739e-07 3.6999347524656185 2.13615814519082 6.041968418181802 3.6999347521174055 -9.51124686831487e-08 -6.768109595183265e-08 7.39986966967085" Properties=species:S:1:pos:R:3:forces:R:3 energy=-19.509170532226562 free_energy=-19.509170532226562 stress="-0.00012853914813604206 -1.5270128495004087e-09 -2.278103927721986e-09 -1.5270128495004087e-09 -0.00012852231157012284 1.1805879607251768e-09 -2.278103927721986e-09 1.1805879607251768e-09 -0.0001285391190322116" pbc="T T T"
Zn       2.13615808       1.51049219       3.69993505       0.00000005       0.00000011      -0.00000004
Zn       6.40847482       4.53147699      11.09980404       0.00000002       0.00000028       0.00000004
Ge       0.00000012      -0.00000013       0.00000022       0.00000110       0.00000219       0.00000311
Br       1.99908456       1.41356608       7.39986971      -0.00135002      -0.00095488      -0.00000047
Br       6.54554886       4.62840196       7.39986957       0.00134639       0.00095275       0.00000067
Br       5.40893245       1.41356605       5.43119301       0.00067494      -0.00095446      -0.00116888
Br       3.13570034       4.62840157       9.36854632      -0.00067259       0.00095297       0.00116585
Br       3.13570031       4.62840185       5.43119265      -0.00067476       0.00095467      -0.00116882
Br       5.40893227       1.41356619       9.36854613       0.00067487      -0.00095379       0.00116840
