9
Lattice="5.970502961995412 3.7844464208407414e-08 3.4470713069361745 1.9901677224760594 5.629044124629017 3.4470712501290977 1.1212154302808573e-07 9.707855271893334e-09 6.894142419672136" Properties=species:S:1:pos:R:3:forces:R:3 energy=-20.056610107421875 free_energy=-20.056610107421875 stress="-1.2737147699226625e-05 -5.377758682811873e-08 -2.3362147771877062e-08 -5.377758682811873e-08 -1.2746868378599174e-05 -2.595487735845836e-08 -2.3362147771877062e-08 -2.595487735845836e-08 -1.274968235520646e-05" pbc="T T T"
Zn       1.99016819       1.40726302       3.44707077      -0.00000015       0.00000594      -0.00000234
Zn       5.97050217       4.22178232      10.34121381      -0.00000099      -0.00000163       0.00000058
Mg       0.00000034       0.00000047       0.00000015      -0.00000189      -0.00000312      -0.00000123
Cl       1.98200770       1.40148972       6.89414255       0.00045282       0.00032078      -0.00000177
Cl       5.97866296       4.22755317       6.89414258      -0.00044903      -0.00031364       0.00000437
Cl       4.97949969       1.40149103       5.16353970      -0.00022144       0.00031749       0.00038821
Cl       2.98117122       4.22755292       8.62474536       0.00022130      -0.00032198      -0.00038700
Cl       2.98117148       4.22755308       5.16353979       0.00022467      -0.00032104       0.00038596
Cl       4.97949940       1.40149101       8.62474526      -0.00022535       0.00031726      -0.00038668
