9
Lattice="4.466065253045615 2.9365001654393712e-08 2.5784839792654273 1.4886884415873092 4.210646937025562 2.578483985812863 5.0036618932381156e-08 4.340015414135812e-08 5.156967871864926" Properties=species:S:1:pos:R:3:forces:R:3 energy=-32.81568908691406 free_energy=-32.81568908691406 stress="0.0006180397467687726 5.762539601050776e-08 -1.2927783288319006e-09 5.762539601050776e-08 0.0006178799085319042 -8.077564928044012e-08 -1.2927783288319006e-09 -8.077564928044012e-08 0.0006180201307870448" pbc="T T T"
Zn       1.48868865       1.05266199       2.57848419       0.00000179       0.00000335       0.00000222
Zn       4.46606505       3.15798483       7.73545298      -0.00000316      -0.00000249       0.00000976
Mg      -0.00000004       0.00000011       0.00000000      -0.00000274      -0.00000021       0.00000114
F        1.51627012       1.07216429       5.15696746      -0.00374394      -0.00265296      -0.00000288
F        4.43848343       3.13848322       5.15696744       0.00374364       0.00265523      -0.00000443
F        3.70793116       1.07216532       3.89161194       0.00187626      -0.00263944      -0.00324652
F        2.24682299       3.13848169       6.42232419      -0.00187435       0.00264199       0.00324275
F        2.24682290       3.13848193       3.89161199      -0.00187499       0.00264410      -0.00324489
F        3.70793064       1.07216464       6.42232322       0.00187732      -0.00264956       0.00324300
