9
Lattice="6.175615460014254 -2.031092677640257e-08 3.5654933609711428 2.058538453917435 5.82242659492093 3.565493384535126 -2.0855946817992106e-07 -1.1861397670348525e-07 7.130987083177971" Properties=species:S:1:pos:R:3:forces:R:3 energy=-27.47237205505371 free_energy=-27.47237205505371 stress="6.63568134768866e-05 -8.635582915417217e-09 4.354516036642053e-08 -8.635582915417217e-09 6.644267705269158e-05 1.9777235849005592e-08 4.354516036642053e-08 1.9777235849005592e-08 6.637149635935202e-05" pbc="T T T"
Zn       2.05854103       1.45560852       3.56549253       0.00000244       0.00000129      -0.00000052
Zn       6.17561577       4.36681715      10.69648544       0.00000106      -0.00000262       0.00000550
Mn      -0.00000032       0.00000031      -0.00000101      -0.00000035      -0.00000777       0.00000808
Cl       1.83233273       1.29565582       7.13098678       0.00214267       0.00151479      -0.00000204
Cl       6.40182025       4.52677063       7.13098563      -0.00214031      -0.00151010       0.00000103
Cl       5.25944842       1.29565645       5.15234018      -0.00107178       0.00151102       0.00185040
Cl       2.97470429       4.52677084       9.10963254       0.00107189      -0.00151372      -0.00185481
Cl       2.97470520       4.52677086       5.15234080       0.00106730      -0.00150952       0.00184804
Cl       5.25944746       1.29565512       9.10963255      -0.00107318       0.00151666      -0.00185567
