9
Lattice="6.701974547102901 6.455305310271805e-08 3.869386727168949 2.2339915936737182 6.318682173926358 3.869386697530923 6.276051735324441e-08 8.0793668891698e-09 7.738773345633526" Properties=species:S:1:pos:R:3:forces:R:3 energy=-21.599224090576172 free_energy=-21.599224090576172 stress="-4.94573805553955e-06 8.532299311525549e-09 6.937713958876657e-09 8.532299311525549e-09 -4.961792910762597e-06 -2.457911651987388e-09 6.937713958876657e-09 -2.457911651987388e-09 -4.9516688704898115e-06" pbc="T T T"
Zn       2.23399139       1.57967069       3.86938695       0.00000013      -0.00000017      -0.00000017
Zn       6.70197453       4.73901147      11.60815991      -0.00000008      -0.00000008      -0.00000008
Mn       0.00000043       0.00000010      -0.00000138      -0.00000270       0.00000003       0.00001256
I        2.12905242       1.50546717       7.73877334       0.00064571       0.00045691       0.00000050
I        6.80691366       4.81321512       7.73877341      -0.00064433      -0.00045615       0.00000025
I        5.63744826       1.50546745       5.71320009      -0.00032044       0.00045407       0.00055559
I        3.29851756       4.81321568       9.76434711       0.00032511      -0.00046071      -0.00056253
I        3.29851774       4.81321454       5.71320036       0.00032112      -0.00045420       0.00055574
I        5.63744884       1.50546681       9.76434732      -0.00032463       0.00046025      -0.00056195
