9
Lattice="6.827912126807263 4.3786876623049637e-08 3.9420969665670906 2.2759707463677925 6.437417258166425 3.9420969732365294 4.505511725717048e-08 4.0027158997742994e-08 7.884193855096394" Properties=species:S:1:pos:R:3:forces:R:3 energy=-15.242661476135254 free_energy=-15.242661476135254 stress="-3.402548099984415e-05 -6.5360699075256434e-09 2.8978186517036875e-09 -6.5360699075256434e-09 -3.402516813366674e-05 -6.092632620635641e-09 2.8978186517036875e-09 -6.092632620635641e-09 -3.402651418582536e-05" pbc="T T T"
Zn       2.27597082       1.60935433       3.94209698       0.00000011       0.00000032      -0.00000011
Zn       6.82791214       4.82806291      11.82629081       0.00000003       0.00000019       0.00000045
Mg       0.00000011      -0.00000014      -0.00000039       0.00000007       0.00000210       0.00000172
I        2.35595861       1.66591413       7.88419368      -0.00349697      -0.00247180       0.00000049
I        6.74792458       4.77150321       7.88419400       0.00349498       0.00247061       0.00000037
I        5.64993277       1.66591460       5.98241707       0.00174908      -0.00247312      -0.00302835
I        3.45394976       4.77150325       9.78597138      -0.00174746       0.00247130       0.00302555
I        3.45394983       4.77150300       5.98241674      -0.00174820       0.00247240      -0.00302774
I        5.64993304       1.66591407       9.78597098       0.00174824      -0.00247201       0.00302774
