9
Lattice="6.519697180843223 -1.1275834711143148e-07 3.7641489410298883 2.1732323478312394 6.146829502136331 3.764148836195121 -1.2639839332654503e-07 -2.1777306181136085e-07 7.528298100988244" Properties=species:S:1:pos:R:3:forces:R:3 energy=-25.021772384643555 free_energy=-25.021772384643555 stress="0.00023864115064498037 -4.023873678704604e-09 1.1444452496789381e-08 -4.023873678704604e-09 0.00023863902606535703 5.564606553321028e-10 1.1444452496789381e-08 5.564606553321028e-10 0.00023862325178924948" pbc="T T T"
Zn       2.17323235       1.53670725       3.76414870      -0.00000011       0.00000009       0.00000010
Zn       6.51969813       4.61012259      11.29244704      -0.00000009      -0.00000014      -0.00000000
Mn      -0.00000021       0.00000005       0.00000019       0.00000068       0.00000100      -0.00000141
Br       1.90482150       1.34691204       7.52829798      -0.00258499      -0.00182716       0.00000000
Br       6.78810788       4.79991658       7.52829765       0.00258309       0.00182702       0.00000097
Br       5.56728616       1.34691199       5.41377279       0.00129235      -0.00182746      -0.00223711
Br       3.12564290       4.79991705       9.64282309      -0.00129137       0.00182703       0.00223621
Br       3.12564309       4.79991707       5.41377256      -0.00129245       0.00182710      -0.00223676
Br       5.56728585       1.34691206       9.64282325       0.00129286      -0.00182758       0.00223760
