9
Lattice="4.7669258110586545 -1.5308067440767834e-07 2.752186206503275 1.5889753790900791 4.494301423288302 2.7521857681856985 -1.821600583378716e-07 -6.656342258103244e-07 5.504372728517168" Properties=species:S:1:pos:R:3:forces:R:3 energy=-36.72537612915039 free_energy=-36.72537612915039 stress="-1.120263732445892e-05 7.315630323745381e-09 2.9821656255535345e-08 7.315630323745381e-09 -1.127745235862676e-05 4.2383369702747586e-08 2.9821656255535345e-08 4.2383369702747586e-08 -1.1192330930498429e-05" pbc="T T T"
Zn       1.58897366       1.12357588       2.75218772      -0.00001101       0.00000189       0.00000823
Zn       4.76692550       3.37072296       8.25655395       0.00000054      -0.00001118      -0.00002743
Mn       0.00000018       0.00000019       0.00000013       0.00000061       0.00000522      -0.00000310
F        1.53371772       1.08450200       5.50437167       0.00043575       0.00031203      -0.00000479
F        4.82218411       3.40979899       5.50437488      -0.00044103      -0.00031538       0.00001315
F        4.00006767       1.08450137       4.08042472      -0.00021824       0.00031494       0.00038388
F        2.35583372       3.40979963       6.92832026       0.00022645      -0.00031196      -0.00037983
F        2.35583312       3.40979908       4.08042496       0.00021777      -0.00031465       0.00038463
F        4.00006834       1.08450237       6.92832059      -0.00021079       0.00031906      -0.00037484
