9
Lattice="6.989447375066741 1.3535409224400629e-08 4.035359417169333 2.329815833768416 6.589714254361369 4.035359366388752 1.646161492556852e-08 -5.055312355054011e-08 8.070718805826273" Properties=species:S:1:pos:R:3:forces:R:3 energy=-23.7230224609375 free_energy=-23.7230224609375 stress="-0.00017417703929822892 1.0789046989145845e-08 -3.200090192834182e-10 1.0789046989145845e-08 -0.00017418977222405374 -8.964255115984088e-09 -3.200090192834182e-10 -8.964255115984088e-09 -0.00017419389041606337" pbc="T T T"
Zn       2.32981582       1.64742859       4.03535945       0.00000021      -0.00000026      -0.00000007
Zn       6.98944739       4.94228565      12.10607819      -0.00000000       0.00000011       0.00000004
Nb       0.00000014      -0.00000007      -0.00000020      -0.00000081       0.00000133       0.00000255
I        2.26485229       1.60149229       8.07071863       0.00329564       0.00233044       0.00000064
I        7.05441107       4.98822189       8.07071874      -0.00329628      -0.00233130       0.00000019
I        5.85702129       1.60149228       5.99677897      -0.00164745       0.00233132       0.00285492
I        3.46224165       4.98822227      10.14465899       0.00164946      -0.00233290      -0.00285725
I        3.46224185       4.98822180       5.99677893       0.00164819      -0.00233085       0.00285516
I        5.85702142       1.60149210      10.14465865      -0.00164892       0.00233203      -0.00285617
