9
Lattice="4.446691276577579 -5.493792712190402e-10 2.5672984277547948 1.4822303957945826 4.192380810263918 2.567298478353732 -1.342273083379176e-08 5.247949003400055e-08 5.134596878758417" Properties=species:S:1:pos:R:3:forces:R:3 energy=-30.735139846801758 free_energy=-30.735139846801758 stress="0.0006077949656173587 2.753540506716945e-09 3.404313275723325e-08 2.753540506716945e-09 0.0006077868747524917 -3.677767423937439e-08 3.404313275723325e-08 -3.677767423937439e-08 0.0006078205187804997" pbc="T T T"
Zn       1.48223054       1.04809508       2.56729809      -0.00000008      -0.00000226      -0.00000162
Zn       4.44669118       3.14428555       7.70189526      -0.00000122       0.00000013      -0.00000065
Ni       0.00000001      -0.00000006      -0.00000001      -0.00000325       0.00000337       0.00000331
F        1.49394015       1.05637534       5.13459708      -0.00099362      -0.00070140       0.00000088
F        4.43498152       3.13600567       5.13459696       0.00099477       0.00070304      -0.00000100
F        3.69972116       1.05637524       3.86108866       0.00049587      -0.00070229      -0.00086300
F        2.22920077       3.13600557       6.40810523      -0.00049466       0.00070074       0.00086141
F        2.22920034       3.13600578       3.86108911      -0.00049752       0.00070256      -0.00086145
F        3.69972101       1.05637529       6.40810484       0.00049946      -0.00070404       0.00086218
