9
Lattice="6.531370151892039 6.2913642227058855e-09 3.770888287209592 2.1771234575717875 6.157834579493243 3.770888169990862 6.27522563306782e-08 -9.91904246789654e-08 7.541776465729007" Properties=species:S:1:pos:R:3:forces:R:3 energy=-31.034175872802734 free_energy=-31.034175872802734 stress="-0.0001766615459928289 -1.175888186821794e-08 2.9786999533598646e-09 -1.175888186821794e-08 -0.00017664801271166652 -5.4496793744363e-09 2.9786999533598646e-09 -5.4496793744363e-09 -0.0001766055793268606" pbc="T T T"
Zn       2.17712334       1.53945978       3.77088817       0.00000009      -0.00000043       0.00000003
Zn       6.53137036       4.61837488      11.31266358       0.00000002       0.00000026       0.00000028
Nb      -0.00000010      -0.00000023       0.00000008      -0.00000034       0.00000014      -0.00000468
Cl       1.94544866       1.37563992       7.54177674      -0.00343810      -0.00243143      -0.00000049
Cl       6.76304514       4.78219469       7.54177705       0.00343767       0.00243147      -0.00000054
Cl       5.55864600       1.37564004       5.45569644       0.00171871      -0.00243061      -0.00297882
Cl       3.14984776       4.78219420       9.62785673      -0.00172067       0.00243390       0.00298144
Cl       3.14984764       4.78219453       5.45569643      -0.00171832       0.00243106      -0.00297901
Cl       5.55864587       1.37564005       9.62785658       0.00172100      -0.00243433       0.00298187
