9
Lattice="6.5537413095987045 -2.5443865782616766e-08 3.7838044014513548 2.1845804012555594 6.178926586065827 3.7838044210038735 2.1662722926114713e-08 3.926470687990357e-08 7.567608765381777" Properties=species:S:1:pos:R:3:forces:R:3 energy=-16.9909725189209 free_energy=-16.9909725189209 stress="0.00021737624774686992 -4.6347528592782794e-10 1.6507961664302684e-09 -4.6347528592782794e-10 0.0002173823449993506 8.098521298016692e-10 1.6507961664302684e-09 8.098521298016692e-10 0.00021738676878158003" pbc="T T T"
Zn       2.18458046       1.54473167       3.78380443      -0.00000010       0.00000011      -0.00000031
Zn       6.55374126       4.63419496      11.35141316      -0.00000002      -0.00000018       0.00000014
Ni       0.00000004      -0.00000004       0.00000032      -0.00000004      -0.00000006      -0.00000133
I        2.19698791       1.55350506       7.56760877      -0.00442246      -0.00312746       0.00000005
I        6.54133383       4.62542159       7.56760885       0.00442317       0.00312787       0.00000008
I        5.45524735       1.55350513       5.68645170       0.00221111      -0.00312732      -0.00382993
I        3.28307454       4.62542137       9.44876560      -0.00221153       0.00312787       0.00383070
I        3.28307427       4.62542152       5.68645187      -0.00221171       0.00312713      -0.00383033
I        5.45524729       1.55350518       9.44876568       0.00221168      -0.00312799       0.00383088
