9
Lattice="6.177979497367298 6.014247545879095e-07 3.566857335267704 2.0593266366109417 5.824656393772236 3.5668580792530915 2.103538515818027e-08 9.260668054990381e-07 7.133714634100999" Properties=species:S:1:pos:R:3:forces:R:3 energy=-43.12055587768555 free_energy=-43.12055587768555 stress="-4.055606041220017e-05 3.254607605640558e-08 -1.653773473719866e-08 3.254607605640558e-08 -4.0494414861314e-05 3.743441467918274e-08 -1.653773473719866e-08 3.743441467918274e-08 -4.064043969265185e-05" pbc="T T T"
Zn       2.05932637       1.45616486       3.56685715       0.00000055       0.00000018      -0.00000024
Zn       6.17797949       4.36849266      10.70057209       0.00000047      -0.00000035       0.00000036
Nb       0.00000065      -0.00000017       0.00000016      -0.00004174       0.00000618      -0.00000952
F        1.57507912       1.11375085       7.13371499       0.00136547       0.00096212      -0.00000004
F        6.66222690       4.71090696       7.13371606      -0.00134307      -0.00094803      -0.00000116
F        5.39043932       1.11375080       4.93091589      -0.00067502       0.00095417       0.00117292
F        2.84686647       4.71090740       9.33651405       0.00068080      -0.00095924      -0.00118076
F        2.84686587       4.71090650       4.93091605       0.00068608      -0.00096539       0.00118811
F        5.39043935       1.11375214       9.33651330      -0.00067357       0.00095049      -0.00116961
