9
Lattice="5.94884008292348 7.386671956907896e-09 3.4345644764516585 1.9829466566680847 5.608620427453204 3.4345645537080323 -1.017252355845374e-07 2.268873294396653e-08 6.869129129096574" Properties=species:S:1:pos:R:3:forces:R:3 energy=-20.997299194335938 free_energy=-20.997299194335938 stress="6.68982238494209e-06 9.43165456845918e-09 -2.4461423109300995e-08 9.43165456845918e-09 6.665020464424742e-06 -4.808082376683842e-09 -2.4461423109300995e-08 -4.808082376683842e-09 6.67415042698849e-06" pbc="T T T"
Zn       1.98294447       1.40215709       3.43456601      -0.00000504       0.00000543       0.00000417
Zn       5.94884004       4.20646347      10.30368980      -0.00000014      -0.00000606      -0.00001175
Ni       0.00000012       0.00000036      -0.00000030       0.00000086      -0.00000257       0.00000203
Cl       1.88738421       1.33458289       6.86912898      -0.00062680      -0.00044104      -0.00000076
Cl       6.04440250       4.27403738       6.86913040       0.00062901       0.00044239       0.00000308
Cl       5.00514764       1.33458226       5.06908815       0.00031516      -0.00044468      -0.00054041
Cl       2.92663971       4.27403828       8.66917085      -0.00031397       0.00044489       0.00054502
Cl       2.92663932       4.27403696       5.06908770      -0.00031374       0.00044313      -0.00054353
Cl       5.00514847       1.33458329       8.66917105       0.00031470      -0.00044176       0.00054196
