9
Lattice="6.62199153311424 1.1867345049354011e-08 3.82320854765953 2.207330530120715 6.243273513030969 3.823208533986748 1.6058689860629155e-08 -5.3904455633788725e-09 7.646417067504576" Properties=species:S:1:pos:R:3:forces:R:3 energy=-27.48976707458496 free_energy=-27.48976707458496 stress="-1.949012221302837e-05 -1.2574738583737144e-08 -5.873729502781089e-09 -1.2574738583737144e-08 -1.947565579030197e-05 5.181909568108267e-09 -5.873729502781089e-09 5.181909568108267e-09 -1.9466766389086843e-05" pbc="T T T"
Zn       2.20733051       1.56081823       3.82320853      -0.00000011       0.00000000       0.00000002
Zn       6.62199135       4.68245523      11.46962579      -0.00000004       0.00000005      -0.00000005
Nb      -0.00000009       0.00000013       0.00000014       0.00000022      -0.00000051      -0.00000000
Br       2.08149481       1.47183910       7.64641714      -0.00024365      -0.00017234      -0.00000001
Br       6.74782733       4.77143426       7.64641714       0.00024350       0.00017288      -0.00000011
Br       5.58124404       1.47183901       5.62583629       0.00012314      -0.00017417      -0.00021351
Br       3.24807798       4.77143445       9.66699783      -0.00012285       0.00017421       0.00021306
Br       3.24807804       4.77143437       5.62583608      -0.00012239       0.00017340      -0.00021200
Br       5.58124432       1.47183922       9.66699768       0.00012217      -0.00017348       0.00021267
