9
Lattice="6.070058508933679 -2.001142492313796e-08 3.5045496516879475 2.023352864917688 5.722905643593231 3.504549569461591 4.654396859150114e-08 -6.779475286171499e-08 7.0090992227593825" Properties=species:S:1:pos:R:3:forces:R:3 energy=-21.322635650634766 free_energy=-21.322635650634766 stress="6.373515498125926e-05 2.9358655950773027e-08 -1.3356214800808175e-08 2.9358655950773027e-08 6.373134965542704e-05 -6.105110639254008e-09 -1.3356214800808175e-08 -6.105110639254008e-09 6.370276241796091e-05" pbc="T T T"
Zn       2.02335308       1.43072710       3.50454930       0.00000118       0.00000119       0.00000006
Zn       6.07005870       4.29217840      10.51364913       0.00000003      -0.00000185       0.00000044
Pd      -0.00000009      -0.00000012      -0.00000022       0.00000015       0.00000089      -0.00000108
Cl       1.92067462       1.35812268       7.00909920      -0.00095117      -0.00067061       0.00000076
Cl       6.17273668       4.36478294       7.00909895       0.00095055       0.00067092      -0.00000050
Cl       5.10972084       1.35812183       5.16790249       0.00047401      -0.00067006      -0.00082022
Cl       2.98369041       4.36478407       8.85029606      -0.00047341       0.00066830       0.00082028
Cl       2.98369051       4.36478370       5.16790259      -0.00047410       0.00067082      -0.00082079
Cl       5.10972091       1.35812164       8.85029610       0.00047283      -0.00066967       0.00082076
