9
Lattice="6.602916085842455 -3.2641706260817374e-08 3.812195389230151 2.20097201206801 6.22528899421984 3.8121953645852384 3.5668743014672995e-09 -2.7661569864388703e-08 7.624390772282278" Properties=species:S:1:pos:R:3:forces:R:3 energy=-17.148292541503906 free_energy=-17.148292541503906 stress="0.00014904250565450639 8.33834723490412e-10 -1.7751546899091863e-09 8.33834723490412e-10 0.0001490385184297338 -2.1325924359771875e-10 -1.7751546899091863e-09 -2.1325924359771875e-10 0.00014904572162777185" pbc="T T T"
Zn       2.20097208       1.55632224       3.81219536       0.00000014      -0.00000005      -0.00000019
Zn       6.60291604       4.66896666      11.43658612       0.00000008       0.00000018      -0.00000003
Pd      -0.00000002       0.00000010       0.00000009       0.00000039       0.00000090      -0.00000018
I        2.22262484       1.57163308       7.62439080      -0.00010446      -0.00007373       0.00000034
I        6.58126331       4.65365585       7.62439089       0.00010332       0.00007288      -0.00000027
I        5.49160363       1.57163295       5.73704502       0.00005208      -0.00007311      -0.00008992
I        3.31228445       4.65365585       9.51173642      -0.00005232       0.00007323       0.00008982
I        3.31228444       4.65365586       5.73704500      -0.00005121       0.00007340      -0.00008957
I        5.49160361       1.57163315       9.51173639       0.00005196      -0.00007369       0.00009003
