9
Lattice="4.615849417589746 -9.962120851069026e-08 2.664961875173218 1.5386163891423326 4.351864310369181 2.664961856923965 -8.844999230399224e-08 -8.489425722501263e-08 5.32992390354634" Properties=species:S:1:pos:R:3:forces:R:3 energy=-29.806304931640625 free_energy=-29.806304931640625 stress="-0.00010446965461596847 -7.431202675434179e-08 3.01252334189428e-09 -7.431202675434179e-08 -0.00010430451948195696 5.524849200355675e-08 3.01252334189428e-09 5.524849200355675e-08 -0.00010435432341182604" pbc="T T T"
Zn       1.53861666       1.08796569       2.66496229       0.00000093      -0.00000167       0.00000214
Zn       4.61584925       3.26389860       7.99488543      -0.00000109       0.00000283      -0.00000179
Pd       0.00000008      -0.00000002      -0.00000014      -0.00000070       0.00000340      -0.00000013
F        1.60319928       1.13363253       5.32992342       0.00320506       0.00226432      -0.00000157
F        4.55126645       3.21823141       5.32992427      -0.00320722      -0.00226654       0.00000220
F        3.81424937       1.13363283       4.05337321      -0.00160022       0.00226124       0.00277026
F        2.34021604       3.21823126       6.60647448       0.00160221      -0.00226292      -0.00277218
F        2.34021608       3.21823142       4.05337320       0.00160198      -0.00226413       0.00277400
F        3.81424973       1.13363276       6.60647440      -0.00160087       0.00226335      -0.00277299
