9
Lattice="6.267276539002468 5.1414712933207896e-09 3.618413730661219 2.089092185894397 5.9088448929793005 3.618413728271883 1.1222367508234286e-08 5.009085324434154e-09 7.23682744188472" Properties=species:S:1:pos:R:3:forces:R:3 energy=-19.494789123535156 free_energy=-19.494789123535156 stress="-4.448540857993066e-05 3.5990874169833376e-10 -1.5768232941582028e-08 3.5990874169833376e-10 -4.448857725947164e-05 2.415763766805412e-08 -1.5768232941582028e-08 2.415763766805412e-08 -4.449968400876969e-05" pbc="T T T"
Zn       2.08909200       1.47721092       3.61841380      -0.00000005      -0.00000019       0.00000003
Zn       6.26727651       4.43163368      10.85524104      -0.00000015      -0.00000008      -0.00000029
Pd       0.00000009       0.00000009      -0.00000004      -0.00000248      -0.00000233       0.00000111
Br       2.04570128       1.44652933       7.23682743       0.00645407       0.00456335       0.00000021
Br       6.31066755       4.46231556       7.23682742      -0.00645190      -0.00456233       0.00000014
Br       5.24442593       1.44652924       5.39004304      -0.00322534       0.00456183       0.00558777
Br       3.11194291       4.46231576       9.08361195       0.00322585      -0.00456155      -0.00558738
Br       3.11194276       4.46231567       5.39004291       0.00322723      -0.00456319       0.00558913
Br       5.24442593       1.44652940       9.08361199      -0.00322722       0.00456436      -0.00559065
