9
Lattice="4.899630717058766 6.42592119540172e-08 2.8288033209409726 1.6332103285616544 4.619416229735182 2.8288032707843622 9.461708011225794e-08 5.47535284276277e-09 5.657606478000301" Properties=species:S:1:pos:R:3:forces:R:3 energy=-40.273223876953125 free_energy=-40.273223876953125 stress="0.0004504194366745651 -7.473195040574865e-08 8.545557594885622e-10 -7.473195040574865e-08 0.0004504115495365113 -6.0477169938621955e-09 8.545557594885622e-10 -6.0477169938621955e-09 0.0004504921962507069" pbc="T T T"
Zn       1.63321044       1.15485449       2.82880285       0.00000044       0.00000225      -0.00000214
Zn       4.89963069       3.46456247       8.48640956      -0.00000199      -0.00000121      -0.00000211
Sc      -0.00000017      -0.00000020       0.00000001       0.00000498       0.00000222      -0.00000403
F        1.62524127       1.14921950       5.65760650       0.00047771       0.00033698       0.00000015
F        4.90759942       3.47019700       5.65760676      -0.00047903      -0.00034011       0.00000112
F        4.08701014       1.14921950       4.23630402      -0.00023760       0.00033505       0.00041281
F        2.44583143       3.47019634       7.07890952       0.00023651      -0.00033488      -0.00040626
F        2.44583144       3.47019664       4.23630387       0.00023672      -0.00033533       0.00041102
F        4.08700992       1.14921961       7.07890916      -0.00023771       0.00033494      -0.00041004
