9
Lattice="7.010836522255585 2.1252518874345833e-08 4.047708267651855 2.3369455577141665 6.60987985879265 4.047708215242527 9.854235557354195e-09 -5.7220069283858466e-08 8.095416518235725" Properties=species:S:1:pos:R:3:forces:R:3 energy=-22.64767074584961 free_energy=-22.64767074584961 stress="-0.0001679745182627812 -5.520730983477051e-09 -8.884391000663072e-09 -5.520730983477051e-09 -0.00016796981799416244 5.45065814705481e-09 -8.884391000663072e-09 5.45065814705481e-09 -0.00016797806893009692" pbc="T T T"
Zn       2.33694553       1.65246990       4.04770828       0.00000015       0.00000025       0.00000050
Zn       7.01083657       4.95740995      12.14312467      -0.00000031      -0.00000025      -0.00000025
Sc       0.00000010      -0.00000022      -0.00000032      -0.00000181       0.00000107       0.00000721
I        2.32998716       1.64754986       8.09541643       0.00452296       0.00319772       0.00000045
I        7.01779478       4.96233015       8.09541658      -0.00452170      -0.00319716      -0.00000010
I        5.84584304       1.64754970       6.06553608      -0.00226000       0.00319638       0.00391386
I        3.50193897       4.96233036      10.12529710       0.00226250      -0.00319998      -0.00391855
I        3.50193903       4.96233007       6.06553621       0.00226017      -0.00319585       0.00391605
I        5.84584317       1.64754948      10.12529701      -0.00226193       0.00319780      -0.00391915
