9
Lattice="6.658423548379373 -1.587339009310767e-07 3.844242763958841 2.2194744065588567 6.277621838529734 3.8442426945240435 1.3589481459064026e-08 -7.543066079212595e-08 7.688485504380007" Properties=species:S:1:pos:R:3:forces:R:3 energy=-13.817245483398438 free_energy=-13.817245483398438 stress="7.197890954557806e-05 8.770472348373914e-09 -4.0654363209213784e-10 8.770472348373914e-09 7.197214290499687e-05 3.6241163403616383e-09 -4.0654363209213784e-10 3.6241163403616383e-09 7.197255035862327e-05" pbc="T T T"
Zn       2.21947448       1.56940541       3.84424275      -0.00000007       0.00000007       0.00000001
Zn       6.65842349       4.70821622      11.53272826      -0.00000006      -0.00000001      -0.00000010
S        0.00000017      -0.00000029       0.00000056      -0.00000034      -0.00000003       0.00000117
I        2.35470344       1.66502675       7.68848532      -0.00662643      -0.00468577      -0.00000020
I        6.52319436       4.61259492       7.68848532       0.00662717       0.00468606      -0.00000002
I        5.48107178       1.66502676       5.88347564       0.00331363      -0.00468613      -0.00573908
I        3.39682621       4.61259512       9.49349522      -0.00331308       0.00468548       0.00573894
I        3.39682627       4.61259488       5.88347582      -0.00331363       0.00468557      -0.00573923
I        5.48107167       1.66502664       9.49349500       0.00331278      -0.00468521       0.00573856
