9
Lattice="6.148786876500184 -2.60509956808513e-07 3.5500028369300587 2.0495953749989497 5.797131199511519 3.550002845399741 -2.57394914277436e-08 -7.82738217846142e-09 7.1000057184422305" Properties=species:S:1:pos:R:3:forces:R:3 energy=-18.70894432067871 free_energy=-18.70894432067871 stress="-3.3272779546678066e-05 -5.351028509181788e-09 5.84523274227422e-09 -5.351028509181788e-09 -3.330843537696637e-05 6.644168770719716e-09 5.84523274227422e-09 6.644168770719716e-09 -3.329302489873953e-05" pbc="T T T"
Zn       2.04959464       1.44928106       3.55000297      -0.00000068      -0.00000167       0.00000039
Zn       6.14878814       4.34784871      10.65000971       0.00000148       0.00000040       0.00000157
S       -0.00000016       0.00000019      -0.00000047      -0.00000142       0.00000135       0.00000183
Cl       1.92130446       1.35856717       7.10000575       0.00032412       0.00023037      -0.00000072
Cl       6.27707785       4.43856406       7.10000554      -0.00032417      -0.00023047      -0.00000084
Cl       5.18813430       1.35856753       5.21390072      -0.00016066       0.00022927       0.00028152
Cl       3.01024728       4.43856419       8.98611068       0.00016189      -0.00022998      -0.00028308
Cl       3.01024774       4.43856422       5.21390037       0.00016121      -0.00022922       0.00028226
Cl       5.18813466       1.35856650       8.98611045      -0.00016177       0.00022998      -0.00028300
