9
Lattice="6.5107620204328045 -3.965414288751172e-08 3.7589903462226832 2.170254010703862 6.1384051992312925 3.758990274725005 4.267547637374524e-08 -5.739033127094239e-08 7.517980618529304" Properties=species:S:1:pos:R:3:forces:R:3 energy=-25.95724868774414 free_energy=-25.95724868774414 stress="-0.00011412428284529597 -1.764335699760977e-08 -2.4906727791318417e-09 -1.764335699760977e-08 -0.00011409373109927401 3.6280958237711047e-09 -2.4906727791318417e-09 3.6280958237711047e-09 -0.00011410170554881915" pbc="T T T"
Zn       2.17025373       1.53460123       3.75899032      -0.00000007      -0.00000015      -0.00000023
Zn       6.51076199       4.60380416      11.27697077      -0.00000005       0.00000015      -0.00000043
Sc       0.00000013      -0.00000025       0.00000049      -0.00000015       0.00000023      -0.00000756
Br       2.15052368       1.52064967       7.51798095       0.00134716       0.00095407       0.00000002
Br       6.53049239       4.61775511       7.51798084      -0.00134672      -0.00095232      -0.00000069
Br       5.43550024       1.52064962       5.62139846      -0.00067399       0.00095337       0.00116623
Br       3.24551619       4.61775505       9.41456250       0.00067098      -0.00094970      -0.00116314
Br       3.24551591       4.61775561       5.62139831       0.00067459      -0.00095347       0.00116760
Br       5.43549995       1.52065016       9.41456226      -0.00067168       0.00094785      -0.00116195
