9
Lattice="6.303847466442362 2.987217938719025e-08 3.6395279970339267 2.1012825291947435 5.943324153825322 3.639527975873644 -2.8449419528189808e-09 -2.7927522680970543e-08 7.27905599899549" Properties=species:S:1:pos:R:3:forces:R:3 energy=-16.103782653808594 free_energy=-16.103782653808594 stress="-0.000276918028248474 -4.276335729969105e-09 2.599172210793199e-09 -4.276335729969105e-09 -0.000276903243502602 2.392357201230766e-09 2.599172210793199e-09 2.392357201230766e-09 -0.0002769099082797766" pbc="T T T"
Zn       2.10128268       1.48583108       3.63952793       0.00000016      -0.00000016      -0.00000007
Zn       6.30384774       4.45749293      10.91858414       0.00000027      -0.00000020      -0.00000012
S       -0.00000039       0.00000009       0.00000028      -0.00000108       0.00000081       0.00000123
Br       2.07949301       1.47042399       7.27905600       0.00416920       0.00294746      -0.00000041
Br       6.32563653       4.47290035       7.27905593      -0.00416824      -0.00294741      -0.00000035
Br       5.26410115       1.47042372       5.44042152      -0.00208471       0.00294755       0.00361015
Br       3.14102900       4.47290029       9.11768991       0.00208428      -0.00294798      -0.00360974
Br       3.14102905       4.47290032       5.44042184       0.00208426      -0.00294769       0.00360953
Br       5.26410121       1.47042385       9.11769030      -0.00208421       0.00294759      -0.00361025
