9
Lattice="6.270969972972685 -1.5021623929282137e-07 3.6205461976964175 2.0903231216968363 5.912327720455329 3.620546303355332 -2.57269620390655e-07 -5.251184117987867e-08 7.241092840996881" Properties=species:S:1:pos:R:3:forces:R:3 energy=-28.6881103515625 free_energy=-28.6881103515625 stress="-8.300338231492788e-05 -1.4299510020521211e-08 -4.546333087773746e-08 -1.4299510020521211e-08 -8.295274892589077e-05 1.9082181168528223e-08 -4.546333087773746e-08 1.9082181168528223e-08 -8.296481246361509e-05" pbc="T T T"
Zn       2.09032459       1.47808311       3.62054677       0.00000189       0.00000131       0.00000067
Zn       6.27096981       4.43424547      10.86164070       0.00000025      -0.00000015       0.00000258
Sc       0.00000010      -0.00000022      -0.00000045      -0.00000143       0.00000043       0.00000236
Cl       2.02475939       1.43172104       7.24109254       0.00322387       0.00227986      -0.00000106
Cl       6.33653311       4.48060596       7.24109197      -0.00322360      -0.00227845      -0.00000112
Cl       5.25858973       1.43172165       5.37403940      -0.00161073       0.00227655       0.00278954
Cl       3.10270208       4.48060587       9.10814580       0.00161213      -0.00227858      -0.00279187
Cl       3.10270283       4.48060628       5.37403893       0.00161092      -0.00228044       0.00279193
Cl       5.25858980       1.43172088       9.10814559      -0.00161316       0.00227962      -0.00279285
