9
Lattice="4.535851768128423 -4.837530414461824e-08 2.618775263235781 1.511950566645846 4.276442008563907 2.618775223609235 -4.962997003460994e-08 -8.36260585427824e-08 5.237550612433182" Properties=species:S:1:pos:R:3:forces:R:3 energy=-29.475950241088867 free_energy=-29.475950241088867 stress="-0.0005681685288436711 -2.6982849732348768e-08 -1.581283326501648e-09 -2.6982849732348768e-08 -0.0005682230112142861 -3.2346708422892334e-08 -1.581283326501648e-09 -3.2346708422892334e-08 -0.0005682125338353217" pbc="T T T"
Zn       1.51195039       1.06911068       2.61877532      -0.00000039       0.00000026       0.00000041
Zn       4.53585187       3.20733125       7.85632588       0.00000057      -0.00000017       0.00000028
S       -0.00000008      -0.00000011      -0.00000018      -0.00000114       0.00000063      -0.00000021
F        1.53831812       1.08775546       5.23755053      -0.00414378      -0.00293060       0.00000048
F        4.50948409       3.18868649       5.23755038       0.00414398       0.00293082      -0.00000029
F        3.76669275       1.08775518       3.95099801       0.00207118      -0.00293077      -0.00358894
F        2.28110951       3.18868682       6.52410299      -0.00207094       0.00292995       0.00358884
F        2.28110960       3.18868661       3.95099818      -0.00207238       0.00293114      -0.00359044
F        3.76669283       1.08775508       6.52410303       0.00207286      -0.00293136       0.00358995
