9
Lattice="6.950228873852849 -1.7147112965489316e-07 4.012716687360214 2.316742792874816 6.552738671285517 4.012716693269296 3.2012216894837235e-08 2.987318705863905e-08 8.025433319273553" Properties=species:S:1:pos:R:3:forces:R:3 energy=-22.703718185424805 free_energy=-22.703718185424805 stress="-6.249464058782905e-05 -2.28921077649602e-08 -1.8818070203225484e-13 -2.28921077649602e-08 -6.246392877073959e-05 -6.166005039887068e-09 -1.8818070203225484e-13 -6.166005039887068e-09 -6.245566328288987e-05" pbc="T T T"
Zn       2.31674299       1.63818466       4.01271671      -0.00000007       0.00000030       0.00000007
Zn       6.95022877       4.91455390      12.03815003       0.00000009      -0.00000025      -0.00000012
Ti      -0.00000025      -0.00000028       0.00000001       0.00000339       0.00000203      -0.00000019
I        2.22314911       1.57200387       8.02543332       0.00090630       0.00064056      -0.00000005
I        7.04382323       4.98073522       8.02543334      -0.00091018      -0.00064345       0.00000002
I        5.83865399       1.57200389       5.93802056      -0.00045256       0.00064025       0.00078418
I        3.42831754       4.98073455      10.11284620       0.00045262      -0.00063962      -0.00078365
I        3.42831747       4.98073443       5.93802051       0.00045256      -0.00063954       0.00078301
I        5.83865399       1.57200387      10.11284613      -0.00045203       0.00063963      -0.00078320
