9
Lattice="5.5082926063154405 5.655860231995411e-07 3.1802137700544106 1.8360979048762103 5.193269171346001 3.1802140537674295 -9.743836366347704e-08 2.7857695495284696e-07 6.360427708877038" Properties=species:S:1:pos:R:3:forces:R:3 energy=-41.6879768371582 free_energy=-41.6879768371582 stress="0.0001675203675404191 -7.173926341863535e-09 -1.5490272176066355e-08 -7.173926341863535e-09 0.0001674884551903233 -1.4522086644319643e-08 -1.5490272176066355e-08 -1.4522086644319643e-08 0.0001675022067502141" pbc="T T T"
Zn       1.83609867       1.29831826       3.18021507       0.00000176       0.00000053       0.00000214
Zn       5.50829489       3.89495069       9.54064471       0.00000212      -0.00000120       0.00000328
Ti       0.00000020       0.00000011       0.00000024      -0.00000910       0.00000485      -0.00000623
F        1.54612497       1.09327728       6.36042679      -0.00322640      -0.00228053       0.00000190
F        5.79826488       4.09999412       6.36042689       0.00322592       0.00227812       0.00000101
F        4.73522876       1.09327696       4.51919688       0.00161456      -0.00228158      -0.00279298
F        2.60916033       4.09999446       8.20165748      -0.00161029       0.00227717       0.00279078
F        2.60916048       4.09999280       4.51919776      -0.00161122       0.00228071      -0.00279090
F        4.73522905       1.09327569       8.20165737       0.00161296      -0.00227785       0.00279090
