9
Lattice="6.383984855544811 1.4029135311796742e-07 3.6857951545362235 2.127994963153877 6.01887910467187 3.6857953640491448 -1.5272296588503393e-07 1.4860842987280255e-07 7.371590573596339" Properties=species:S:1:pos:R:3:forces:R:3 energy=-29.441930770874023 free_energy=-29.441930770874023 stress="1.9489887563395314e-05 1.2422931572331208e-09 -4.528849828489001e-08 1.2422931572331208e-09 1.94519707292784e-05 2.229373308182403e-08 -4.528849828489001e-08 2.229373308182403e-08 1.9450635591056198e-05" pbc="T T T"
Zn       2.12799507       1.50471945       3.68579703       0.00000022      -0.00000009       0.00000030
Zn       6.38398522       4.51415944      11.05738663       0.00000009       0.00000009       0.00000016
Ti       0.00000002       0.00000009      -0.00000054      -0.00000106      -0.00000131       0.00000860
Cl       1.92124330       1.35852480       7.37159051      -0.00188774      -0.00133547       0.00000007
Cl       6.59073652       4.66035512       7.37158975       0.00188613       0.00133419       0.00000128
Cl       5.42336267       1.35852438       5.34964035       0.00094430      -0.00133529      -0.00163445
Cl       3.08861674       4.66035570       9.39353996      -0.00094210       0.00133222       0.00162992
Cl       3.08861605       4.66035442       5.34964035      -0.00094113       0.00133336      -0.00163314
Cl       5.42336301       1.35852414       9.39354045       0.00094117      -0.00132748       0.00162739
