9
Lattice="6.501807825838043 8.683935724189207e-08 3.7538207440547353 2.1672693093675583 6.129963714375265 3.7538208268202946 -1.0333933353733829e-07 2.8294771155992866e-08 7.507641667098406" Properties=species:S:1:pos:R:3:forces:R:3 energy=-26.105894088745117 free_energy=-26.105894088745117 stress="-0.00024856897653080523 7.301657944935869e-09 -2.770802476348422e-09 7.301657944935869e-09 -0.00024854973889887333 3.5605967063645494e-09 -2.770802476348422e-09 3.5605967063645494e-09 -0.00024855713127180934" pbc="T T T"
Zn       2.16726933       1.53249101       3.75382042       0.00000003       0.00000014      -0.00000011
Zn       6.50180751       4.59747270      11.26146202       0.00000000      -0.00000005      -0.00000000
Ti       0.00000022      -0.00000003       0.00000001      -0.00000097      -0.00000128       0.00000236
Br       2.05620663       1.45395791       7.50764159       0.00302035       0.00213480       0.00000061
Br       6.61287040       4.67600577       7.50764153      -0.00301893      -0.00213441       0.00000081
Br       5.47370438       1.45395809       5.53454832      -0.00150897       0.00213328       0.00261407
Br       3.19537236       4.67600606       9.48073540       0.00151017      -0.00213510      -0.00261493
Br       3.19537270       4.67600597       5.53454828       0.00150944      -0.00213374       0.00261427
Br       5.47370461       1.45395785       9.48073536      -0.00151110       0.00213633      -0.00261709
