9
Lattice="6.806336952249892 6.496383874634113e-08 3.929640387550887 2.2687790390653033 6.417075905192414 3.929640398404769 -3.068944026670026e-08 -8.407457933375357e-09 7.859280828257486" Properties=species:S:1:pos:R:3:forces:R:3 energy=-22.176454544067383 free_energy=-22.176454544067383 stress="0.00012153576244600117 1.44119738365589e-09 5.96827531840205e-10 1.44119738365589e-09 0.00012152323324698955 -1.1237294428312339e-09 5.96827531840205e-10 -1.1237294428312339e-09 0.0001215238735312596" pbc="T T T"
Zn       2.26877895       1.60426902       3.92964038       0.00000028       0.00000006      -0.00000010
Zn       6.80633699       4.81280695      11.78892124      -0.00000005       0.00000003       0.00000001
V       -0.00000006       0.00000003      -0.00000003      -0.00000033      -0.00000043      -0.00000033
I        2.17797636       1.54006198       7.85928075      -0.00362396      -0.00256279       0.00000008
I        6.89713956       4.87701396       7.85928082       0.00362492       0.00256315       0.00000001
I        5.71734896       1.54006179       5.81582315       0.00181237      -0.00256304      -0.00313903
I        3.35776705       4.87701404       9.90273854      -0.00181271       0.00256307       0.00313953
I        3.35776709       4.87701420       5.81582307      -0.00181261       0.00256298      -0.00313921
I        5.71734892       1.54006183       9.90273853       0.00181215      -0.00256304       0.00313899
