9
Lattice="6.428966311271878 9.292466355173638e-08 3.711765611051597 2.142988905896262 6.061287756910384 3.711765528152043 1.1307401505848952e-07 -2.1575368911608103e-08 7.423531026253279" Properties=species:S:1:pos:R:3:forces:R:3 energy=-25.29803466796875 free_energy=-25.29803466796875 stress="-0.00011995573004242033 1.381682412926466e-08 -3.0552627094948548e-09 1.381682412926466e-08 -0.00011996312241535634 5.205492481508145e-09 -3.0552627094948548e-09 5.205492481508145e-09 -0.00011996452667517588" pbc="T T T"
Zn       2.14298885       1.51532208       3.71176510       0.00000009      -0.00000005       0.00000003
Zn       6.42896711       4.54596521      11.13529611       0.00000008      -0.00000009      -0.00000015
V       -0.00000007       0.00000014       0.00000006      -0.00000093      -0.00000015      -0.00000118
Br       2.01114667       1.42209553       7.42353118      -0.00406832      -0.00287591       0.00000002
Br       6.56080858       4.63919242       7.42353137       0.00406811       0.00287689      -0.00000071
Br       5.42339311       1.42209518       5.45346955       0.00203355      -0.00287506      -0.00352228
Br       3.14856216       4.63919255       9.39359286      -0.00203425       0.00287591       0.00352174
Br       3.14856199       4.63919253       5.45346948      -0.00203228       0.00287469      -0.00352061
Br       5.42339291       1.42209565       9.39359292       0.00203396      -0.00287654       0.00352281
