9
Lattice="4.46216393639436 -1.3498909438493353e-08 2.5762316541425925 1.4873879780572017 4.2069684464262735 2.5762316333822324 -2.104560961108493e-08 -4.0307604353904016e-08 5.1524633447372485" Properties=species:S:1:pos:R:3:forces:R:3 energy=-37.90713882446289 free_energy=-37.90713882446289 stress="0.0005128672928549349 7.922430489415433e-10 3.8037864413809075e-08 7.922430489415433e-10 0.0005129233468323946 -8.867847789417738e-09 3.8037864413809075e-08 -8.867847789417738e-09 0.0005128947086632252" pbc="T T T"
Zn       1.48738794       1.05174203       2.57623163      -0.00000015      -0.00000015       0.00000011
Zn       4.46216404       3.15522648       7.72869489       0.00000003       0.00000091      -0.00000019
V        0.00000010       0.00000006      -0.00000004      -0.00000209       0.00000193      -0.00000119
F        1.52015061       1.07490864       5.15246338       0.00017121       0.00012070       0.00000071
F        4.42940124       3.13205973       5.15246334      -0.00017178      -0.00012085       0.00000002
F        3.70208862       1.07490867       3.89272079      -0.00008553       0.00012136       0.00014886
F        2.24746314       3.13205970       6.41220600       0.00008708      -0.00012270      -0.00015047
F        2.24746314       3.13205965       3.89272071       0.00008543      -0.00012043       0.00014862
F        3.70208870       1.07490869       6.41220584      -0.00008433       0.00011915      -0.00014654
