9
Lattice="6.328255149069449 -2.547105946354229e-07 3.653619661702158 2.1094182485198503 5.966335828450428 3.6536194787279808 -7.01617346834043e-08 -2.7370854667827466e-07 7.307239444927966" Properties=species:S:1:pos:R:3:forces:R:3 energy=-28.538009643554688 free_energy=-28.538009643554688 stress="-5.712241545552388e-05 -1.033204988232228e-08 1.2502958668392239e-09 -1.033204988232228e-08 -5.7146662584273145e-05 2.096778528581922e-09 1.2502958668392239e-09 2.096778528581922e-09 -5.714478174922988e-05" pbc="T T T"
Zn       2.10941911       1.49158416       3.65361941       0.00000024       0.00000011       0.00000015
Zn       6.32825540       4.47475175      10.96086007       0.00000016       0.00000011       0.00000034
V       -0.00000007      -0.00000013      -0.00000022      -0.00000139      -0.00000151      -0.00000205
Cl       1.87230509       1.32391947       7.30723951       0.00247261       0.00174811       0.00000014
Cl       6.56536781       4.64241566       7.30723858      -0.00247034      -0.00174767       0.00000066
Cl       5.39210198       1.32391978       5.27508345      -0.00123559       0.00174710       0.00214204
Cl       3.04557094       4.64241559       9.33939491       0.00123581      -0.00174722      -0.00213978
Cl       3.04557091       4.64241552       5.27508360       0.00123490      -0.00174731       0.00214037
Cl       5.39210212       1.32391929       9.33939515      -0.00123626       0.00174838      -0.00214213
