9
Lattice="4.271670349914115 5.179919755020603e-10 2.466250234566827 1.4238901030955955 4.027369442441049 2.4662502588688953 -4.1364357353213166e-08 5.148249762074702e-10 4.932500540778806" Properties=species:S:1:pos:R:3:forces:R:3 energy=-66.7571029663086 free_energy=-66.7571029663086 stress="-0.00010129654401680455 3.0808653406211306e-08 6.268516727914175e-08 3.0808653406211306e-08 -0.00010136983473785222 -1.7323083412179585e-08 6.268516727914175e-08 -1.7323083412179585e-08 -0.00010158403893001378" pbc="T T T"
Zr       1.42389045       1.00684191       2.46625063       0.00000312      -0.00000230       0.00000215
Zr       4.27167091       3.02052684       7.39874996       0.00000746      -0.00000584      -0.00001140
Co      -0.00000004       0.00000001       0.00000027      -0.00000367      -0.00000320      -0.00000384
O        1.46317794       1.03462351       4.93250035      -0.00065628      -0.00046524      -0.00000068
O        4.23238204       2.99274619       4.93250071       0.00065741       0.00047326       0.00000506
O        3.54008130       1.03462325       3.73339998       0.00032394      -0.00046253      -0.00056431
O        2.15547896       2.99274618       6.13160120      -0.00032845       0.00046417       0.00056854
O        2.15547870       2.99274632       3.73340005      -0.00032969       0.00046435      -0.00056386
O        3.54008121       1.03462356       6.13160114       0.00032610      -0.00046250       0.00056842
