9
Lattice="4.341970621704165 -1.2783071714761726e-07 2.5068380275957995 1.4473235018995294 4.093648895725604 2.5068378858250027 1.2651306183711993e-07 -8.417481013335733e-08 5.013675836064558" Properties=species:S:1:pos:R:3:forces:R:3 energy=-70.07060241699219 free_energy=-70.07060241699219 stress="-0.00025680530234239995 -1.2091382339818324e-09 -2.5630072286730865e-07 -1.2091382339818324e-09 -0.00025664130225777626 -2.112804509124544e-07 -2.5630072286730865e-07 -2.112804509124544e-07 -0.0002565128088463098" pbc="T T T"
Zr       1.44732438       1.02341274       2.50683730       0.00001113       0.00000854      -0.00000334
Zr       4.34197122       3.07023654       7.52051671       0.00000982       0.00000277       0.00003826
Cr       0.00000005      -0.00000005       0.00000010      -0.00000106       0.00000282       0.00000036
O        1.48445502       1.04966737       5.01367436      -0.00584055      -0.00413494      -0.00001288
O        4.30483906       3.04398158       5.01367587       0.00583156       0.00413476      -0.00000443
O        3.59974452       1.04966772       3.79241436       0.00293898      -0.00412811      -0.00505576
O        2.18954901       3.04398051       6.23493736      -0.00294721       0.00412387       0.00504145
O        2.18955156       3.04398012       3.79241231      -0.00290855       0.00412055      -0.00507376
O        3.59974221       1.04966817       6.23493851       0.00290560      -0.00413042       0.00507020
