9
Lattice="5.596531219440411 -2.515431178911446e-07 3.2311585955569244 1.865510245740834 5.276459989884321 3.2311584631973527 -9.222713222469943e-08 -2.273211220517905e-07 6.462317350855966" Properties=species:S:1:pos:R:3:forces:R:3 energy=-46.737525939941406 free_energy=-46.737525939941406 stress="0.00037296151276677847 5.781135570259721e-09 -3.90597421073835e-09 5.781135570259721e-09 0.00037298406823538244 3.80133258204296e-08 -3.90597421073835e-09 3.80133258204296e-08 0.00037290944601409137" pbc="T T T"
Zr       1.86551051       1.31911617       3.23115906       0.00000078       0.00000981       0.00000396
Zr       5.59653093       3.95734691       9.69347245      -0.00000268       0.00002072      -0.00002830
Co       0.00000007      -0.00000011      -0.00000026      -0.00000040      -0.00000034       0.00000502
Se       1.87378593       1.32496491       6.46231745       0.00713792       0.00503650      -0.00000075
Se       5.58825663       3.95149308       6.46231868      -0.00713155      -0.00504926       0.00001250
Se       4.65963804       1.32496459       4.85390462      -0.00356886       0.00503263       0.00618234
Se       2.80240284       3.95149345       8.07073086       0.00356883      -0.00504738      -0.00617626
Se       2.80240224       3.95149353       4.85390392       0.00356284      -0.00504804       0.00617909
Se       4.65963836       1.32496545       8.07073085      -0.00356705       0.00504538      -0.00617748
