9
Lattice="6.016000343237791 4.433649972910382e-09 3.473339423961955 2.0053334292791294 5.6719395748076415 3.4733394631875565 1.4278661056403602e-08 5.813786303630992e-08 6.946678823192548" Properties=species:S:1:pos:R:3:forces:R:3 energy=-45.723960876464844 free_energy=-45.723960876464844 stress="-8.095332304947078e-05 1.2803571536323943e-08 -2.3628134115938337e-08 1.2803571536323943e-08 -8.095896919257939e-05 -4.833787148328383e-09 -2.3628134115938337e-08 -4.833787148328383e-09 -8.102189167402685e-05" pbc="T T T"
Zr       2.00533478       1.41798616       3.47334013       0.00000676       0.00000566       0.00000411
Zr       6.01600145       4.25395455      10.42001617       0.00000564      -0.00000116      -0.00001191
Cr      -0.00000004       0.00000007       0.00000017      -0.00000096       0.00000175       0.00000019
Te       2.04877675       1.44870471       6.94667882       0.00212242       0.00150399       0.00000047
Te       5.97255642       4.22323495       6.94667971      -0.00212634      -0.00150487       0.00000225
Te       4.99161108       1.44870381       5.24763249      -0.00106747       0.00150249       0.00184042
Te       3.02972203       4.22323494       8.64572529       0.00106303      -0.00150466      -0.00183908
Te       3.02972134       4.22323498       5.24763264       0.00106250      -0.00150759       0.00184373
Te       4.99161138       1.44870437       8.64572541      -0.00106571       0.00150451      -0.00184035
