9
Lattice="5.596887630158036 2.6545893332303963e-08 3.2313646238046556 1.8656292299814197 5.276796094211736 3.2313646326363092 3.825772622845701e-08 3.7868840340216086e-08 6.462729181344978" Properties=species:S:1:pos:R:3:forces:R:3 energy=-49.84251403808594 free_energy=-49.84251403808594 stress="-0.0004048538103234023 1.2912143354526506e-08 -9.841872206095559e-09 1.2912143354526506e-08 -0.0004048357659485191 6.574595090569346e-09 -9.841872206095559e-09 6.574595090569346e-09 -0.0004048817208968103" pbc="T T T"
Zr       1.86562888       1.31919926       3.23136494      -0.00000544       0.00000005       0.00000371
Zr       5.59688790       3.95759776       9.69409247       0.00000234       0.00000585      -0.00000937
Cr       0.00000013       0.00000005       0.00000023      -0.00000193      -0.00000103      -0.00000177
Se       1.90101809       1.34422274       6.46272900       0.00016803       0.00011979      -0.00000214
Se       5.56149873       3.93257305       6.46272986      -0.00016659      -0.00012076       0.00000578
Se       4.64637885       1.34422253       4.87769491      -0.00008292       0.00011761       0.00014989
Se       2.81613872       3.93257337       8.04776396       0.00008750      -0.00011770      -0.00014576
Se       2.81613796       3.93257336       4.87769468       0.00008416      -0.00012235       0.00014798
Se       4.64637834       1.34422247       8.04776372      -0.00008526       0.00011858      -0.00014834
