9
Lattice="5.274663100855164 8.480332976448705e-09 3.045328180880808 1.7582210877292368 4.973000109148956 3.0453281010063855 1.9103708560314323e-08 -8.431744307245684e-08 6.090656328672975" Properties=species:S:1:pos:R:3:forces:R:3 energy=-51.39368438720703 free_energy=-51.39368438720703 stress="-7.43074415368028e-05 -1.9622944935626663e-10 2.5015161497776717e-08 -1.9622944935626663e-10 -7.436064333887771e-05 1.62197526520913e-08 2.5015161497776717e-08 1.62197526520913e-08 -7.441770139848813e-05" pbc="T T T"
Zr       1.75822214       1.24324977       3.04532757       0.00001184      -0.00000265      -0.00000590
Zr       5.27466313       3.72975051       9.13598535      -0.00000311       0.00000416       0.00000917
Co       0.00000008       0.00000005      -0.00000043      -0.00000096      -0.00000002      -0.00000042
S        1.78604782       1.26292660       6.09065628      -0.00164181      -0.00115919      -0.00000037
S        5.24683618       3.71007370       6.09065634       0.00163937       0.00116003      -0.00000095
S        4.38163919       1.26292649       4.59209077       0.00081873      -0.00115937      -0.00142241
S        2.65124500       3.71007333       7.58922183      -0.00082147       0.00115758       0.00142121
S        2.65124524       3.71007384       4.59209069      -0.00081745       0.00116211      -0.00142175
S        4.38163800       1.26292585       7.58922195       0.00081444      -0.00116295       0.00142175
