9
Lattice="5.321030517215018 7.648673378177415e-08 3.0720983120331966 1.7736769518748563 5.016715605430587 3.0720982415546634 2.4707095875555274e-08 -6.88476713411773e-08 6.144196581272485" Properties=species:S:1:pos:R:3:forces:R:3 energy=-48.63087463378906 free_energy=-48.63087463378906 stress="8.273807179648429e-05 -4.6665977748716614e-08 1.4688769311987926e-08 -4.6665977748716614e-08 8.270840044133365e-05 -1.8371030918729048e-08 1.4688769311987926e-08 -1.8371030918729048e-08 8.277607412310317e-05" pbc="T T T"
Zr       1.77367652       1.25417796       3.07209826      -0.00000461      -0.00000696      -0.00000155
Zr       5.32103019       3.76253679       9.21629423      -0.00000411       0.00000216      -0.00000652
C       -0.00000064      -0.00000137      -0.00000084      -0.00000881      -0.00001970      -0.00000725
S        1.65476745       1.17009678       6.14419653      -0.00460123      -0.00325523       0.00000073
S        5.43994158       3.84661967       6.14419666       0.00461720       0.00326616       0.00000017
S        4.49364721       1.17009643       4.50516840       0.00230406      -0.00325727      -0.00398647
S        2.60106009       3.84661996       7.78322602      -0.00230685       0.00326758       0.00399848
S        2.60105999       3.84661957       4.50516782      -0.00230627       0.00326294      -0.00399330
S        4.49364762       1.17009664       7.78322543       0.00231017      -0.00326021       0.00399516
