9
Lattice="4.070244055918097 1.0273253142946471e-07 2.3499565210307733 1.3567480591904897 3.837462881576692 2.3499566185556953 9.061262361045665e-08 1.8351595630158247e-07 4.699912885115864" Properties=species:S:1:pos:R:3:forces:R:3 energy=-71.42278289794922 free_energy=-71.42278289794922 stress="0.0009164508664980531 2.2476855576769594e-07 9.27586683019399e-08 2.2476855576769594e-07 0.0009164344519376755 7.733620321914714e-08 9.27586683019399e-08 7.733620321914714e-08 0.0009169658878818154" pbc="T T T"
Zr       1.35674839       0.95936572       2.34995652       0.00000038      -0.00000148       0.00000062
Zr       4.07024428       2.87809732       7.04986909      -0.00000003       0.00000080      -0.00000151
C        0.00000089       0.00000071       0.00000143       0.00002317       0.00001701       0.00003212
O        1.29046701       0.91249812       4.69991308       0.00092196       0.00065053      -0.00000227
O        4.13652408       2.92496441       4.69991321      -0.00094503      -0.00066692       0.00000422
O        3.42501021       0.91249856       3.46753433      -0.00046498       0.00065482       0.00079149
O        2.00198219       2.92496426       5.93229115       0.00047746      -0.00066954      -0.00080502
O        2.00198180       2.92496497       3.46753443       0.00046352      -0.00065792       0.00079167
O        3.42501000       0.91249884       5.93229118      -0.00047469       0.00067288      -0.00081110
