9
Lattice="5.322311880982332 5.398486124426897e-08 3.0728380200025684 1.7741039726809542 5.017923516677716 3.0728380867624914 -4.780693505332927e-08 4.795931462025041e-08 6.145676122809083" Properties=species:S:1:pos:R:3:forces:R:3 energy=-52.577335357666016 free_energy=-52.577335357666016 stress="-9.409137419424951e-05 1.4212782950551173e-08 -8.73248584554176e-10 1.4212782950551173e-08 -9.405733726453036e-05 -5.135549208112877e-10 -8.73248584554176e-10 -5.135549208112877e-10 -9.414111264050007e-05" pbc="T T T"
Zr       1.77410242       1.25448071       3.07283822      -0.00001556      -0.00000238       0.00000241
Zr       5.32231017       3.76344096       9.21851438      -0.00002025      -0.00001965       0.00000228
Fe       0.00000015       0.00000021      -0.00000023       0.00000114       0.00000016      -0.00000063
S        1.79252669       1.26750760       6.14567613      -0.00012141      -0.00008702      -0.00000027
S        5.30388895       3.75041610       6.14567618       0.00012523       0.00009066      -0.00000019
S        4.42604961       1.26750902       4.62521124       0.00007170      -0.00007641      -0.00010836
S        2.67036777       3.75041592       7.66614082      -0.00005606       0.00008690       0.00010943
S        2.67036783       3.75041558       4.62521126      -0.00005743       0.00008762      -0.00011092
S        4.42604960       1.26750854       7.66614066       0.00007296      -0.00007999       0.00010669
