9
Lattice="5.657140986814135 4.6960775972736366e-08 3.266152128261125 1.8857137099135863 5.333604151618333 3.266152122429035 8.329457475481141e-08 5.175532314075459e-08 6.532304112251801" Properties=species:S:1:pos:R:3:forces:R:3 energy=-47.97064971923828 free_energy=-47.97064971923828 stress="0.00020731565018650144 -2.5557270078024885e-08 5.67409719209877e-09 -2.5557270078024885e-08 0.00020726726506836712 6.154738496633172e-09 5.67409719209877e-09 6.154738496633172e-09 0.00020730399410240352" pbc="T T T"
Zr       1.88571310       1.33340157       3.26615236      -0.00000444       0.00000820       0.00000267
Zr       5.65714103       4.00020190       9.79845730       0.00000026      -0.00001744       0.00000771
Fe       0.00000016      -0.00000021       0.00000048      -0.00000257       0.00000071      -0.00000913
Se       1.87946515       1.32898309       6.53230414       0.00093830       0.00067011       0.00000121
Se       5.66338975       4.00462114       6.53230280      -0.00093591      -0.00067058      -0.00001037
Se       4.71740826       1.32898285       4.89381655      -0.00047076       0.00066945       0.00081241
Se       2.82544680       4.00462146       8.17079158       0.00047106      -0.00066075      -0.00081223
Se       2.82544592       4.00462158       4.89381691       0.00046715      -0.00066695       0.00081658
Se       4.71740887       1.32898361       8.17079130      -0.00046256       0.00066727      -0.00080884
