9
Lattice="4.33995228759059 -1.0031331505727777e-07 2.5056726853820455 1.4466506954003395 4.091746145736757 2.5056726378434004 -5.966309574498138e-08 -1.0041088787418189e-07 5.011345474103603" Properties=species:S:1:pos:R:3:forces:R:3 energy=-66.65512084960938 free_energy=-66.65512084960938 stress="-0.00030413674539886415 9.411027512840064e-09 -7.1944555202208e-08 9.411027512840064e-09 -0.00030369716114364564 3.955261007604349e-08 -7.1944555202208e-08 3.955261007604349e-08 -0.0003041534509975463" pbc="T T T"
Zr       1.44665098       1.02293630       2.50567303       0.00000592       0.00000083       0.00000374
Zr       4.33995272       3.06881179       7.51701894       0.00000704       0.00002664       0.00000993
Fe      -0.00000002      -0.00000002       0.00000014      -0.00000156       0.00000048      -0.00000483
O        1.47083166       1.04003466       5.01134518      -0.00238231      -0.00168853      -0.00000081
O        4.31577133       3.05171078       5.01134500       0.00238422       0.00168519      -0.00000208
O        3.60453601       1.04003449       3.77945036       0.00118458      -0.00169416      -0.00206380
O        2.18206643       3.05171073       6.24324038      -0.00119327       0.00168515       0.00206271
O        2.18206647       3.05171084       3.77945029      -0.00119312       0.00168218      -0.00206302
O        3.60453610       1.04003411       6.24323979       0.00118865      -0.00169822       0.00205821
