9
Lattice="5.95389460387126 -4.930853350938062e-09 3.437482685234329 1.984631532454363 5.613385604429242 3.437482680939807 1.449645612915159e-09 -4.234676828508439e-09 6.87496536795781" Properties=species:S:1:pos:R:3:forces:R:3 energy=-45.3369255065918 free_energy=-45.3369255065918 stress="-6.909119838383049e-05 -4.628826744124126e-08 -2.0453617466387186e-08 -4.628826744124126e-08 -6.914444384165108e-05 -2.506049590067505e-08 -2.0453617466387186e-08 -2.506049590067505e-08 -6.915859557921067e-05" pbc="T T T"
Zr       1.98463135       1.40334562       3.43748279      -0.00000013      -0.00000282       0.00000060
Zr       5.95389462       4.21003943      10.31244860       0.00000056       0.00000074      -0.00000028
Fe       0.00000005      -0.00000023       0.00000018       0.00000176       0.00000152       0.00000073
Te       1.95951225       1.38558456       6.87496521       0.00196546       0.00139065      -0.00000026
Te       5.97901383       4.22780158       6.87496505      -0.00197145      -0.00139150      -0.00000035
Te       4.97413856       1.38558441       5.13447004      -0.00098252       0.00139295       0.00170600
Te       2.96438758       4.22780142       8.61546063       0.00098424      -0.00139047      -0.00170637
Te       2.96438780       4.22780151       5.13446987       0.00098498      -0.00138963       0.00170446
Te       4.97413850       1.38558413       8.61546052      -0.00098288       0.00138845      -0.00170450
