9
Lattice="5.467141938512246 -3.4703399089660086e-08 3.1564557773055837 1.8223806046720967 5.154470937638908 3.156455792512956 -7.722279118435874e-08 -3.5979626129982535e-08 6.312911688364949" Properties=species:S:1:pos:R:3:forces:R:3 energy=-47.63523483276367 free_energy=-47.63523483276367 stress="-4.727961277239956e-05 1.4665143766023903e-08 2.3133122084573188e-08 1.4665143766023903e-08 -4.726240877062082e-05 4.7307651129813166e-08 2.3133122084573188e-08 4.7307651129813166e-08 -4.728326166514307e-05" pbc="T T T"
Zr       1.82237903       1.28861731       3.15645509      -0.00001648      -0.00000740      -0.00001010
Zr       5.46714309       3.86585486       9.46937008       0.00001411       0.00001812       0.00003093
Ge       0.00000010       0.00000008       0.00000019      -0.00000088      -0.00000025       0.00000427
S        1.85651029       1.31275043       6.31291197      -0.00097412      -0.00069258       0.00000388
S        5.43301267       3.84171977       6.31290956       0.00097978       0.00068986      -0.00001538
S        4.53888728       1.31275052       4.76424139       0.00049508      -0.00069648      -0.00084299
S        2.75063492       3.84172011       7.86158202      -0.00049669       0.00069290       0.00083941
S        2.75063556       3.84172064       4.76424080      -0.00048789       0.00069591      -0.00084341
S        4.53888705       1.31274972       7.86158184       0.00048694      -0.00070015       0.00083387
