9
Lattice="5.70883254420811 -1.619930174099579e-08 3.2959959619230212 1.9029441541191252 5.382338829343483 3.2959959827262346 -7.69269625312222e-08 -2.8916977730982283e-08 6.591992057087447" Properties=species:S:1:pos:R:3:forces:R:3 energy=-42.949005126953125 free_energy=-42.949005126953125 stress="-0.0002061763225356117 1.7652496353548486e-08 1.4002954351610697e-08 1.7652496353548486e-08 -0.00020612453226931393 1.8322813488680367e-08 1.4002954351610697e-08 1.8322813488680367e-08 -0.00020618271082639694" pbc="T T T"
Zr       1.90294468       1.34558240       3.29599720       0.00000593      -0.00002032       0.00000969
Zr       5.70883279       4.03675481       9.88798723       0.00000067       0.00000529      -0.00000787
Ge      -0.00000010       0.00000003      -0.00000004       0.00000112      -0.00000277      -0.00000003
Se       1.96521546       1.38961758       6.59199171      -0.00014445      -0.00010039      -0.00000395
Se       5.64656064       3.99272201       6.59199249       0.00013950       0.00010656       0.00000444
Se       4.72622391       1.38961679       4.99792243       0.00006521      -0.00010334      -0.00012292
Se       2.88555238       3.99272251       8.18606072      -0.00006771       0.00011131       0.00012060
Se       2.88555207       3.99272213       4.99792291      -0.00007051       0.00010584      -0.00012103
Se       4.72622466       1.38961689       8.18606139       0.00007017      -0.00010215       0.00012110
