9
Lattice="6.149619936794075 -5.606338177493024e-09 3.550484743759754 2.049873256799713 5.797917426715953 3.5504848306727785 -1.1880872013451142e-08 9.804527073171419e-08 7.100969508097763" Properties=species:S:1:pos:R:3:forces:R:3 energy=-39.36774444580078 free_energy=-39.36774444580078 stress="1.4553672826878028e-06 9.7830472611804e-09 -1.515465264390059e-08 9.7830472611804e-09 1.4538680943587678e-06 1.2731529608345227e-08 -1.515465264390059e-08 1.2731529608345227e-08 1.4734313253939035e-06" pbc="T T T"
Zr       2.04987325       1.44947970       3.55048476      -0.00000003       0.00000027      -0.00000012
Zr       6.14961899       4.34843766      10.65145448      -0.00000557      -0.00000143       0.00000312
Ge      -0.00000006       0.00000040      -0.00000007      -0.00000197      -0.00000515       0.00000183
Te       2.15066094       1.52074711       7.10096959      -0.00005192      -0.00003786       0.00000197
Te       6.04883207       4.27717019       7.10096939       0.00005839       0.00003926      -0.00000279
Te       5.07428932       1.52074735       5.41301158       0.00002663      -0.00003607      -0.00004756
Te       3.12520442       4.27717025       8.78892728      -0.00002665       0.00003873       0.00005039
Te       3.12520418       4.27717035       5.41301204      -0.00002641       0.00003875      -0.00005092
Te       5.07428963       1.52074706       8.78892730       0.00002751      -0.00003660       0.00004420
