9
Lattice="6.229415977874266 7.986181923509322e-08 3.596555033468296 2.0764720555104823 5.873149762182302 3.5965550549608643 5.102415037320082e-08 6.240242752877787e-08 7.193109978560163" Properties=species:S:1:pos:R:3:forces:R:3 energy=-46.359134674072266 free_energy=-46.359134674072266 stress="-0.00017999688861891627 2.8555020570308898e-09 -9.6523100623358e-09 2.8555020570308898e-09 -0.00018001184798777103 1.050387034295941e-11 -9.6523100623358e-09 1.050387034295941e-11 -0.0001800080790417269" pbc="T T T"
Zr       2.07647200       1.46828739       3.59655462      -0.00000052      -0.00000073      -0.00000098
Zr       6.22941664       4.40486222      10.78966566       0.00000378      -0.00000044       0.00000171
Hf       0.00000002       0.00000019      -0.00000033      -0.00000304      -0.00000019       0.00000268
Te       2.21257276       1.56452526       7.19311013      -0.00414494      -0.00293027       0.00000159
Te       6.09331514       4.30862464       7.19310980       0.00414607       0.00293352      -0.00000014
Te       5.12312950       1.56452549       5.51269923       0.00207449      -0.00293314      -0.00359245
Te       3.18275813       4.30862471       8.87352090      -0.00207420       0.00292878       0.00358811
Te       3.18275836       4.30862458       5.51269927      -0.00207432       0.00293289      -0.00358897
Te       5.12312979       1.56452511       8.87352099       0.00207270      -0.00293037       0.00358850
