9
Lattice="5.7499112943229855 -3.8263319366613656e-08 3.319712826999369 1.9166370340175354 5.421068493845317 3.3197128755229786 -6.171650761728693e-08 1.5788875583505473e-08 6.639425760894832" Properties=species:S:1:pos:R:3:forces:R:3 energy=-50.2371940612793 free_energy=-50.2371940612793 stress="-4.737654307973571e-05 -4.4756660599887255e-08 -1.790595760553515e-08 -4.4756660599887255e-08 -4.73584805149585e-05 -3.1223081897735483e-09 -1.790595760553515e-08 -3.1223081897735483e-09 -4.731258377432823e-05" pbc="T T T"
Zr       1.91663777       1.35526720       3.31971385       0.00000915      -0.00000154       0.00001255
Zr       5.74991044       4.06580205       9.95913754      -0.00001090       0.00000942      -0.00000764
Hf       0.00000009       0.00000002      -0.00000017       0.00000171      -0.00000745      -0.00000830
Se       2.05084347       1.45016489       6.63942549      -0.00036076      -0.00026221      -0.00000531
Se       5.61570464       3.97090362       6.63942640       0.00036424       0.00026105       0.00000233
Se       4.72448908       1.45016495       5.09579520       0.00017702      -0.00025833      -0.00031611
Se       2.94205902       3.97090277       8.18305629      -0.00018504       0.00026370       0.00032561
Se       2.94205869       3.97090305       5.09579522      -0.00018116       0.00025702      -0.00032111
Se       4.72448973       1.45016541       8.18305601       0.00018535      -0.00026164       0.00031839
