9
Lattice="5.455459356194724 -5.880846427775623e-08 3.149710989288724 1.8184864035603077 5.143456491961671 3.149710977267343 -3.6910649058461323e-08 -4.082289273852051e-08 6.29942204250858" Properties=species:S:1:pos:R:3:forces:R:3 energy=-56.198760986328125 free_energy=-56.198760986328125 stress="-0.0001087776618078351 -3.412734095320502e-09 2.3065817700285152e-08 -3.412734095320502e-09 -0.00010877070599235594 -3.026377726200735e-08 2.3065817700285152e-08 -3.026377726200735e-08 -0.0001087775090127252" pbc="T T T"
Zr       1.81848606       1.28586541       3.14971131      -0.00000082       0.00000926       0.00000106
Zr       5.45545972       3.85759131       9.44913265       0.00000259      -0.00000555      -0.00000096
Hf      -0.00000000      -0.00000004       0.00000011       0.00000073      -0.00000077       0.00000183
S        1.95314222       1.38108020       6.29942207      -0.00316556      -0.00223786      -0.00000077
S        5.32080357       3.76237621       6.29942191       0.00316654       0.00223739      -0.00000020
S        4.47888835       1.38108015       4.84118183       0.00158458      -0.00223699      -0.00274250
S        2.79505741       3.76237602       7.75766224      -0.00158553       0.00223623       0.00274400
S        2.79505699       3.76237588       4.84118180      -0.00158781       0.00223549      -0.00274418
S        4.47888855       1.38108037       7.75766213       0.00158550      -0.00223722       0.00274216
