9
Lattice="4.516478302153366 -3.474478181486952e-08 2.607590017891089 1.505492747298089 4.2581767492351466 2.6075899959436715 2.923650048709692e-08 -6.206642922177657e-09 5.215179985143084" Properties=species:S:1:pos:R:3:forces:R:3 energy=-74.20543670654297 free_energy=-74.20543670654297 stress="8.737161260796711e-05 1.6442460548660165e-07 -1.3391624520409096e-07 1.6442460548660165e-07 8.701980550540611e-05 -1.1583289882821646e-08 -1.3391624520409096e-07 -1.1583289882821646e-08 8.742413047002628e-05" pbc="T T T"
Zr       1.50549352       1.06454629       2.60758924       0.00001402       0.00003559      -0.00001409
Zr       4.51647808       3.19363184       7.82277025      -0.00000400      -0.00001037       0.00000427
Hf       0.00000004       0.00000011       0.00000006      -0.00000372       0.00000112      -0.00000202
O        1.59604362       1.12857376       5.21518000      -0.00023185      -0.00016037       0.00000538
O        4.42592735       3.12960281       5.21517967       0.00023273       0.00015868      -0.00000377
O        3.71845647       1.12857347       3.98980482       0.00011539      -0.00016357      -0.00019949
O        2.30351449       3.12960249       6.44055612      -0.00011484       0.00014734       0.00020626
O        2.30351446       3.12960257       3.98980434      -0.00011630       0.00015182      -0.00020076
O        3.71845620       1.12857347       6.44055554       0.00010809      -0.00016014       0.00020360
