9
Lattice="4.431889582814983 -5.1148338792999266e-09 2.5587526940215968 1.4772965179949424 4.178425606977693 2.558752702314182 2.4305530246539572e-08 2.7342892653286615e-08 5.117505345944799" Properties=species:S:1:pos:R:3:forces:R:3 energy=-67.20032501220703 free_energy=-67.20032501220703 stress="9.573323040967807e-05 -3.3653552833357026e-08 2.8020041398235662e-08 -3.3653552833357026e-08 9.578544995747507e-05 6.058782275886188e-08 2.8020041398235662e-08 6.058782275886188e-08 9.573244460625574e-05" pbc="T T T"
Zr       1.47729654       1.04460617       2.55875333      -0.00000045      -0.00000357       0.00001289
Zr       4.43188955       3.13381964       7.67625869      -0.00000082       0.00000566       0.00000786
Ir      -0.00000009       0.00000051      -0.00000040       0.00000430      -0.00002574       0.00002217
O        1.54900322       1.09531019       5.11750505      -0.00368243      -0.00260881      -0.00000377
O        4.36018291       3.08311503       5.11750527       0.00369409       0.00261459      -0.00000237
O        3.65738793       1.09531091       3.90022863       0.00184648      -0.00261039      -0.00320327
O        2.25179810       3.08311531       6.33478187      -0.00184728       0.00261259       0.00319657
O        2.25179813       3.08311469       3.90022895      -0.00185464       0.00261903      -0.00321287
O        3.65738816       1.09531018       6.33478158       0.00184011      -0.00260413       0.00318235
