9
Lattice="5.765543917194983 7.61263946938527e-08 3.328738318436102 1.9218480094648107 5.435806891838287 3.328738378548947 -5.2377695674050555e-08 3.658625898438593e-08 6.65747672759306" Properties=species:S:1:pos:R:3:forces:R:3 energy=-48.07442855834961 free_energy=-48.07442855834961 stress="-0.0002135794929927215 2.5551111448862684e-08 8.710363097463869e-09 2.5551111448862684e-08 -0.0002136426919605583 7.400704493676358e-10 8.710363097463869e-09 7.400704493676358e-10 -0.00021369097521528602" pbc="T T T"
Zr       1.92184765       1.35895176       3.32873811      -0.00000293       0.00000046      -0.00000066
Zr       5.76554458       4.07685547       9.98621481       0.00000488       0.00000262      -0.00000791
Ir      -0.00000014       0.00000013      -0.00000018       0.00000122      -0.00000280      -0.00000098
Se       1.96021228       1.38607936       6.65747664      -0.00478530      -0.00338697      -0.00000023
Se       5.72717966       4.04972757       6.65747676       0.00478697       0.00338623       0.00000285
Se       4.78543795       1.38607916       5.02633213       0.00239405      -0.00338614      -0.00414008
Se       2.90195391       4.04972751       8.28862155      -0.00239351       0.00338179       0.00414646
Se       2.90195367       4.04972765       5.02633227      -0.00239718       0.00338611      -0.00414246
Se       4.78543793       1.38607944       8.28862163       0.00239214      -0.00338146       0.00414294
