9
Lattice="5.512257370721398 -8.24783130328951e-08 3.1825033292237177 1.8374190446738636 5.197006241489532 3.182503331195875 -3.097378759361088e-08 -1.948637194350507e-08 6.3650067120956395" Properties=species:S:1:pos:R:3:forces:R:3 energy=-52.110652923583984 free_energy=-52.110652923583984 stress="8.805372090137098e-06 -6.462350210512113e-09 3.810214088684205e-10 -6.462350210512113e-09 8.72864529810613e-06 9.358656960500866e-09 3.810214088684205e-10 9.358656960500866e-09 8.857623470248654e-06" pbc="T T T"
Zr       1.83742014       1.29925107       3.18250362       0.00001426      -0.00000602       0.00000189
Zr       5.51225642       3.89775499       9.54751013      -0.00000986       0.00000556       0.00000192
Ir       0.00000007       0.00000035       0.00000023      -0.00000075      -0.00000431       0.00000016
S        1.87911283       1.32873271       6.36500670      -0.00295568      -0.00209576      -0.00000086
S        5.47056357       3.86827324       6.36500654       0.00295889       0.00209743      -0.00000135
S        4.57270067       1.32873320       4.80986210       0.00147343      -0.00209355      -0.00256610
S        2.77697556       3.86827301       7.92015077      -0.00147748       0.00209588       0.00256580
S        2.77697576       3.86827293       4.80986244      -0.00147730       0.00209421      -0.00256604
S        4.57270064       1.32873319       7.92015104       0.00147486      -0.00209337       0.00256413
