9
Lattice="5.6505202929597065 -1.336248327893077e-10 3.262329340411303 1.883506747975607 5.327361546969823 3.2623293685022454 -4.1932462970064784e-08 4.7535053172513135e-09 6.524658753451759" Properties=species:S:1:pos:R:3:forces:R:3 energy=-48.82038116455078 free_energy=-48.82038116455078 stress="-0.00025204772828146815 6.61824017811341e-09 2.4561777056675282e-09 6.61824017811341e-09 -0.0002520379493944347 -2.0724398197558003e-08 2.4561777056675282e-09 -2.0724398197558003e-08 -0.00025203576660715044" pbc="T T T"
Zr       1.88350624       1.33184066       3.26232924      -0.00000251       0.00000184      -0.00000105
Zr       5.65051925       3.99552198       9.78698934      -0.00000899       0.00000868       0.00001074
Mn       0.00000007       0.00000005      -0.00000039      -0.00000095      -0.00000016       0.00000312
Se       1.91049889       1.35092631       6.52465870       0.00128490       0.00090435      -0.00000070
Se       5.62352854       3.97643473       6.52465816      -0.00128138      -0.00090924      -0.00000329
Se       4.69527088       1.35092652       4.91686957      -0.00064042       0.00090569       0.00110894
Se       2.83875626       3.97643503       8.13244804       0.00064459      -0.00090778      -0.00111037
Se       2.83875661       3.97643487       4.91686957       0.00064468      -0.00090590       0.00110626
Se       4.69527125       1.35092601       8.13244764      -0.00064057       0.00090235      -0.00111365
