9
Lattice="4.3290288321928125 6.458657453503597e-09 2.499365804734126 1.4430096263917447 4.081447394006058 2.499365788155729 -7.073397957108636e-09 -2.5305931762658913e-08 4.99873162171974" Properties=species:S:1:pos:R:3:forces:R:3 energy=-70.50916290283203 free_energy=-70.50916290283203 stress="-0.0002743197837844491 5.7222209193241724e-08 -7.484622699394095e-08 5.7222209193241724e-08 -0.00027489240164868534 1.7916457295541477e-07 -7.484622699394095e-08 1.7916457295541477e-07 -0.0002746186510194093" pbc="T T T"
Zr       1.44300854       1.02036254       2.49936589      -0.00001250       0.00000780      -0.00000055
Zr       4.32902881       3.06108414       7.49809644      -0.00000308      -0.00001608      -0.00001254
Mn       0.00000004       0.00000002      -0.00000022       0.00000242      -0.00000858       0.00000718
O        1.47259326       1.04128092       4.99873160      -0.00681728      -0.00481507       0.00000441
O        4.29944533       3.04016652       4.99873186       0.00682414       0.00481832       0.00000404
O        3.59273208       1.04128055       3.77466901       0.00341295      -0.00481947      -0.00590104
O        2.17930651       3.04016679       6.22279464      -0.00340707       0.00481957       0.00590491
O        2.17930647       3.04016717       3.77466879      -0.00340630       0.00481911      -0.00590053
O        3.59273282       1.04128091       6.22279489       0.00340680      -0.00480573       0.00589412
