9
Lattice="5.341172930432841 2.56399273232873e-08 3.083727643434315 1.780390994100361 5.0357061056801875 3.0837276553580333 7.800652041712101e-09 2.011940833410075e-08 6.167455273357514" Properties=species:S:1:pos:R:3:forces:R:3 energy=-53.70442581176758 free_energy=-53.70442581176758 stress="-0.0001240408601006493 4.482551219098241e-09 1.0158040630869891e-08 4.482551219098241e-09 -0.00012414834054652601 -3.0274311058064995e-08 1.0158040630869891e-08 -3.0274311058064995e-08 -0.0001240590208908543" pbc="T T T"
Zr       1.78038981       1.25892542       3.08372738      -0.00001413      -0.00001325      -0.00000290
Zr       5.34117317       3.77678417       9.25118232       0.00000277       0.00004672      -0.00000301
Mn      -0.00000022      -0.00000006       0.00000019      -0.00000068      -0.00000214       0.00000035
S        1.82196898       1.28832457       6.16745539       0.00023228       0.00014514       0.00000134
S        5.29959593       3.74737983       6.16745531      -0.00022274      -0.00015891      -0.00000050
S        4.43018892       1.28832409       4.66159969      -0.00011232       0.00014311       0.00020695
S        2.69137503       3.74738071       7.67331174       0.00011304      -0.00015563      -0.00019944
S        2.69137525       3.74738052       4.66159864       0.00011483      -0.00015491       0.00019723
S        4.43018896       1.28832527       7.67331168      -0.00011316       0.00015014      -0.00020015
