9
Lattice="4.494206333498179 5.1340325646153674e-08 2.5947312814432735 1.4980687685379754 4.237178611492621 2.5947313813806803 -7.60714809792179e-09 1.170187374173696e-07 5.1894625760625255" Properties=species:S:1:pos:R:3:forces:R:3 energy=-69.00638580322266 free_energy=-69.00638580322266 stress="0.00016293389489874244 6.928910778469799e-08 -9.387822785811295e-08 6.928910778469799e-08 0.0001629871258046478 7.163178139535376e-08 -9.387822785811295e-08 7.163178139535376e-08 0.00016296304238494486" pbc="T T T"
Zr       1.49806959       1.05929496       2.59473105       0.00000886       0.00000460      -0.00000135
Zr       4.49420656       3.17788364       7.78419445       0.00000232      -0.00000191       0.00000467
Mo       0.00000004       0.00000027       0.00000011      -0.00000088      -0.00000287       0.00000695
O        1.56614671       1.10743342       5.18946285      -0.00078462      -0.00055282       0.00000338
O        4.42612840       3.12974549       5.18946209       0.00078028       0.00055491      -0.00000375
O        3.71113239       1.10743329       3.95105431       0.00038928      -0.00055708      -0.00068343
O        2.28114206       3.12974563       6.42787102      -0.00038810       0.00054972       0.00067418
O        2.28114168       3.12974550       3.95105404      -0.00039058       0.00055174      -0.00067420
O        3.71113286       1.10743305       6.42787106       0.00038341      -0.00054622       0.00067301
