9
Lattice="5.433186267640869 1.0038875714570607e-07 3.13685169157046 1.811062183708311 5.122457100734357 3.1368516918350338 6.647394481192643e-08 4.732821939114155e-08 6.273703268004642" Properties=species:S:1:pos:R:3:forces:R:3 energy=-54.93220901489258 free_energy=-54.93220901489258 stress="-0.00010945692338282242 5.75942804559304e-09 -2.6049026047303414e-08 5.75942804559304e-09 -0.0001094318286050111 1.6761909193974134e-08 -2.6049026047303414e-08 1.6761909193974134e-08 -0.00010951081640087068" pbc="T T T"
Zr       1.81106156       1.28061525       3.13685175      -0.00000527       0.00001005       0.00000214
Zr       5.43318447       3.84184331       9.41055155      -0.00002060       0.00000541      -0.00003334
Mo       0.00000015      -0.00000010      -0.00000003       0.00000025       0.00000003       0.00000500
S        1.90850766       1.34951775       6.27370335      -0.00294578      -0.00209221       0.00000134
S        5.33574167       3.77293871       6.27370503       0.00295347       0.00208175       0.00001476
S        4.47893295       1.34951832       4.78966795       0.00148004      -0.00209120      -0.00255084
S        2.76531666       3.77293865       7.75773995      -0.00146529       0.00208339       0.00255927
S        2.76531600       3.77293828       4.78966718      -0.00147527       0.00208169      -0.00255561
S        4.47893301       1.34951885       7.75773982       0.00147864      -0.00207877       0.00255749
