9
Lattice="5.720780950856928 -4.5797466499302264e-08 3.302894310483234 1.906926947648489 5.3936038974504745 3.3028942979990275 -5.988055572153815e-08 -5.76319101855852e-08 6.605788724682601" Properties=species:S:1:pos:R:3:forces:R:3 energy=-49.78901290893555 free_energy=-49.78901290893555 stress="-0.00015370608889497817 -1.4279693871799282e-08 6.160203724903113e-08 -1.4279693871799282e-08 -0.000153686516568996 -7.805433455132516e-08 6.160203724903113e-08 -7.805433455132516e-08 -0.00015370818437077105" pbc="T T T"
Zr       1.90692687       1.34840175       3.30289301      -0.00000018       0.00000926      -0.00001812
Zr       5.72078129       4.04520303       9.90868618       0.00000325       0.00000237       0.00004054
Mo       0.00000004      -0.00000015      -0.00000035      -0.00000245       0.00000105       0.00000076
Se       1.99453317       1.41034797       6.60578854      -0.00219440      -0.00155082       0.00000234
Se       5.63317441       3.98325587       6.60578762       0.00219399       0.00155084      -0.00001127
Se       4.72351485       1.41034836       5.03021063       0.00110324      -0.00154525      -0.00190157
Se       2.90419272       3.98325518       8.18136672      -0.00110467       0.00154135       0.00189510
Se       2.90419428       3.98325605       5.03021061      -0.00109208       0.00155450      -0.00190541
Se       4.72351368       1.41034712       8.18136637       0.00109321      -0.00156306       0.00189781
