9
Lattice="5.962183843760194 3.348021953567656e-08 3.442268365950667 1.9873946409672802 5.6212009369320555 3.4422683749311993 -2.452222766761615e-09 9.264883871691418e-09 6.884536736148706" Properties=species:S:1:pos:R:3:forces:R:3 energy=-42.80992126464844 free_energy=-42.80992126464844 stress="8.943502325564623e-05 6.558681064916527e-08 -8.872032886131365e-09 6.558681064916527e-08 8.949937910074368e-05 4.366886408035953e-09 -8.872032886131365e-09 4.366886408035953e-09 8.937537495512515e-05" pbc="T T T"
Zr       1.98739473       1.40529978       3.44226894       0.00000168       0.00000001       0.00000015
Zr       5.96218423       4.21590196      10.32680535       0.00000099       0.00000459       0.00000153
Ni       0.00000009       0.00000001      -0.00000004      -0.00000044      -0.00000072       0.00000087
Te       2.02286901       1.43038391       6.88453653       0.00029165       0.00020760      -0.00000109
Te       5.92670956       4.19081685       6.88453644      -0.00029288      -0.00020778       0.00000013
Te       4.95074938       1.43038402       5.19412408      -0.00014714       0.00020660       0.00025380
Te       2.99882877       4.19081689       8.57494934       0.00014608      -0.00020874      -0.00025518
Te       2.99882886       4.19081678       5.19412411       0.00014614      -0.00020900       0.00025515
Te       4.95074929       1.43038373       8.57494919      -0.00014614       0.00020732      -0.00025560
