9
Lattice="4.455065102725774 3.794891167571389e-08 2.57213331301253 1.485021780841594 4.200275615845582 2.5721332365348135 1.783027705233942e-07 3.241338411200761e-08 5.144266317195657" Properties=species:S:1:pos:R:3:forces:R:3 energy=-73.64008331298828 free_energy=-73.64008331298828 stress="-0.00019391573732718825 -2.3732143006327533e-07 -4.358450667041325e-08 -2.3732143006327533e-07 -0.00019404485647100955 -3.4427387163304957e-07 -4.358450667041325e-08 -3.4427387163304957e-07 -0.00019429576059337705" pbc="T T T"
Zr       1.48502026       1.05006862       2.57213212      -0.00001561      -0.00000570      -0.00001650
Zr       4.45506772       3.15020665       7.71640132       0.00003047       0.00000319       0.00002414
Nb       0.00000034       0.00000044       0.00000197      -0.00001486      -0.00000671      -0.00005595
O        1.57542080       1.11399089       5.14426657       0.00438258       0.00310774      -0.00000881
O        4.36466618       3.08628480       5.14426561      -0.00437555      -0.00309305      -0.00001380
O        3.66735569       1.11399010       3.93648807      -0.00220206       0.00312012       0.00381877
O        2.27273163       3.08628434       6.35204411       0.00216883      -0.00308114      -0.00379103
O        2.27273180       3.08628537       3.93648818       0.00219704      -0.00311235       0.00380829
O        3.66735370       1.11399152       6.35204367      -0.00217016       0.00306809      -0.00376566
