9
Lattice="6.207208044497584 4.8687232585422744e-08 3.583733187969968 2.0690693615920352 5.852211907728723 3.5837332442210457 -4.2158302754978276e-08 3.9082781367016424e-08 7.167466448960257" Properties=species:S:1:pos:R:3:forces:R:3 energy=-45.65605545043945 free_energy=-45.65605545043945 stress="-0.00029305138741619885 -5.173136141678469e-09 -2.019023614963089e-09 -5.173136141678469e-09 -0.000293035467620939 1.5626136828927883e-08 -2.019023614963089e-09 1.5626136828927883e-08 -0.00029304265626706183" pbc="T T T"
Zr       2.06906873       1.46305335       3.58373306      -0.00000494       0.00000331      -0.00000135
Zr       6.20720779       4.38915883      10.75119956      -0.00000216      -0.00000218       0.00000137
Nb       0.00000020      -0.00000019       0.00000013      -0.00000186       0.00000112       0.00000038
Te       2.18260431       1.54333424       7.16746640      -0.00670358      -0.00474087       0.00000044
Te       6.09367319       4.30887766       7.16746645       0.00670733       0.00474099      -0.00000042
Te       5.11590615       1.54333443       5.47392401       0.00335548      -0.00474124      -0.00580935
Te       3.16037148       4.30887762       8.86100906      -0.00335421       0.00474169       0.00580741
Te       3.16037144       4.30887768       5.47392380      -0.00335005       0.00473798      -0.00580576
Te       5.11590617       1.54333437       8.86100904       0.00335393      -0.00474057       0.00580738
