9
Lattice="5.26101572995703 -2.636179835144679e-08 3.0374487215584174 1.7536719071042353 4.960133181225945 3.037448683500529 -4.2641766764321884e-08 -7.67634176002416e-08 6.074897516974582" Properties=species:S:1:pos:R:3:forces:R:3 energy=-50.03440856933594 free_energy=-50.03440856933594 stress="-0.00021753857436124235 2.8923773598421576e-08 -1.2635926971427125e-08 2.8923773598421576e-08 -0.00021749158622696996 -2.1158976792889916e-08 -1.2635926971427125e-08 -2.1158976792889916e-08 -0.00021764803386759013" pbc="T T T"
Zr       1.75367217       1.24003386       3.03744895       0.00000276       0.00000444      -0.00000152
Zr       5.26101611       3.72009944       9.11234737       0.00000173      -0.00000281       0.00001198
Ni      -0.00000002       0.00000006       0.00000019       0.00000263      -0.00000077       0.00000031
S        1.78902351       1.26503074       6.07489734      -0.00130981      -0.00092489      -0.00000135
S        5.22566410       3.69510235       6.07489697       0.00130671       0.00092334      -0.00000500
S        4.36650400       1.26503067       4.58678819       0.00065351      -0.00092113      -0.00113118
S        2.64818339       3.69510220       7.56300631      -0.00065660       0.00092357       0.00113159
S        2.64818348       3.69510232       4.58678804      -0.00065348       0.00092280      -0.00113416
S        4.36650351       1.26503058       7.56300635       0.00065237      -0.00092441       0.00112981
