9
Lattice="4.272219938744406 6.174994933294592e-08 2.4665673413284317 1.424073343178059 4.027887744663779 2.4665673897481635 1.7025210603201146e-08 7.134046631293451e-08 4.933134653168355" Properties=species:S:1:pos:R:3:forces:R:3 energy=-63.674285888671875 free_energy=-63.674285888671875 stress="-0.0010113936150446534 -5.704542260787093e-08 1.3533284715094851e-08 -5.704542260787093e-08 -0.0010112911695614457 1.4010215210191745e-08 1.3533284715094851e-08 1.4010215210191745e-08 -0.001011354150250554" pbc="T T T"
Zr       1.42407241       1.00697176       2.46656791      -0.00001234      -0.00000016       0.00000711
Zr       4.27221926       3.02091623       7.39970277      -0.00000781       0.00000553       0.00000749
Ni       0.00000008       0.00000001      -0.00000003       0.00000120      -0.00000067      -0.00000091
O        1.44408677       1.02112247       4.93313426      -0.00696933      -0.00494148      -0.00000358
O        4.25220714       3.00676498       4.93313410       0.00697300       0.00493503      -0.00000434
O        3.55017745       1.02112317       3.71718283       0.00349566      -0.00493397      -0.00604567
O        2.14611607       3.00676443       6.14908656      -0.00349046       0.00493446       0.00604349
O        2.14611643       3.00676476       3.71718257      -0.00348686       0.00493339      -0.00604543
O        3.55017772       1.02112366       6.14908664       0.00349626      -0.00493208       0.00604205
