9
Lattice="5.583147407716191 -1.2887920135288146e-08 3.2234318908264834 1.861049162239173 5.263841893289221 3.223431824169134 3.3894213299167455e-08 -5.7671418242738316e-08 6.446863722946453" Properties=species:S:1:pos:R:3:forces:R:3 energy=-45.621246337890625 free_energy=-45.621246337890625 stress="-0.0002790974685922265 1.9109593907273847e-08 3.006815063599788e-08 1.9109593907273847e-08 -0.0002790367871057242 1.9397640826923634e-08 3.006815063599788e-08 1.9397640826923634e-08 -0.0002791133592836559" pbc="T T T"
Zr       1.86104878       1.31596014       3.22343208      -0.00000358      -0.00000237       0.00000071
Zr       5.58314850       3.94788215       9.67029510       0.00000778       0.00000634      -0.00000555
Ni      -0.00000016      -0.00000005      -0.00000002      -0.00000000      -0.00000328       0.00000035
Se       1.89921183       1.34294501       6.44686362       0.00380501       0.00268912       0.00000078
Se       5.54498492       3.92089649       6.44686407      -0.00380307      -0.00268921       0.00000359
Se       4.63354157       1.34294515       4.86819740      -0.00190181       0.00268847       0.00329658
Se       2.81065472       3.92089678       8.02552973       0.00190021      -0.00269037      -0.00329590
Se       2.81065452       3.92089646       4.86819770       0.00189760      -0.00268826       0.00329536
Se       4.63354179       1.34294515       8.02553012      -0.00190209       0.00268969      -0.00329539
