9
Lattice="5.340862250940867 8.314069271843307e-08 3.0835480287365113 1.7802874016982462 5.035413201827264 3.083548190973972 -6.636243073707991e-08 1.5177422112044562e-07 6.1670961724161" Properties=species:S:1:pos:R:3:forces:R:3 energy=-54.215702056884766 free_energy=-54.215702056884766 stress="-0.00017572361684869975 3.7133503383302013e-08 1.2584327357956226e-08 3.7133503383302013e-08 -0.0001757317950250581 3.109304458348561e-08 1.2584327357956226e-08 3.109304458348561e-08 -0.0001757475547492504" pbc="T T T"
Zr       1.78028556       1.25885389       3.08355053      -0.00001861       0.00000441       0.00002119
Zr       5.34086317       3.77656151       9.25064448       0.00001144       0.00001141       0.00000083
Os       0.00000029       0.00000031      -0.00000020       0.00000176       0.00000065      -0.00000433
S        1.89695142       1.34134696       6.16709617      -0.00175369      -0.00124466      -0.00000326
S        5.22419907       3.69406526       6.16709702       0.00175595       0.00123405       0.00000297
S        4.39238622       1.34134661       4.72635555       0.00087500      -0.00124204      -0.00151718
S        2.72876217       3.69406729       7.60783546      -0.00087994       0.00124538       0.00150990
S        2.72876256       3.69406568       4.72635515      -0.00087661       0.00123405      -0.00152123
S        4.39238795       1.34134649       7.60783515       0.00088429      -0.00124419       0.00151050
