9
Lattice="4.41940553031428 -7.682622586253443e-09 2.5515449807618658 1.4731351630352107 4.166655504670665 2.5515449920080466 1.5510257092581886e-08 2.4741073440555848e-08 5.103089934659188" Properties=species:S:1:pos:R:3:forces:R:3 energy=-70.7843017578125 free_energy=-70.7843017578125 stress="-4.015883678221144e-05 -2.6785160756048754e-08 -3.891823041612952e-08 -2.6785160756048754e-08 -4.022230859845877e-05 -4.7386766510726375e-08 -3.891823041612952e-08 -4.7386766510726375e-08 -4.021171116619371e-05" pbc="T T T"
Zr       1.47313557       1.04166493       2.55154463       0.00000471       0.00001080      -0.00000395
Zr       4.41940642       3.12499137       7.65463534       0.00000947       0.00000014       0.00000512
Os      -0.00000007      -0.00000014       0.00000010      -0.00000061       0.00000740       0.00000786
O        1.54342459       1.09136642       5.10308981      -0.00041854      -0.00029181       0.00000137
O        4.34911608       3.07528878       5.10308931       0.00041431       0.00028737      -0.00000484
O        3.64769278       1.09136610       3.88819022       0.00020656      -0.00029953      -0.00036478
O        2.24484740       3.07528891       6.31799000      -0.00020917       0.00028786       0.00035727
O        2.24484722       3.07528937       3.88819027      -0.00021042       0.00029248      -0.00035685
O        3.64769295       1.09136636       6.31798996       0.00020243      -0.00029393       0.00035933
