9
Lattice="4.467038751115313 3.159636608719129e-08 2.5790461444726613 1.489012944038565 4.211564776313065 2.5790461493037165 1.383052633979295e-08 1.5696466818690924e-08 5.158092264990157" Properties=species:S:1:pos:R:3:forces:R:3 energy=-63.2707405090332 free_energy=-63.2707405090332 stress="0.0006703843246214092 -2.2252967823988001e-07 -3.8155683057539136e-08 -2.2252967823988001e-07 0.0006698669167235494 -2.3083202904672362e-08 -3.8155683057539136e-08 -2.3083202904672362e-08 0.0006702200626023114" pbc="T T T"
Zr       1.48901125       1.05289264       2.57904625      -0.00002702       0.00002102       0.00000565
Zr       4.46703916       3.15867089       7.73713873       0.00000763      -0.00004539       0.00000537
Pd       0.00000021       0.00000008      -0.00000011       0.00000354       0.00000134      -0.00001659
O        1.54291402       1.09100518       5.15809206      -0.00692843      -0.00489250      -0.00000318
O        4.41313777       3.12055990       5.15809219       0.00692575       0.00489400      -0.00000337
O        3.69558269       1.09100618       3.91524850       0.00347911      -0.00487809      -0.00600335
O        2.26046933       3.12055895       6.40093577      -0.00347725       0.00489794       0.00600979
O        2.26046951       3.12055941       3.91524906      -0.00347263       0.00489351      -0.00599809
O        3.69558303       1.09100604       6.40093575       0.00348867      -0.00489168       0.00600402
