9
Lattice="5.465777999918623 2.361212427419286e-08 3.1556683619207844 1.8219260340464403 5.153184823547679 3.155668341462076 8.06204132952016e-08 3.195052614715242e-08 6.311336584202871" Properties=species:S:1:pos:R:3:forces:R:3 energy=-50.16154479980469 free_energy=-50.16154479980469 stress="-8.762552170082927e-05 3.228804335009272e-09 -3.7779802397608364e-08 3.228804335009272e-09 -8.768711995799094e-05 1.8710794691401134e-08 -3.7779802397608364e-08 1.8710794691401134e-08 -8.763465302763507e-05" pbc="T T T"
Zr       1.82192610       1.28829672       3.15566806      -0.00000056       0.00000675      -0.00000538
Zr       5.46577741       3.86488740       9.46700816      -0.00000561      -0.00001176       0.00003423
Pt       0.00000004       0.00000009      -0.00000005       0.00000089      -0.00000458       0.00000289
S        1.87318284       1.32454060       6.31133649      -0.00280684      -0.00198150       0.00000076
S        5.41452109       3.82864418       6.31133523       0.00280827       0.00198168      -0.00001402
S        4.52918686       1.32454119       4.77789185       0.00140589      -0.00197482      -0.00243640
S        2.75851704       3.82864450       7.84478058      -0.00140965       0.00198251       0.00242805
S        2.75851846       3.82864466       4.77789172      -0.00139323       0.00198466      -0.00243497
S        4.52918653       1.32454018       7.84478105       0.00140041      -0.00198221       0.00242519
