9
Lattice="5.248319211140055 1.0343562765420621e-07 3.0301185039443506 1.7494398431621396 4.948162774018757 3.030118489056627 1.687037724547984e-07 1.0105798100075431e-07 6.060236715685212" Properties=species:S:1:pos:R:3:forces:R:3 energy=-49.421417236328125 free_energy=-49.421417236328125 stress="-0.0003273184411227703 -2.402024179559703e-08 -6.114833439596623e-08 -2.402024179559703e-08 -0.00032727429061196744 -4.293692867918253e-08 -6.114833439596623e-08 -4.293692867918253e-08 -0.00032734996057115495" pbc="T T T"
Zr       1.74943999       1.23704411       3.03012035       0.00000148       0.00002684       0.00001705
Zr       5.24831957       3.71112145       9.09035330       0.00000115      -0.00000584      -0.00001856
P       -0.00000014      -0.00000005       0.00000008       0.00000133       0.00000197       0.00000449
S        1.77115291       1.25239354       6.06023535       0.00680178       0.00480735      -0.00000854
S        5.22660719       3.69576830       6.06023811      -0.00680035      -0.00481594       0.00001024
S        4.36274309       1.25239469       4.56398089      -0.00339985       0.00481004       0.00588691
S        2.63501597       3.69576790       7.55649331       0.00340039      -0.00481975      -0.00588745
S        2.63501515       3.69576817       4.56398119       0.00339311      -0.00481677       0.00589001
S        4.36274318       1.25239395       7.55649237      -0.00339919       0.00481248      -0.00589341
