9
Lattice="4.20952360819657 7.21462441313279e-08 2.4303696545950495 1.4031746574873054 3.968776865379854 2.4303695621006898 8.50807068568525e-08 -5.312083903240131e-08 4.860739161825985" Properties=species:S:1:pos:R:3:forces:R:3 energy=-73.20001220703125 free_energy=-73.20001220703125 stress="3.231215669075027e-05 9.639808240535785e-08 1.2019800976759143e-07 9.639808240535785e-08 3.242156526539475e-05 7.957266490166148e-08 1.2019800976759143e-07 7.957266490166148e-08 3.25766195601318e-05" pbc="T T T"
Zr       1.40317470       0.99219421       2.43036978       0.00000171       0.00000129       0.00000086
Zr       4.20952362       2.97658259       7.29110876      -0.00000150       0.00000008      -0.00000094
P        0.00000003       0.00000002       0.00000029      -0.00000537      -0.00000075      -0.00002206
O        1.37019427       0.96887377       4.86073910       0.00811332       0.00573561       0.00000068
O        4.24250420       2.99990301       4.86073898      -0.00811073      -0.00573152       0.00000531
O        3.52442682       0.96887378       3.61699275      -0.00406078       0.00573468       0.00702599
O        2.08827168       2.99990343       6.10448563       0.00406031      -0.00573578      -0.00702003
O        2.08827165       2.99990315       3.61699272       0.00405726      -0.00573811       0.00702551
O        3.52442655       0.96887357       6.10448547      -0.00405395       0.00573453      -0.00701535
