9
Lattice="5.7277054840571076 -4.9164778103086225e-08 3.3068923134742567 1.9092351277510795 5.4001322174159 3.306892291387587 -9.678327716569964e-08 -9.54865967091621e-08 6.613784794582077" Properties=species:S:1:pos:R:3:forces:R:3 energy=-44.05105972290039 free_energy=-44.05105972290039 stress="-0.0001869106199592352 -8.571940490753605e-09 -1.1651317244343318e-08 -8.571940490753605e-09 -0.000186893594218418 1.5607914960469316e-08 -1.1651317244343318e-08 1.5607914960469316e-08 -0.0001868774852482602" pbc="T T T"
Zr       1.90923428       1.35003179       3.30689283      -0.00000886      -0.00001339       0.00000989
Zr       5.72770632       4.05010024       9.92067187       0.00001033       0.00001444      -0.00005748
Pd      -0.00000013       0.00000004      -0.00000006       0.00000352       0.00000112       0.00000291
Se       1.98970143       1.40693063       6.61378437      -0.00061280      -0.00043830      -0.00000429
Se       5.64723914       3.99320156       6.61378690       0.00060970       0.00043643       0.00002515
Se       4.73285495       1.40692992       5.03002498       0.00030500      -0.00044763      -0.00051945
Se       2.90408614       3.99320122       8.19754584      -0.00029847       0.00043663       0.00053263
Se       2.90408470       3.99320154       5.03002518      -0.00031918       0.00043720      -0.00052023
Se       4.73285525       1.40693136       8.19754560       0.00031090      -0.00042683       0.00053102
