9
Lattice="4.44081416704582 9.959792286514607e-08 2.563905321553094 1.4802714558403405 4.186839980775942 2.5639053684514193 2.4719299809055243e-08 7.491766750209858e-08 5.1278106002911095" Properties=species:S:1:pos:R:3:forces:R:3 energy=-64.19480895996094 free_energy=-64.19480895996094 stress="0.00011854332842631266 -4.720390833767851e-08 -1.0280435702725299e-07 -4.720390833767851e-08 0.00011805589019786566 7.519599876104621e-08 -1.0280435702725299e-07 7.519599876104621e-08 0.00011822728265542537" pbc="T T T"
Zr       1.48027070       1.04671099       2.56390384      -0.00000905       0.00001398      -0.00002087
Zr       4.44081479       3.14012948       7.69171543       0.00001029      -0.00001014      -0.00000724
Pt       0.00000033      -0.00000055       0.00000040      -0.00000858       0.00004829      -0.00002764
O        1.55729326       1.10117296       5.12781099      -0.00215414      -0.00152121       0.00000800
O        4.36379267       3.08566742       5.12781068       0.00213741       0.00150674       0.00000211
O        3.66216829       1.10117259       3.91256147       0.00108534      -0.00152676      -0.00185416
O        2.25891745       3.08566715       6.34306076      -0.00107811       0.00151005       0.00185566
O        2.25891776       3.08566740       3.91256067      -0.00106584       0.00150021      -0.00183608
O        3.66216750       1.10117338       6.34306084       0.00108241      -0.00152169       0.00188089
