9
Lattice="5.7302820567177015 -4.916822347276066e-08 3.3083797085587023 1.9100939871264389 5.4025615711550445 3.3083796833109913 3.85850988755694e-08 -3.6382186005466777e-09 6.6167593502860385" Properties=species:S:1:pos:R:3:forces:R:3 energy=-45.99772644042969 free_energy=-45.99772644042969 stress="-0.00035743514308705926 2.380776464860901e-08 1.0495710967006744e-09 2.380776464860901e-08 -0.00035745339118875563 -3.6054739638302635e-08 1.0495710967006744e-09 -3.6054739638302635e-08 -0.00035742096952162683" pbc="T T T"
Zr       1.91009652       1.35064060       3.30837814       0.00002259       0.00000395      -0.00001442
Zr       5.73028081       4.05192152       9.92513811      -0.00001412       0.00000076      -0.00000642
Pt       0.00000000      -0.00000001      -0.00000015       0.00000027      -0.00000109       0.00000928
Se       1.95598255       1.38308809       6.61675960      -0.00664616      -0.00470269       0.00000434
Se       5.68439356       4.01947332       6.61676021       0.00664526       0.00470334       0.00000421
Se       4.75229025       1.38308805       5.00231006       0.00331908      -0.00470105      -0.00575817
Se       2.88808521       4.01947239       8.23120930      -0.00331959       0.00469139       0.00575840
Se       2.88808570       4.01947354       5.00231029      -0.00332028       0.00470090      -0.00575656
Se       4.75228977       1.38308853       8.23120941       0.00331292      -0.00469550       0.00576001
