9
Lattice="5.5717464444823825 -2.4851500291916878e-08 3.2168493024876983 1.8572487750248081 5.253092845171634 3.2168493308455566 -2.4132711195780956e-09 3.3024725208167844e-08 6.433698609155281" Properties=species:S:1:pos:R:3:forces:R:3 energy=-44.36407470703125 free_energy=-44.36407470703125 stress="-1.4221376659406815e-05 -2.0414519852351987e-08 -2.8655199102445295e-08 -2.0414519852351987e-08 -1.4246985301724635e-05 -9.950322510388077e-11 -2.8655199102445295e-08 -9.950322510388077e-11 -1.423079811502248e-05" pbc="T T T"
Zr       1.85724919       1.31327292       3.21684983       0.00000243      -0.00000315       0.00000393
Zr       5.57174645       3.93981994       9.65054767      -0.00000029       0.00000569      -0.00000002
Pb      -0.00000011       0.00000008       0.00000018       0.00000073       0.00000240      -0.00000095
S        2.01695556       1.42620273       6.43369847      -0.00155827      -0.00110328      -0.00000027
S        5.41203969       3.82689009       6.43369873       0.00155565       0.00110184      -0.00000084
S        4.56326822       1.42620290       4.96358377       0.00077641      -0.00110242      -0.00135309
S        2.86572659       3.82688997       7.90381339      -0.00077738       0.00110300       0.00134942
S        2.86572636       3.82689020       4.96358398      -0.00077869       0.00110194      -0.00134689
S        4.56326886       1.42620263       7.90381300       0.00077985      -0.00110613       0.00134856
