9
Lattice="4.6805893227618345 5.8098195978909574e-09 2.702339409872031 1.5601964221342162 4.412902074141364 2.702339451898406 -1.358305808897623e-07 -4.457511898492689e-08 5.404679055009516" Properties=species:S:1:pos:R:3:forces:R:3 energy=-59.48714828491211 free_energy=-59.48714828491211 stress="0.0007192065822891891 1.4878581566790672e-07 -1.226758072903067e-08 1.4878581566790672e-07 0.0007193881319835782 2.4360662820299694e-08 -1.226758072903067e-08 2.4360662820299694e-08 0.000719450123142451" pbc="T T T"
Zr       1.56019774       1.10322655       2.70233993       0.00001927       0.00001350       0.00000730
Zr       4.68058889       3.30967770       8.10701885      -0.00000425       0.00001923       0.00000415
Pb      -0.00000001      -0.00000001       0.00000012       0.00000044       0.00000997      -0.00000483
O        1.64888803       1.16593979       5.40467845      -0.00146527      -0.00104219      -0.00000685
O        4.59189783       3.24696165       5.40467899       0.00146388       0.00102684       0.00000166
O        3.85614483       1.16593882       4.13031882       0.00072351      -0.00104565      -0.00126263
O        2.38463982       3.24696220       6.67903887      -0.00073496       0.00103674       0.00126085
O        2.38464125       3.24696158       4.13031745      -0.00072136       0.00102177      -0.00127830
O        3.85614401       1.16593988       6.67904004       0.00071902      -0.00104035       0.00127877
