9
Lattice="5.615892766378675 2.4901403933749946e-08 3.2423372083977733 1.871964247251363 5.294714548412441 3.2423372632785825 -4.5596125059616975e-08 3.49736602361583e-08 6.484674495770328" Properties=species:S:1:pos:R:3:forces:R:3 energy=-44.21391677856445 free_energy=-44.21391677856445 stress="-0.00010331533121643588 -3.13980663690927e-08 1.3529655618071956e-08 -3.13980663690927e-08 -0.00010332768579246476 -7.768296561572186e-10 1.3529655618071956e-08 -7.768296561572186e-10 -0.00010330724762752652" pbc="T T T"
Zr       1.87196590       1.32367935       3.24233575       0.00001464       0.00000587      -0.00001327
Zr       5.61589221       3.97103532       9.72701345      -0.00000096      -0.00000586       0.00001564
P       -0.00000012      -0.00000003       0.00000011      -0.00000029       0.00000119       0.00000197
Se       1.88601787       1.33361639       6.48467448       0.00127763       0.00090477       0.00000124
Se       5.60183918       3.96109836       6.48467375      -0.00128263      -0.00090569      -0.00000347
Se       4.67288375       1.33361657       4.87567646      -0.00064054       0.00090608       0.00110471
Se       2.81497299       3.96109776       8.09367236       0.00063717      -0.00090832      -0.00110728
Se       2.81497343       3.96109850       4.87567693       0.00064138      -0.00090072       0.00110590
Se       4.67288269       1.33361619       8.09367254      -0.00064644       0.00090185      -0.00110543
