9
Lattice="5.835430089882862 2.509137018900876e-08 3.3690869791401825 1.9451433734140529 5.501696138113894 3.369087002586294 6.860487703352915e-08 7.72264581532832e-08 6.738173839453244" Properties=species:S:1:pos:R:3:forces:R:3 energy=-39.59267044067383 free_energy=-39.59267044067383 stress="-0.00016145750123541802 6.044662370641163e-08 -4.033965694816288e-08 6.044662370641163e-08 -0.00016143906395882368 -4.992026703121155e-08 -4.033965694816288e-08 -4.992026703121155e-08 -0.0001613801869098097" pbc="T T T"
Zr       1.94514541       1.37542476       3.36908584       0.00002102       0.00000781      -0.00001446
Zr       5.83542849       4.12627065      10.10726234      -0.00001837      -0.00001433       0.00001895
Pb       0.00000008      -0.00000022      -0.00000017      -0.00000231       0.00000407       0.00000408
Se       2.14062656       1.51365197       6.73817414      -0.00621317      -0.00438715       0.00000428
Se       5.63994701       3.98804461       6.73817305       0.00620231       0.00438888      -0.00000753
Se       4.76511659       1.51365192       5.22292364       0.00310560      -0.00438526      -0.00538470
Se       3.01545663       3.98804472       8.25342419      -0.00309885       0.00438111       0.00537291
Se       3.01545758       3.98804441       5.22292326      -0.00309150       0.00438906      -0.00538011
Se       4.76511585       1.51365222       8.25342501       0.00309552      -0.00438473       0.00538655
