9
Lattice="4.414080189981656 5.985746877354022e-08 2.548470393164714 1.471360082527206 4.161634871389141 2.54847045765621 2.0904331062533573e-08 9.37672039586555e-08 5.096940750122057" Properties=species:S:1:pos:R:3:forces:R:3 energy=-73.66075897216797 free_energy=-73.66075897216797 stress="-2.744214543781709e-05 -5.360289634381843e-08 -8.20904144660517e-09 -5.360289634381843e-08 -2.7543488613446243e-05 -1.4731151054547809e-07 -8.20904144660517e-09 -1.4731151054547809e-07 -2.7643256544251926e-05" pbc="T T T"
Zr       1.47136112       1.04040967       2.54847097       0.00001646       0.00001288       0.00000955
Zr       4.41408252       3.12122687       7.64541366       0.00002741       0.00000228       0.00003027
Re       0.00000023      -0.00000018       0.00000001       0.00000259       0.00000639       0.00000591
O        1.54368499       1.09155126       5.09694025      -0.00020805      -0.00014226      -0.00000835
O        4.34175481       3.07008402       5.09694007       0.00019142       0.00013664      -0.00000866
O        3.64223730       1.09155080       3.88534079       0.00009331      -0.00014061      -0.00017798
O        2.24320143       3.07008409       6.30853975      -0.00010709       0.00013421       0.00016031
O        2.24320227       3.07008375       3.88534108      -0.00010598       0.00014152      -0.00017986
O        3.64223639       1.09154976       6.30853987       0.00008991      -0.00015150       0.00016937
