9
Lattice="5.744356970541197 6.594688517932828e-08 3.3165060128909727 1.9147856602197775 5.415831780122516 3.316506114740051 -1.0844992652433409e-07 4.805345447006263e-08 6.633012213622699" Properties=species:S:1:pos:R:3:forces:R:3 energy=-46.9179801940918 free_energy=-46.9179801940918 stress="-0.00028810204821638763 -9.256895694420564e-09 3.4744726207236454e-08 -9.256895694420564e-09 -0.0002880659303627908 1.566728791146943e-08 3.4744726207236454e-08 1.566728791146943e-08 -0.00028813458629883826" pbc="T T T"
Zr       1.91478371       1.35395730       3.31650718      -0.00002108      -0.00000947       0.00001388
Zr       5.74435776       4.06187522       9.94951562       0.00000762       0.00001420      -0.00003010
Rh      -0.00000016       0.00000018      -0.00000027       0.00000272       0.00000303       0.00000432
Se       1.96268816       1.38782986       6.63301178      -0.00680524      -0.00481728      -0.00000284
Se       5.69645482       4.02800150       6.63301343       0.00680727       0.00481069       0.00001254
Se       4.76301316       1.38782915       5.01624453       0.00340620      -0.00482592      -0.00588775
Se       2.89612974       4.02800251       8.24978065      -0.00339636       0.00481805       0.00589108
Se       2.89612921       4.02800199       5.01624402      -0.00340956       0.00481638      -0.00589114
Se       4.76301366       1.38782989       8.24978043       0.00340831      -0.00480968       0.00589013
