9
Lattice="5.7607994310674675 -2.154320643501368e-08 3.325999085575114 1.920266499157532 5.4313336968671555 3.3259990120561707 6.404910287283638e-08 -4.4752382510936136e-08 6.651998060213944" Properties=species:S:1:pos:R:3:forces:R:3 energy=-52.022369384765625 free_energy=-52.022369384765625 stress="-5.86958194617182e-05 -3.240485657585168e-09 1.504983693223494e-08 -3.240485657585168e-09 -5.865170533070341e-05 -3.8155214099333534e-08 1.504983693223494e-08 -3.8155214099333534e-08 -5.8704445109469816e-05" pbc="T T T"
Zr       1.92026632       1.35783295       3.32599830      -0.00000308      -0.00000580      -0.00000564
Zr       5.76079895       4.07350102       9.97799869      -0.00000419       0.00001058       0.00001568
Re      -0.00000004       0.00000005       0.00000014       0.00000172      -0.00000155      -0.00000089
Se       1.98156140       1.40117489       6.65199815      -0.00003827      -0.00003067       0.00000147
Se       5.69950488       4.03015836       6.65199752       0.00003976       0.00002772      -0.00000672
Se       4.77001919       1.40117514       5.04208135       0.00002122      -0.00002584      -0.00003272
Se       2.91104712       4.03015842       8.26191459      -0.00002205       0.00002971       0.00003374
Se       2.91104741       4.03015866       5.04208137      -0.00001487       0.00003034      -0.00003803
Se       4.77001878       1.40117506       8.26191448       0.00001937      -0.00003454       0.00003320
