9
Lattice="4.419340907108873 -2.5657482461431343e-08 2.5515076457045485 1.473113615867636 4.166594642178254 2.551507638161866 -3.541699775976145e-08 -3.428148179510839e-08 5.103015352753153" Properties=species:S:1:pos:R:3:forces:R:3 energy=-66.41593933105469 free_energy=-66.41593933105469 stress="-4.334606728662038e-06 2.6963970611859622e-08 1.1375616537634414e-07 2.6963970611859622e-08 -4.452730991033604e-06 1.5936817021611205e-07 1.1375616537634414e-07 1.5936817021611205e-07 -4.4878370317746885e-06" pbc="T T T"
Zr       1.47311281       1.04164921       2.55150791      -0.00000939       0.00000576       0.00000135
Zr       4.41934047       3.12494513       7.65452167      -0.00000287      -0.00000941      -0.00002158
Rh       0.00000006       0.00000004      -0.00000006      -0.00000648       0.00000351      -0.00000179
O        1.54248596       1.09070280       5.10301528      -0.00440323      -0.00310405      -0.00000022
O        4.34996878       3.07589165       5.10301579       0.00440441       0.00310410       0.00001065
O        3.64809804       1.09070232       3.88734020       0.00220401      -0.00311542      -0.00380768
O        2.24435704       3.07589242       6.31869093      -0.00219241       0.00311255       0.00381310
O        2.24435673       3.07589218       3.88733960      -0.00219669       0.00310494      -0.00380566
O        3.64809806       1.09070257       6.31869122       0.00220163      -0.00310260       0.00381200
