9
Lattice="5.722138266033224 3.234198794117256e-08 3.3036781249878477 1.9073794688682044 5.394883833247282 3.303678096643175 5.7552657279736415e-08 5.9808737285924435e-09 6.607356150291591" Properties=species:S:1:pos:R:3:forces:R:3 energy=-48.81938934326172 free_energy=-48.81938934326172 stress="-0.0003343663120176643 3.322046637777021e-08 2.989520808682755e-08 3.322046637777021e-08 -0.0003343902644701302 -2.0939040723533253e-08 2.989520808682755e-08 -2.0939040723533253e-08 -0.00033438290120102465" pbc="T T T"
Zr       1.90737912       1.34872070       3.30367814      -0.00000250      -0.00000375      -0.00000065
Zr       5.72213764       4.04616269       9.91103385      -0.00000918      -0.00000300      -0.00000422
Ru       0.00000006      -0.00000013       0.00000016      -0.00000207       0.00000267       0.00000320
Se       1.95581338       1.38296890       6.60735610      -0.00549030      -0.00388026       0.00000034
Se       5.67370462       4.01191500       6.60735617       0.00548822       0.00388187      -0.00000192
Se       4.74423181       1.38296882       4.99746211       0.00274637      -0.00387999      -0.00475621
Se       2.88528682       4.01191521       8.21725043      -0.00273651       0.00387937       0.00475246
Se       2.88528601       4.01191511       4.99746213      -0.00274190       0.00388348      -0.00475055
Se       4.74423169       1.38296921       8.21725034       0.00274733      -0.00388017       0.00475752
