9
Lattice="4.392564789204903 -6.786746576303063e-10 2.5360484874102878 1.4641882288074757 4.1413498636501656 2.536048545643505 -3.390284225907718e-08 4.734790321301862e-08 5.072097033542021" Properties=species:S:1:pos:R:3:forces:R:3 energy=-68.86234283447266 free_energy=-68.86234283447266 stress="-0.0002710864646360278 -1.0489799961987956e-07 3.9051435862802464e-08 -1.0489799961987956e-07 -0.00027094947290606797 -1.7231595705879954e-08 3.9051435862802464e-08 -1.7231595705879954e-08 -0.0002710142289288342" pbc="T T T"
Zr       1.46418799       1.03533751       2.53604809      -0.00000627       0.00000078      -0.00000856
Zr       4.39256408       3.10601304       7.60814466      -0.00000501       0.00000941      -0.00000963
Ru       0.00000022      -0.00000010       0.00000008      -0.00000126       0.00000237      -0.00000278
O        1.53350872       1.08435375       5.07209719      -0.00781795      -0.00553703       0.00000137
O        4.32324450       3.05699565       5.07209766       0.00782433       0.00553368       0.00000759
O        3.62581106       1.08435395       3.86410652       0.00391990      -0.00554082      -0.00677328
O        2.23094227       3.05699570       6.28008792      -0.00391750       0.00553645       0.00677846
O        2.23094264       3.05699548       3.86410568      -0.00390917       0.00552903      -0.00677979
O        3.62581041       1.08435469       6.28008855       0.00391366      -0.00553432       0.00678617
