9
Lattice="5.416374927687706 2.9616748772077578e-08 3.127145636556161 1.8054582898033515 5.106607436490863 3.1271457185667626 1.2278338869183381e-08 1.0912411720884915e-07 6.2542912518456255" Properties=species:S:1:pos:R:3:forces:R:3 energy=-56.809749603271484 free_energy=-56.809749603271484 stress="-7.070906576700509e-05 2.6723986579213488e-08 -3.4816661553804806e-08 2.6723986579213488e-08 -7.070446008583531e-05 8.14532654658251e-08 -3.4816661553804806e-08 8.14532654658251e-08 -7.074911263771355e-05" pbc="T T T"
Zr       1.80545900       1.27665168       3.12714606       0.00000673      -0.00000321       0.00000384
Zr       5.41637579       3.82995753       9.38143826       0.00000551       0.00001859       0.00001150
Re       0.00000028       0.00000000      -0.00000015       0.00000090       0.00000117       0.00000589
S        1.90573904       1.34756067       6.25429114      -0.00058997      -0.00042057       0.00000130
S        5.31609448       3.75904685       6.25429041       0.00058842       0.00041860      -0.00000618
S        4.46350450       1.34756057       4.77756388       0.00029320      -0.00042766      -0.00051773
S        2.75832745       3.75904689       7.73101859      -0.00029790       0.00041837       0.00050950
S        2.75832724       3.75904658       4.77756381      -0.00029528       0.00041616      -0.00051045
S        4.46350522       1.34755941       7.73101831       0.00028777      -0.00042152       0.00050229
