9
Lattice="6.1399371366146465 -1.0199723909312937e-08 3.5448943519181557 2.0466456717338737 5.788788249534815 3.5448944053599494 -1.0117650916020116e-08 5.829827950710804e-08 7.089788721360561" Properties=species:S:1:pos:R:3:forces:R:3 energy=-47.741241455078125 free_energy=-47.741241455078125 stress="-0.00026888438151217997 -7.59037999120693e-10 -1.2163494211847592e-08 -7.59037999120693e-10 -0.00026889139553532004 9.96448790147042e-09 -1.2163494211847592e-08 9.96448790147042e-09 -0.0002688939857762307" pbc="T T T"
Zr       2.04664559       1.44719716       3.54489451      -0.00000129       0.00000045       0.00000131
Zr       6.13993728       4.34159127      10.63468288       0.00000254      -0.00000008      -0.00000433
Re       0.00000019      -0.00000012       0.00000006      -0.00000054       0.00000066      -0.00000288
Te       2.12266124       1.50094828       7.08978866      -0.00672162      -0.00475225      -0.00000060
Te       6.06392161       4.28784000       7.08978881       0.00672194       0.00475302       0.00000042
Te       5.07860640       1.50094802       5.38317312       0.00335946      -0.00475222      -0.00581990
Te       3.10797632       4.28784014       8.79640456      -0.00336030       0.00475262       0.00582184
Te       3.10797601       4.28784018       5.38317289      -0.00335965       0.00475045      -0.00581753
Te       5.07860651       1.50094824       8.79640446       0.00335940      -0.00475253       0.00582175
