9
Lattice="5.462836904916799 -2.8415653117792243e-08 3.15397054596257 1.8209456349675823 5.150412096736941 3.1539704995680955 1.0009630954291152e-07 1.3957400460222655e-08 6.307940918553216" Properties=species:S:1:pos:R:3:forces:R:3 energy=-51.00732421875 free_energy=-51.00732421875 stress="-7.353206456173211e-05 -2.80683245534874e-08 3.849234708752647e-09 -2.80683245534874e-08 -7.347802602453157e-05 -1.9696956954362577e-08 3.849234708752647e-09 -1.9696956954362577e-08 -7.347002974711359e-05" pbc="T T T"
Zr       1.82094561       1.28760293       3.15397059      -0.00000194      -0.00000108      -0.00000065
Zr       5.46283854       3.86280907       9.46191317       0.00001706       0.00000134       0.00001875
Rh       0.00000016      -0.00000007       0.00000043       0.00000177      -0.00000024      -0.00000064
S        1.88622544       1.33376360       6.30794046      -0.00327265      -0.00230491      -0.00000248
S        5.39755712       3.81664879       6.30793975       0.00326836       0.00230658      -0.00001196
S        4.51972370       1.33376263       4.78749031       0.00163400      -0.00231308      -0.00282812
S        2.76405784       3.81664916       7.82839123      -0.00164306       0.00231498       0.00282454
S        2.76405883       3.81664896       4.78749031      -0.00163537       0.00231326      -0.00283080
S        4.51972332       1.33376318       7.82839165       0.00163186      -0.00231707       0.00283170
