9
Lattice="5.856081367339506 -4.86263851338631e-08 3.3810100437512784 1.9520270310208316 5.521166371240384 3.381010122698623 -5.409658574226274e-08 5.8438304651733045e-08 6.762020181200586" Properties=species:S:1:pos:R:3:forces:R:3 energy=-41.731422424316406 free_energy=-41.731422424316406 stress="-3.355645094416104e-05 1.9396461325982273e-08 -6.233768168328879e-09 1.9396461325982273e-08 -3.349905455252156e-05 3.056435105008859e-08 -6.233768168328879e-09 3.056435105008859e-08 -3.3419710234738886e-05" pbc="T T T"
Zr       1.95202844       1.38029152       3.38100979       0.00001787      -0.00000415      -0.00000182
Zr       5.85607917       4.14087499      10.14302980      -0.00002243       0.00000075      -0.00000294
Sn       0.00000013       0.00000008      -0.00000042      -0.00000102      -0.00000252       0.00000899
Se       2.07919314       1.47021088       6.76201983      -0.00410056      -0.00290714      -0.00000023
Se       5.72891541       4.05095528       6.76202008       0.00410493       0.00290622      -0.00000005
Se       4.81648459       1.47021141       5.18164419       0.00205313      -0.00290692      -0.00356022
Se       2.99162421       4.05095497       8.34239712      -0.00204643       0.00290155       0.00356212
Se       2.99162390       4.05095487       5.18164378      -0.00205047       0.00290772      -0.00356463
Se       4.81648433       1.47021151       8.34239727       0.00204466      -0.00289582       0.00355896
