9
Lattice="4.531451512880795 -4.7851113992610914e-08 2.61623470050903 1.5104837627200265 4.272293433283019 2.616234752111076 -5.469259652305362e-08 2.4525800573996476e-08 5.232469495748409" Properties=species:S:1:pos:R:3:forces:R:3 energy=-64.20500183105469 free_energy=-64.20500183105469 stress="0.0004844253999181092 8.799629824807198e-08 -2.1334262356731415e-08 8.799629824807198e-08 0.0004848286334890872 -1.1482394590700551e-08 -2.1334262356731415e-08 -1.1482394590700551e-08 0.00048508960753679276" pbc="T T T"
Zr       1.51048421       1.06807304       2.61623490       0.00000235      -0.00000618       0.00000567
Zr       4.53144937       3.20421987       7.84870460      -0.00002577      -0.00000165       0.00000734
Sn      -0.00000008      -0.00000001       0.00000000      -0.00000445       0.00000008      -0.00000349
O        1.59468934       1.12761567       5.23246930      -0.00571737      -0.00403911      -0.00000258
O        4.44724605       3.14467774       5.23246925       0.00572330       0.00404245      -0.00000249
O        3.73410676       1.12761582       3.99727624       0.00285906      -0.00404119      -0.00495830
O        2.30782936       3.14467801       6.46766283      -0.00284776       0.00404564       0.00495422
O        2.30782929       3.14467792       3.99727618      -0.00284870       0.00404599      -0.00495884
O        3.73410647       1.12761556       6.46766254       0.00285968      -0.00404638       0.00495800
