9
Lattice="4.425896402284965 -6.402360863415591e-08 2.555292467492616 1.4752987103329285 4.1727752659666075 2.555292519569656 -8.06513009434511e-08 6.7520050723765225e-09 5.110585074677387" Properties=species:S:1:pos:R:3:forces:R:3 energy=-62.3173713684082 free_energy=-62.3173713684082 stress="0.00013722780568059534 1.0695520558101634e-07 7.364035781165512e-08 1.0695520558101634e-07 0.00013744222815148532 4.167014466815999e-08 7.364035781165512e-08 4.167014466815999e-08 0.00013735621178057045" pbc="T T T"
Zr       1.47529920       1.04319348       2.55529268      -0.00000097       0.00000033       0.00000049
Zr       4.42589613       3.12958158       7.66587757       0.00000251      -0.00000078      -0.00000063
Se      -0.00000017      -0.00000000      -0.00000008       0.00000294       0.00000014       0.00000065
O        1.47073553       1.03996703       5.11058512      -0.00060654      -0.00043336      -0.00000032
O        4.43045924       3.13280824       5.11058503       0.00060543       0.00043267       0.00000128
O        3.69052860       1.03996745       3.82898650       0.00030228      -0.00042713      -0.00052521
O        2.21066648       3.13280806       6.39218320      -0.00030321       0.00042820       0.00052628
O        2.21066626       3.13280792       3.82898713      -0.00030375       0.00042659      -0.00052261
O        3.69052858       1.03996711       6.39218311       0.00030090      -0.00042677       0.00052050
