9
Lattice="5.393892264240876 -4.421061355273617e-08 3.114165251544505 1.7979640609339873 5.085410396069634 3.1141652263676853 2.867588007557845e-08 -1.0558292038096754e-08 6.228330453420907" Properties=species:S:1:pos:R:3:forces:R:3 energy=-50.31439208984375 free_energy=-50.31439208984375 stress="-9.420317655894905e-05 -9.488660523970793e-09 9.953632584824845e-09 -9.488660523970793e-09 -9.420047717867419e-05 -4.629030936342815e-09 9.953632584824845e-09 -4.629030936342815e-09 -9.42316692089662e-05" pbc="T T T"
Zr       1.79796449       1.27135306       3.11416487       0.00000521       0.00000452      -0.00000136
Zr       5.39389147       3.81405636       9.34249435      -0.00000888      -0.00001632      -0.00001706
Si       0.00000000      -0.00000005       0.00000019      -0.00000173      -0.00000091      -0.00000464
S        1.79592182       1.26990886       6.22833036      -0.00046152      -0.00032240      -0.00000231
S        5.39593430       3.81550192       6.22833101       0.00046080       0.00033057       0.00000737
S        4.49593155       1.26990894       4.66947936       0.00023204      -0.00032246      -0.00039935
S        2.69592567       3.81550114       7.78718224      -0.00022629       0.00032318       0.00040758
S        2.69592489       3.81550162       4.66947954      -0.00023201       0.00032371      -0.00039792
S        4.49593120       1.26990959       7.78718191       0.00023198      -0.00032032       0.00040692
