9
Lattice="4.222731848134758 -7.082431565471307e-08 2.4379953487968566 1.4075772158042752 3.9812298544692033 2.4379953490280917 -3.691041514228074e-08 -2.5816399534025225e-08 4.87599076152444" Properties=species:S:1:pos:R:3:forces:R:3 energy=-74.52278900146484 free_energy=-74.52278900146484 stress="-0.00012898104614578187 -4.66238496699134e-08 5.459527585571777e-08 -4.66238496699134e-08 -0.00012909932411275804 4.537699638262893e-08 5.459527585571777e-08 4.537699638262893e-08 -0.0001289574574911967" pbc="T T T"
Zr       1.40757646       0.99530803       2.43799492      -0.00000363       0.00000350      -0.00000360
Zr       4.22273169       2.98592233       7.31398650      -0.00000228      -0.00000025       0.00000122
Si       0.00000001      -0.00000013      -0.00000013      -0.00000302       0.00000813       0.00000303
O        1.40508520       0.99354528       4.87599030      -0.00254369      -0.00179857      -0.00000488
O        4.22522422       2.98768432       4.87599129       0.00254595       0.00179631       0.00000568
O        3.52018986       0.99354539       3.65483517       0.00127828      -0.00180614      -0.00220442
O        2.11011950       2.98768439       6.09714666      -0.00127614       0.00179815       0.00220078
O        2.11012032       2.98768440       3.65483457      -0.00126660       0.00180012      -0.00220442
O        3.52018881       0.99354505       6.09714680       0.00127095      -0.00180066       0.00220722
