9
Lattice="5.647764192770041 3.43606573623662e-08 3.2607381344148765 1.882588042167619 5.3247631804949265 3.2607382287849815 -2.9778692725964446e-08 9.452257629748356e-08 6.521476320407967" Properties=species:S:1:pos:R:3:forces:R:3 energy=-45.241607666015625 free_energy=-45.241607666015625 stress="-4.3293883322803595e-07 3.3488054551611413e-09 2.020579259465194e-09 3.3488054551611413e-09 -4.1909547121576907e-07 9.03041819100281e-09 2.020579259465194e-09 9.03041819100281e-09 -4.535190214483009e-07" pbc="T T T"
Zr       1.88258850       1.33118985       3.26073764       0.00000286      -0.00000618      -0.00000682
Zr       5.64776492       3.99357253       9.78221541       0.00000460       0.00000007       0.00000689
Si      -0.00000009       0.00000000       0.00000017      -0.00000161      -0.00000042       0.00000254
Se       1.89690292       1.34131358       6.52147620       0.00001693       0.00001666      -0.00000015
Se       5.63344875       3.98345030       6.52147556      -0.00001901      -0.00000811      -0.00000299
Se       4.69931245       1.34131313       4.90350471      -0.00000825       0.00001100       0.00001644
Se       2.83103942       3.98344991       8.13944793       0.00000764      -0.00001441      -0.00001724
Se       2.83103981       3.98345066       4.90350493       0.00000855      -0.00000970       0.00001658
Se       4.69931211       1.34131328       8.13944818      -0.00001176       0.00001094      -0.00001535
