9
Lattice="5.273270704565116 2.1747556634669643e-07 3.044523316050332 1.7577570145995884 4.971686595367396 3.044523475329773 -3.361449783841833e-07 -4.261375692537908e-08 6.089047214320733" Properties=species:S:1:pos:R:3:forces:R:3 energy=-44.26381301879883 free_energy=-44.26381301879883 stress="3.485495108179748e-05 9.792518085305346e-07 4.234590846863284e-07 9.792518085305346e-07 3.676593769341707e-05 3.664338521502941e-07 4.234590846863284e-07 3.664338521502941e-07 3.7119851185707375e-05" pbc="T T T"
Zr       1.75777444       1.24291477       3.04452389       0.00014485      -0.00005805       0.00002378
Zr       5.27325211       3.72876894       9.13355835      -0.00015140       0.00003728      -0.00009096
Se      -0.00000114      -0.00000229      -0.00000268       0.00000952       0.00002465       0.00003053
S        1.92486588       1.36107557       6.08904509      -0.00756419      -0.00539148      -0.00000452
S        5.10616509       3.61061050       6.08905090       0.00755763       0.00538307       0.00001758
S        4.31083390       1.36107949       4.71149960       0.00375789      -0.00535774      -0.00656146
S        2.72019124       3.61060789       7.46659881      -0.00375521       0.00535339       0.00657201
S        2.72018945       3.61060685       4.71149989      -0.00376409       0.00534284      -0.00656420
S        4.31083853       1.36108538       7.46660283       0.00376511      -0.00533366       0.00657737
