9
Lattice="4.28428645559437 1.6488605137329233e-08 2.4735339788407282 1.4280955036236895 4.039264043578637 2.4735339738524873 -7.607043624530267e-09 -1.1488325426424183e-08 4.947067970857214" Properties=species:S:1:pos:R:3:forces:R:3 energy=-65.6134262084961 free_energy=-65.6134262084961 stress="0.0005788493435829878 -3.0173193721338976e-08 -2.2833695823010203e-08 -3.0173193721338976e-08 0.0005788654088973999 -3.156902961265473e-09 -2.2833695823010203e-08 -3.156902961265473e-09 0.000578710634727031" pbc="T T T"
Zr       1.42809543       1.00981598       2.47353400       0.00000027      -0.00000140      -0.00000035
Zr       4.28428659       3.02944807       7.42060205      -0.00000002       0.00000051      -0.00000009
S        0.00000000       0.00000022      -0.00000007       0.00000069      -0.00000236      -0.00000111
O        1.38523941       0.97951220       4.94706793       0.00000603       0.00000452       0.00000151
O        4.32714270       3.05975181       4.94706788      -0.00001097      -0.00000443      -0.00000019
O        3.59166667       0.97951225       3.67318641      -0.00000225       0.00000425       0.00000748
O        2.12071507       3.05975176       6.22094963       0.00000417      -0.00000320      -0.00000872
O        2.12071517       3.05975177       3.67318635       0.00000525      -0.00000221       0.00000863
O        3.59166676       0.97951219       6.22094957      -0.00000314       0.00000423      -0.00000691
