9
Lattice="5.565762641245827 -4.990208323849128e-08 3.2133944446119833 1.8552541681451526 5.247451252639057 3.2133944421097427 -5.7600383803721776e-08 -4.379423894980231e-08 6.426788988990752" Properties=species:S:1:pos:R:3:forces:R:3 energy=-46.374755859375 free_energy=-46.374755859375 stress="7.945152174215764e-05 -6.520670670084883e-09 8.735142387195083e-09 -6.520670670084883e-09 7.956651825224981e-05 2.314278074733167e-10 8.735142387195083e-09 2.314278074733167e-10 7.950757571961731e-05" pbc="T T T"
Zr       1.85525442       1.31186211       3.21339483       0.00000175      -0.00000680       0.00000447
Zr       5.56576185       3.93558912       9.64018262      -0.00000764       0.00000895      -0.00001068
Sn      -0.00000026       0.00000010      -0.00000020       0.00000776      -0.00000252       0.00000254
S        1.96513567       1.38956014       6.42678910      -0.00295758      -0.00209865       0.00000278
S        5.45588141       3.85789077       6.42678926       0.00295550       0.00209159       0.00000228
S        4.58319472       1.38956033       4.91525158       0.00147855      -0.00209484      -0.00256231
S        2.83782237       3.85789101       7.93832633      -0.00147432       0.00209719       0.00256509
S        2.83782183       3.85789064       4.91525166      -0.00148308       0.00209606      -0.00256547
S        4.58319502       1.38956045       7.93832630       0.00147927      -0.00209108       0.00256142
