9
Lattice="6.284141332041527 2.8022876408535692e-08 3.6281506865807875 2.094713799623796 5.924745297220904 3.6281506937576515 1.7156267697382317e-08 2.092118270831737e-08 7.256301343446053" Properties=species:S:1:pos:R:3:forces:R:3 energy=-37.94300079345703 free_energy=-37.94300079345703 stress="-0.00028144687530584633 -3.73526154451298e-10 -4.891986371546864e-09 -3.73526154451298e-10 -0.00028144672978669405 4.184696589248915e-09 -4.891986371546864e-09 4.184696589248915e-09 -0.0002814164909068495" pbc="T T T"
Zr       2.09471439       1.48118687       3.62815089       0.00000280       0.00000279       0.00000191
Zr       6.28414100       4.44355858      10.88445256      -0.00000133       0.00000018       0.00000555
Sn       0.00000005       0.00000006       0.00000016       0.00000119       0.00000381       0.00000111
Te       2.24480836       1.58731940       7.25630122      -0.00445887      -0.00315280      -0.00000098
Te       6.13404680       4.33742583       7.25630112       0.00445637       0.00314979      -0.00000252
Te       5.16173690       1.58731945       5.57221156       0.00222839      -0.00315193      -0.00386551
Te       3.21711804       4.33742603       8.94039083      -0.00222903       0.00315216       0.00386077
Te       3.21711811       4.33742587       5.57221154      -0.00222734       0.00315021      -0.00386344
Te       5.16173693       1.58731928       8.94039103       0.00222784      -0.00315419       0.00386272
