9
Lattice="6.108165762584791 2.863304969296594e-10 3.526551126768681 2.0360552334759054 5.75883388076114 3.5265511631227078 -1.957582075020814e-08 3.068219544263465e-08 7.053102287443695" Properties=species:S:1:pos:R:3:forces:R:3 energy=-40.499267578125 free_energy=-40.499267578125 stress="-1.248080934601603e-05 3.712267160338456e-09 -1.225700430040888e-08 3.712267160338456e-09 -1.249087381438585e-05 -1.1135690147767718e-09 -1.225700430040888e-08 -1.1135690147767718e-09 -1.2495740520535037e-05" pbc="T T T"
Zr       2.03605508       1.43970895       3.52655147      -0.00000063       0.00000274       0.00000082
Zr       6.10816503       4.31912544      10.57965405      -0.00000358       0.00000117       0.00000138
Si      -0.00000010      -0.00000007       0.00000014      -0.00000063       0.00000034       0.00000019
Te       2.06861404       1.46273089       7.05310226       0.00054628       0.00038572      -0.00000091
Te       6.07560719       4.29610267       7.05310186      -0.00054376      -0.00038735      -0.00000023
Te       5.07385874       1.46273105       5.31802317      -0.00027382       0.00038523       0.00047208
Te       3.07036246       4.29610279       8.78818126       0.00027449      -0.00038629      -0.00047208
Te       3.07036254       4.29610290       5.31802319       0.00027436      -0.00038724       0.00047167
Te       5.07385891       1.46273102       8.78818095      -0.00027259       0.00038573      -0.00047280
