9
Lattice="5.757222254047353 4.0127108037106e-08 3.323933787550109 1.9190741319094835 5.427961190474645 3.3239337712777948 -1.3631565522958442e-08 -2.956840679322813e-08 6.647867598710773" Properties=species:S:1:pos:R:3:forces:R:3 energy=-52.05021667480469 free_energy=-52.05021667480469 stress="-2.5900524633470923e-05 -5.256846513645996e-09 1.907122681998885e-09 -5.256846513645996e-09 -2.594285069790203e-05 1.4006935167287793e-08 1.907122681998885e-09 1.4006935167287793e-08 -2.5875728169921786e-05" pbc="T T T"
Zr       1.91907434       1.35698952       3.32393431      -0.00000054      -0.00000856       0.00000305
Zr       5.75722222       4.07097060       9.97180192      -0.00000027      -0.00000376       0.00000564
Ta      -0.00000008      -0.00000003      -0.00000016       0.00000138       0.00000061      -0.00000412
Se       2.01221157       1.42284878       6.64786752       0.00008951       0.00006684      -0.00000105
Se       5.66408479       4.00511258       6.64786721      -0.00009253      -0.00006538      -0.00000215
Se       4.75111621       1.42284874       5.06655975      -0.00004985       0.00006743       0.00007626
Se       2.92517988       4.00511307       8.22917481       0.00004745      -0.00005807      -0.00007991
Se       2.92518017       4.00511305       5.06656026       0.00004824      -0.00006248       0.00008112
Se       4.75111637       1.42284847       8.22917495      -0.00004345       0.00006356      -0.00007884
