9
Lattice="4.3932666862906915 1.3111095349881497e-09 2.5364537918222556 1.4644222145102264 4.1420116511276985 2.5364538186508194 -6.561718543375817e-08 -1.3540243392894243e-08 5.072907697296807" Properties=species:S:1:pos:R:3:forces:R:3 energy=-76.54995727539062 free_energy=-76.54995727539062 stress="-6.611224671360105e-05 1.1734819338471425e-07 -1.48947322031745e-07 1.1734819338471425e-07 -6.641569780185819e-05 -1.1211617589879097e-07 -1.48947322031745e-07 -1.1211617589879097e-07 -6.651895819231868e-05" pbc="T T T"
Zr       1.46442174       1.03550357       2.53645422      -0.00000554       0.00000324       0.00000516
Zr       4.39326674       3.10650867       7.60936259       0.00000268      -0.00000022       0.00001079
Ta       0.00000007      -0.00000011      -0.00000026      -0.00000155       0.00000547       0.00000756
O        1.56618835       1.10746267       5.07290693      -0.00135124      -0.00095151      -0.00001415
O        4.29150078       3.03454854       5.07290792       0.00135511       0.00095092       0.00000701
O        3.61017291       1.10746250       3.89281250       0.00067227      -0.00094886      -0.00116262
O        2.24751572       3.03454918       6.25300231      -0.00067350       0.00094512       0.00115478
O        2.24751717       3.03454965       3.89281234      -0.00066283       0.00094573      -0.00116453
O        3.61017175       1.10746185       6.25300262       0.00066361      -0.00095031       0.00115639
