9
Lattice="5.504692893516793 -3.7419942973940765e-08 3.178135805656945 1.83489759945817 5.189874078354607 3.1781357994808497 2.2043593252867205e-09 -6.0054176068377626e-09 6.356271607495841" Properties=species:S:1:pos:R:3:forces:R:3 energy=-57.744300842285156 free_energy=-57.744300842285156 stress="-4.764321056427434e-05 -3.8399917912101955e-08 1.1757256279665285e-09 -3.8399917912101955e-08 -4.762456228490919e-05 -2.401256793405082e-08 1.1757256279665285e-09 -2.401256793405082e-08 -4.762275784742087e-05" pbc="T T T"
Zr       1.83489721       1.29746848       3.17813600      -0.00000466       0.00000010       0.00000318
Zr       5.50469285       3.89240546       9.53440758       0.00000199      -0.00000316       0.00000078
Ta       0.00000019      -0.00000004       0.00000060      -0.00000544      -0.00000076      -0.00000747
S        1.93670951       1.36946047       6.35627166      -0.00205854      -0.00145411      -0.00000153
S        5.40288067       3.82041382       6.35627156       0.00206369       0.00146087       0.00000000
S        4.53633834       1.36946058       4.85537533       0.00103092      -0.00145365      -0.00178292
S        2.80325233       3.82041358       7.85716762      -0.00103368       0.00146043       0.00178519
S        2.80325245       3.82041332       4.85537509      -0.00103098       0.00145294      -0.00178511
S        4.53633844       1.36946050       7.85716724       0.00103670      -0.00146256       0.00178780
