9
Lattice="4.34055018706049 -3.5373814192273815e-08 2.5060179931946704 1.446850027995247 4.092310266401406 2.5060179949397035 -2.5508938157288884e-08 -1.5900349953005526e-08 5.0120360305720775" Properties=species:S:1:pos:R:3:forces:R:3 energy=-73.76627349853516 free_energy=-73.76627349853516 stress="-5.747847171733156e-05 -3.6296576411132264e-08 2.478280123341392e-07 -3.6296576411132264e-08 -5.777858677902259e-05 1.2787819692050562e-08 2.478280123341392e-07 1.2787819692050562e-08 -5.7691104302648455e-05" pbc="T T T"
Zr       1.44684960       1.02307899       2.50601839      -0.00000514       0.00002123      -0.00000130
Zr       4.34055097       3.06923310       7.51805218       0.00000735       0.00000742      -0.00002579
Ti       0.00000014       0.00000006      -0.00000046      -0.00000311      -0.00000020       0.00001325
O        1.52339335       1.07720191       5.01203623       0.00064448       0.00045958       0.00000228
O        4.26400705       3.01510731       5.01203679      -0.00064024      -0.00046721       0.00000738
O        3.57885312       1.07720128       3.82531580      -0.00032467       0.00044623       0.00056419
O        2.20854672       3.01510830       6.19875676       0.00032750      -0.00046366      -0.00056264
O        2.20854652       3.01510800       3.82531562       0.00032030      -0.00045940       0.00055972
O        3.57885333       1.07720183       6.19875690      -0.00032640       0.00045583      -0.00055766
