9
Lattice="6.207441378928485 2.3084887018004134e-08 3.583867951291085 2.0691471306055433 5.8524319134723175 3.5838679815475922 -1.6130053431602425e-08 2.5650832565957937e-08 7.167735930520264" Properties=species:S:1:pos:R:3:forces:R:3 energy=-47.49705123901367 free_energy=-47.49705123901367 stress="-0.0002467174781486392 2.7050419681984295e-09 -9.258250166510607e-09 2.7050419681984295e-09 -0.00024670673883520067 7.253028844189657e-09 -9.258250166510607e-09 7.253028844189657e-09 -0.000246732757659629" pbc="T T T"
Zr       2.06914713       1.46310703       3.58386801      -0.00000050      -0.00000567       0.00000078
Zr       6.20744135       4.38932474      10.75160392      -0.00000007       0.00000357       0.00000045
Ta      -0.00000016       0.00000013      -0.00000017       0.00000194       0.00000061      -0.00000118
Te       2.17559621       1.53837864       7.16773593      -0.00453660      -0.00320858      -0.00000094
Te       6.10099245       4.31405328       7.16773605       0.00453329       0.00320666       0.00000052
Te       5.11964304       1.53837854       5.46798933       0.00226642      -0.00320788      -0.00392812
Te       3.15694529       4.31405351       8.86748241      -0.00226729       0.00321025       0.00392804
Te       3.15694536       4.31405336       5.46798950      -0.00226547       0.00320949      -0.00392812
Te       5.11964328       1.53837863       8.86748250       0.00226822      -0.00320859       0.00392869
