9
Lattice="5.895986133167353 -3.4255760028981625e-08 3.404049095237845 1.9653286621997645 5.558789113179898 3.40404912391949 -4.2852280771422725e-08 4.826568025679246e-09 6.808098264697991" Properties=species:S:1:pos:R:3:forces:R:3 energy=-38.48470687866211 free_energy=-38.48470687866211 stress="0.00013527092232834548 -1.778792579898436e-08 -8.243783611305844e-08 -1.778792579898436e-08 0.00013533933088183403 -3.2903169966402857e-08 -8.243783611305844e-08 -3.2903169966402857e-08 0.00013523631787393242" pbc="T T T"
Zr       1.96532772       1.38969587       3.40404669      -0.00001361      -0.00002240      -0.00003682
Zr       5.89598603       4.16909364      10.21215068       0.00000253       0.00002797       0.00004797
Te       0.00000007      -0.00000022      -0.00000078       0.00000126       0.00000291       0.00001196
Se       2.11179847       1.49326635       6.80809976      -0.00523932      -0.00371428       0.00001509
Se       5.74951648       4.06552295       6.80809646       0.00523850       0.00370948      -0.00001836
Se       4.84008848       1.49326680       5.23292092       0.00263730      -0.00370930      -0.00453496
Se       3.02122667       4.06552300       8.38327594      -0.00262724       0.00370683       0.00452745
Se       3.02122883       4.06552314       5.23291976      -0.00260867       0.00371729      -0.00453913
Se       4.84008630       1.49326475       8.38327643       0.00260932      -0.00371832       0.00452687
