9
Lattice="5.554454554664122 -2.9074820974016315e-08 3.2068656746640385 1.8514848256233274 5.236789999833704 3.2068656720994624 2.9730014417867963e-07 2.0708203745371394e-07 6.413730834389159" Properties=species:S:1:pos:R:3:forces:R:3 energy=-43.36254119873047 free_energy=-43.36254119873047 stress="6.26085966359824e-05 1.0626024504745146e-07 -4.562173927524782e-08 1.0626024504745146e-07 6.257046334212646e-05 -7.506331911599773e-08 -4.562173927524782e-08 -7.506331911599773e-08 6.246767588891089e-05" pbc="T T T"
Zr       1.85148750       1.30919627       3.20686264       0.00003386      -0.00002513      -0.00004179
Zr       5.55445404       3.92759859       9.62060157      -0.00001161       0.00007724       0.00006464
Te       0.00000008       0.00000013       0.00000058      -0.00000045      -0.00000114      -0.00001155
S        1.94572461       1.37583094       6.41373054      -0.00304651      -0.00220066       0.00001092
S        5.46021723       3.86095664       6.41372829       0.00306356       0.00218013      -0.00003332
S        4.58159284       1.37583275       4.89190953       0.00151974      -0.00216618      -0.00264865
S        2.82434618       3.86095659       7.93555248      -0.00153714       0.00215971       0.00265703
S        2.82434608       3.86095929       4.89191143      -0.00151438       0.00218534      -0.00264135
S        4.58159000       1.37582969       7.93555140       0.00149322      -0.00220907       0.00264362
