9
Lattice="4.58022112341314 1.7635367817381742e-07 2.6443920238629564 1.5267405207685458 4.318273789139214 2.6443920584525564 1.6455308227809167e-07 1.5872004323682205e-07 5.288783762711586" Properties=species:S:1:pos:R:3:forces:R:3 energy=-62.95057678222656 free_energy=-62.95057678222656 stress="-1.0603385817375965e-05 -4.7549811199587566e-08 -3.8996102347255146e-08 -4.7549811199587566e-08 -1.042767325998284e-05 3.187427921602648e-08 -3.8996102347255146e-08 3.187427921602648e-08 -1.0617747648211662e-05" pbc="T T T"
Zr       1.52674044       1.07956756       2.64439201      -0.00000097      -0.00000619       0.00000044
Zr       4.58022131       3.23870593       7.93317680      -0.00000257       0.00000045       0.00001171
Te      -0.00000012       0.00000020       0.00000024       0.00000543      -0.00001711      -0.00000389
O        1.54524548       1.09265337       5.28878377      -0.00041670      -0.00029141      -0.00000117
O        4.56171675       3.22562033       5.28878323       0.00041707       0.00029789      -0.00000714
O        3.80759825       1.09265353       3.98261377       0.00020641      -0.00029381      -0.00035927
O        2.29936329       3.22562097       6.59495387      -0.00020923       0.00030200       0.00036148
O        2.29936339       3.22562086       3.98261388      -0.00020832       0.00030099      -0.00036270
O        3.80759857       1.09265382       6.59495399       0.00020915      -0.00029279       0.00036025
