9
Lattice="5.354453934460263 6.943486682632574e-09 3.0913955889473415 1.7848179808753715 5.048227873519829 3.091395595571467 -9.948335495992997e-09 1.0782865827578064e-09 6.182791195125713" Properties=species:S:1:pos:R:3:forces:R:3 energy=-54.282249450683594 free_energy=-54.282249450683594 stress="-3.6135006666881964e-06 -5.3501018726365146e-08 3.620130328840787e-08 -5.3501018726365146e-08 -3.574875336198602e-06 -2.3407274341025186e-08 3.620130328840787e-08 -2.3407274341025186e-08 -3.4853310353355482e-06" pbc="T T T"
Zr       1.78481750       1.26205829       3.09139537      -0.00000439       0.00001027      -0.00000136
Zr       5.35445550       3.78617156       9.27418756       0.00001277       0.00000593       0.00000315
Ti       0.00000014      -0.00000011       0.00000018       0.00000007      -0.00000043      -0.00000323
S        1.88935690       1.33597773       6.18279134      -0.00013199      -0.00008908       0.00000258
S        5.24991464       3.71225049       6.18279021       0.00012898       0.00008765      -0.00000416
S        4.40977521       1.33597652       4.72762772       0.00006515      -0.00009829      -0.00010926
S        2.72949637       3.71225012       7.63795518      -0.00006887       0.00009251       0.00011489
S        2.72949613       3.71224947       4.72762706      -0.00007086       0.00009063      -0.00011909
S        4.40977523       1.33597747       7.63795484       0.00006926      -0.00009894       0.00011656
