9
Lattice="5.679364121490781 5.039863414158335e-08 3.2789824192638273 1.8931214381622685 5.354555821561766 3.278982390138178 -1.2360707052216244e-08 -4.441185434596831e-08 6.557964859937032" Properties=species:S:1:pos:R:3:forces:R:3 energy=-48.864845275878906 free_energy=-48.864845275878906 stress="-0.0003678944776766002 2.524022590932873e-08 4.922552587771634e-09 2.524022590932873e-08 -0.0003679074579849839 2.5019883054255843e-08 4.922552587771634e-09 2.5019883054255843e-08 -0.000367938686395064" pbc="T T T"
Zr       1.89312171       1.33863962       3.27898095       0.00000217       0.00000656      -0.00001573
Zr       5.67936367       4.01591659       9.83694851      -0.00000490      -0.00000205       0.00001190
Ti      -0.00000001       0.00000011       0.00000031       0.00000026      -0.00000041      -0.00000588
Se       1.97008932       1.39306353       6.55796514      -0.00714894      -0.00505579       0.00000511
Se       5.60239630       3.96149210       6.55796421       0.00715115       0.00505206      -0.00000436
Se       4.69431970       1.39306349       4.98512970       0.00357382      -0.00505091      -0.00618814
Se       2.87816600       3.96149181       8.13080025      -0.00357561       0.00505133       0.00619295
Se       2.87816636       3.96149262       4.98512980      -0.00356929       0.00505412      -0.00618855
Se       4.69431912       1.39306349       8.13079984       0.00357132      -0.00505508       0.00619256
