9
Lattice="6.139291552925329 -7.89617663232467e-08 3.5445216888560487 2.046430488650951 5.788179570889273 3.544521610125582 4.465366578676037e-08 -6.484983524481493e-08 7.089043300369665" Properties=species:S:1:pos:R:3:forces:R:3 energy=-44.77622985839844 free_energy=-44.77622985839844 stress="-0.00011120626732008532 1.2706009577811983e-08 4.09076328367064e-09 1.2706009577811983e-08 -0.00011120889394078404 -1.0270864159167559e-08 4.09076328367064e-09 -1.0270864159167559e-08 -0.00011122369323857129" pbc="T T T"
Zr       2.04643092       1.44704505       3.54452237       0.00000224       0.00000052       0.00000332
Zr       6.13929163       4.34113411      10.63356435      -0.00000080      -0.00000242      -0.00000423
Ti      -0.00000012      -0.00000014       0.00000033      -0.00000029       0.00000073      -0.00000420
Te       2.13912636       1.51259079       7.08904310      -0.00063881      -0.00044926      -0.00000095
Te       6.04659557       4.27558880       7.08904353       0.00063680       0.00045031       0.00000085
Te       5.06972839       1.51259069       5.39705936       0.00031723      -0.00044743      -0.00055006
Te       3.11599379       4.27558882       8.78102717      -0.00031855       0.00045050       0.00055188
Te       3.11599351       4.27558860       5.39705923      -0.00031779       0.00044702      -0.00055071
Te       5.06972831       1.51259105       8.78102694       0.00031994      -0.00044986       0.00055403
