9
Lattice="6.060132437808922 -1.4394379629014876e-07 3.4988191036112193 2.020044069307162 5.713547483535403 3.4988190012775315 3.6811307421717614e-08 -9.930314690447945e-08 6.997638143463383" Properties=species:S:1:pos:R:3:forces:R:3 energy=-45.3004035949707 free_energy=-45.3004035949707 stress="-4.62311845694785e-06 -5.824079885030642e-09 -1.5785326823447576e-08 -5.824079885030642e-09 -4.641277428163448e-06 -3.813111604245023e-08 -1.5785326823447576e-08 -3.813111604245023e-08 -4.593331141222734e-06" pbc="T T T"
Zr       2.02004383       1.42838683       3.49882013      -0.00000258      -0.00000052       0.00000625
Zr       6.06013225       4.28516042      10.49645704      -0.00000475       0.00000026      -0.00000280
V       -0.00000003      -0.00000005       0.00000005       0.00000336       0.00000112       0.00000030
Te       2.09573175       1.48190554       6.99763795       0.00045165       0.00031707      -0.00000179
Te       5.98444540       4.23164166       6.99763848      -0.00045387      -0.00032112       0.00000079
Te       5.01226668       1.48190570       5.31377565      -0.00022339       0.00031823       0.00038910
Te       3.06790987       4.23164168       8.68150028       0.00022617      -0.00031658      -0.00039113
Te       3.06790984       4.23164120       5.31377533       0.00022560      -0.00031711       0.00038818
Te       5.01226659       1.48190597       8.68150007      -0.00022237       0.00031868      -0.00038898
