9
Lattice="5.366628277540885 -1.8055308532392346e-08 3.098424423781841 1.7888760809583637 5.059705544063366 3.098424414311932 9.209994847603046e-08 5.3526258973018016e-08 6.196848688041921" Properties=species:S:1:pos:R:3:forces:R:3 energy=-54.21124267578125 free_energy=-54.21124267578125 stress="-5.065888763056137e-05 1.9523607619476024e-08 6.254936568694802e-09 1.9523607619476024e-08 -5.0673075747909024e-05 -4.18895282905396e-08 6.254936568694802e-09 -4.18895282905396e-08 -5.0720158469630405e-05" pbc="T T T"
Zr       1.78887499       1.26492656       3.09842464      -0.00001134       0.00000099       0.00000437
Zr       5.36662897       3.79477827       9.29527014       0.00000850      -0.00000995      -0.00003553
V       -0.00000009      -0.00000010      -0.00000024       0.00000112      -0.00000238       0.00000469
S        1.87117846       1.32312356       6.19684899      -0.00017428      -0.00011805       0.00000019
S        5.28432567       3.73658235       6.19685088       0.00017482       0.00012001       0.00001587
S        4.43103927       1.32312265       4.71891301       0.00008637      -0.00012273      -0.00014120
S        2.72446584       3.73658270       7.67478458      -0.00008366       0.00012466       0.00014675
S        2.72446509       3.73658238       4.71891306      -0.00009158       0.00011948      -0.00014430
S        4.43103961       1.32312393       7.67478507       0.00008988      -0.00011212       0.00014961
