9
Lattice="5.644836348645501 -2.411782899472116e-08 3.259047828150556 1.8816121137392365 5.322002660115009 3.259047793054736 1.9436463247319583e-08 -2.9239735194139386e-08 6.518095622636125" Properties=species:S:1:pos:R:3:forces:R:3 energy=-49.10208511352539 free_energy=-49.10208511352539 stress="-0.00036483968142420053 -2.6688136145480712e-08 -3.985425323094205e-09 -2.6688136145480712e-08 -0.00036490411730483174 4.701386835392896e-09 -3.985425323094205e-09 4.701386835392896e-09 -0.00036486468161456287" pbc="T T T"
Zr       1.88161200       1.33050262       3.25904791      -0.00000291       0.00002086       0.00000239
Zr       5.64483623       3.99150116       9.77714417       0.00000037      -0.00001214       0.00001041
V        0.00000012      -0.00000033      -0.00000014       0.00000027      -0.00000083       0.00000070
Se       1.93643263       1.36926449       6.51809551      -0.00103390      -0.00073147       0.00000097
Se       5.59001610       3.95273769       6.51809564       0.00103828       0.00072795      -0.00000179
Se       4.67662021       1.36926532       4.93604723       0.00051884      -0.00072670      -0.00090098
Se       2.84982789       3.95273769       8.10014380      -0.00052215       0.00072742       0.00089496
Se       2.84982850       3.95273733       4.93604708      -0.00051750       0.00072736      -0.00089997
Se       4.67662026       1.36926444       8.10014373       0.00051877      -0.00073221       0.00089338
