9
Lattice="4.357657490437729 4.4394202927242155e-08 2.5158946397296766 1.4525525435993143 4.108438891088794 2.5158946311880825 4.2659828640170486e-08 1.9703802561038207e-08 5.0317892055703775" Properties=species:S:1:pos:R:3:forces:R:3 energy=-71.17430877685547 free_energy=-71.17430877685547 stress="-8.198749128496274e-05 -1.937167759535896e-08 -1.1397836630067104e-07 -1.937167759535896e-08 -8.20375353214331e-05 -1.7183334932724392e-07 -1.1397836630067104e-07 -1.7183334932724392e-07 -8.196948328986764e-05" pbc="T T T"
Zr       1.45255229       1.02711054       2.51589332      -0.00000284       0.00001092      -0.00001293
Zr       4.35765740       3.08132830       7.54768511      -0.00000025      -0.00000862       0.00001473
V       -0.00000003       0.00000005       0.00000025      -0.00000237      -0.00000204      -0.00000349
O        1.48887758       1.05279604       5.03178905      -0.00297344      -0.00210049      -0.00000325
O        4.32133235       3.05564273       5.03178905       0.00297831       0.00210123      -0.00000270
O        3.61321914       1.05279585       3.80530070       0.00148833      -0.00209849      -0.00257592
O        2.19699104       3.05564264       6.25827785      -0.00149240       0.00209882       0.00257973
O        2.19699194       3.05564375       3.80530078      -0.00147934       0.00210471      -0.00257480
O        3.61321839       1.05279584       6.25827775       0.00148358      -0.00210558       0.00257914
