9
Lattice="5.50538622105557 -7.65880119145421e-08 3.1785361152886944 1.8351286644829452 5.190527669547082 3.1785361216298145 6.49931587111873e-08 5.372335472721475e-08 6.357072118005962" Properties=species:S:1:pos:R:3:forces:R:3 energy=-56.75865936279297 free_energy=-56.75865936279297 stress="3.72417489415966e-05 1.9798397588033367e-08 2.3998602216579457e-08 1.9798397588033367e-08 3.7315890949685127e-05 -7.995409845307222e-08 2.3998602216579457e-08 -7.995409845307222e-08 3.719730011653155e-05" pbc="T T T"
Zr       1.83512878       1.29763487       3.17853456      -0.00000047       0.00002995      -0.00000969
Zr       5.50538748       3.89289400       9.53560777       0.00000997      -0.00001538      -0.00001152
W       -0.00000015      -0.00000028      -0.00000032      -0.00000730       0.00000762       0.00001550
S        1.91544427       1.35442435       6.35707223      -0.00594682      -0.00419399       0.00000703
S        5.42507072       3.83610276       6.35707269       0.00594801       0.00419164       0.00000398
S        4.54766370       1.35442351       4.83735971       0.00297344      -0.00420144      -0.00514689
S        2.79285083       3.83610385       7.87678576      -0.00296661       0.00418010       0.00513753
S        2.79285032       3.83610306       4.83736006      -0.00297871       0.00419459      -0.00514632
S        4.54766395       1.35442443       7.87678482       0.00296876      -0.00419292       0.00515059
