9
Lattice="5.776240799989289 3.180138026745581e-09 3.334914209370506 1.9254135966241024 5.445892118121731 3.3349142204046576 6.143444166712219e-09 1.7858078734622684e-08 6.669828408100232" Properties=species:S:1:pos:R:3:forces:R:3 energy=-51.759735107421875 free_energy=-51.759735107421875 stress="-6.025704715284519e-05 -5.515876821959864e-08 5.219168208725478e-09 -5.515876821959864e-08 -6.0229107475606725e-05 -5.04577535309636e-09 5.219168208725478e-09 -5.04577535309636e-09 -6.0169826610945165e-05" pbc="T T T"
Zr       1.92541253       1.36147358       3.33491542      -0.00001097       0.00000888       0.00001383
Zr       5.77624182       4.08441749      10.00474075       0.00000813      -0.00001959      -0.00002049
W       -0.00000008       0.00000003       0.00000007       0.00000052      -0.00000135      -0.00000257
Se       1.99018642       1.40727547       6.66982851      -0.00072798      -0.00050497      -0.00000203
Se       5.71146765       4.03861710       6.66982950       0.00072780       0.00050890       0.00000826
Se       4.78114693       1.40727483       5.05846660       0.00036065      -0.00051007      -0.00062868
Se       2.92050713       4.03861721       8.28118998      -0.00036436       0.00051565       0.00063029
Se       2.92050687       4.03861728       5.05846683      -0.00036687       0.00051078      -0.00062737
Se       4.78114831       1.40727562       8.28118970       0.00037304      -0.00050811       0.00062868
