9
Lattice="4.549091660528145 -1.7861416479015965e-08 2.6264192899721803 1.5163638846505798 4.2889247178669505 2.6264192646015614 1.663399183076538e-08 -1.9310568593369904e-08 5.252838551133449" Properties=species:S:1:pos:R:3:forces:R:3 energy=-69.75088500976562 free_energy=-69.75088500976562 stress="0.00024692073930054903 6.916440042914473e-08 1.6960704840585095e-08 6.916440042914473e-08 0.00024672847939655185 1.7277378105973185e-07 1.6960704840585095e-08 1.7277378105973185e-07 0.0002470079343765974" pbc="T T T"
Zr       1.51636476       1.07223207       2.62642027       0.00001288       0.00000852       0.00001046
Zr       4.54909141       3.21669206       7.87925710      -0.00000361      -0.00001850      -0.00000483
W        0.00000010      -0.00000006      -0.00000011       0.00000559       0.00000235      -0.00000515
O        1.56547970       1.10696114       5.25283865       0.00006080       0.00004192      -0.00000151
O        4.49997569       3.18196398       5.25283882      -0.00006892      -0.00004363       0.00000093
O        3.76635141       1.10696220       3.98216329      -0.00003673       0.00005426       0.00004357
O        2.29910373       3.18196272       6.52351353       0.00002996      -0.00004669      -0.00004376
O        2.29910284       3.18196326       3.98216446       0.00002333      -0.00004953       0.00005789
O        3.76635270       1.10696135       6.52351278      -0.00002322       0.00005098      -0.00005773
