9
Lattice="6.152451769932138 -4.889666995900615e-08 3.552119698615028 2.0508171954427517 5.800587156910294 3.552119724770904 -5.0326378891775e-08 -3.551859398196673e-09 7.1042394843979055" Properties=species:S:1:pos:R:3:forces:R:3 energy=-47.28376770019531 free_energy=-47.28376770019531 stress="-0.00012439594138413668 -2.6638256045430353e-08 -2.249010577770605e-08 -2.6638256045430353e-08 -0.00012439109559636563 1.3362016382245656e-08 -2.249010577770605e-08 1.3362016382245656e-08 -0.00012438937847036868" pbc="T T T"
Zr       2.05081708       1.45014660       3.55212002      -0.00000287       0.00000028       0.00000247
Zr       6.15245182       4.35044104      10.65635956       0.00000190       0.00000508       0.00000294
W        0.00000009      -0.00000011       0.00000040       0.00000053       0.00000337      -0.00000623
Te       2.14543765       1.51705335       7.10423958      -0.00457934      -0.00324056      -0.00000041
Te       6.05783165       4.28353368       7.10423910       0.00457755       0.00323663      -0.00000255
Te       5.07973278       1.51705319       5.41012327       0.00228799      -0.00323933      -0.00396465
Te       3.12353616       4.28353356       8.79835537      -0.00229062       0.00324157       0.00396581
Te       3.12353578       4.28353371       5.41012308      -0.00228736       0.00323478      -0.00396350
Te       5.07973267       1.51705338       8.79835525       0.00229210      -0.00324160       0.00396623
